INSANE! Membrane UpperLeaflet>loPI:POPI:DPPI:PYPI:ERGO=180.0:5.0:3.0:2.0:10.0 LowerLeaflet>PSPI:POPI:POPS:YOPS:POPE:YOPE:POPC:YOPC:ERGO=6.0:14.0:21.0:9.0:9.0:21.0:12.0:48.0:60.0
48841
    1loPI    C1    1   9.051   6.877   9.637 -0.2149  0.1983 -0.1200
    1loPI    C2    2   8.862   6.962   9.979  0.0354 -0.2243  0.1320
    1loPI    C3    3   9.094   7.238   9.805  0.0592 -0.0680  0.4060
    1loPI   PO4    4   8.943   6.668   9.529 -0.5391 -0.0448 -0.0503
    1loPI   GL1    5   9.174   6.603   9.165 -0.1097  0.0550 -0.1289
    1loPI   GL2    6   8.942   6.460   8.851  0.0449 -0.3312 -0.1331
    1loPI   C1A    7   9.321   6.908   8.900  0.2367  0.0033  0.0426
    1loPI   C2A    8   9.422   6.988   8.580 -0.0534 -0.0705  0.3176
    1loPI   C3A    9   9.605   7.031   8.240 -0.3043 -0.1331 -0.3599
    1loPI   C4A   10   9.781   7.085   7.839  0.0050 -0.0685  0.2914
    1loPI   C5A   11   9.883   6.931   7.409  0.3641  0.3523  0.1827
    1loPI   C6A   12   9.965   7.163   7.127 -0.1339  0.1195 -0.1766
    1loPI   C1B   13   9.074   6.729   8.429  0.0179  0.0966 -0.0825
    1loPI   C2B   14   9.133   6.803   8.005  0.2819  0.1491  0.2625
    1loPI   C3B   15   9.358   6.878   7.664  0.1951 -0.0725 -0.1728
    1loPI   C4B   16   9.098   6.850   7.372 -0.4161  0.1627  0.0363
    2loPI    C1   17  17.842  17.393  10.846  0.0013  0.0263  0.0886
    2loPI    C2   18  18.088  17.664  10.684  0.3565 -0.3248  0.0247
    2loPI    C3   19  18.035  17.654  11.080 -0.1041  0.1959 -0.0112
    2loPI   PO4   20  17.655  17.376  10.636 -0.1419  0.0316 -0.2247
    2loPI   GL1   21  17.617  17.323  10.234  0.1504 -0.2026 -0.2526
    2loPI   GL2   22  17.500  17.019  10.174  0.2149  0.1280  0.1494
    2loPI   C1A   23  17.769  17.628   9.985  0.2665 -0.1645  0.0331
    2loPI   C2A   24  17.886  17.592   9.608  0.0109 -0.2389  0.2364
    2loPI   C3A   25  17.913  17.582   9.157  0.2602 -0.2490 -0.4001
    2loPI   C4A   26  17.914  17.677   8.806  0.3618 -0.0365 -0.0967
    2loPI   C5A   27  18.094  17.706   8.403  0.4690 -0.2547  0.0523
    2loPI   C6A   28  18.244  17.853   8.118 -0.2623  0.0279 -0.0568
    2loPI   C1B   29  17.469  17.242   9.772  0.0859  0.4864  0.3095
    2loPI   C2B   30  17.525  17.257   9.281  0.1672  0.0182 -0.3818
    2loPI   C3B   31  17.534  17.219   8.872  0.1252 -0.0246 -0.2262
    2loPI   C4B   32  17.647  17.324   8.477  0.0228  0.1286 -0.0744
    3loPI    C1   33   4.361  18.217  10.872 -0.1145  0.0426  0.1349
    3loPI    C2   34   4.719  18.389  10.924 -0.2474  0.3788 -0.0275
    3loPI    C3   35   4.465  18.359  11.232 -0.0545  0.0709  0.1065
    3loPI   PO4   36   4.413  18.136  10.611 -0.0108 -0.0277 -0.0644
    3loPI   GL1   37   4.505  17.692  10.408  0.0907  0.0123 -0.1663
    3loPI   GL2   38   4.678  17.637  10.217 -0.1973  0.1668 -0.0993
    3loPI   C1A   39   4.254  17.693   9.960 -0.2347  0.1566  0.2347
    3loPI   C2A   40   4.287  17.749   9.558 -0.1252 -0.0692  0.2628
    3loPI   C3A   41   4.217  17.827   9.048 -0.0359  0.6730  0.1824
    3loPI   C4A   42   4.351  17.820   8.675  0.0084 -0.0711 -0.2076
    3loPI   C5A   43   4.305  17.624   8.349 -0.0284  0.0005 -0.0236
    3loPI   C6A   44   4.433  17.793   7.902 -0.0169 -0.0053  0.0909
    3loPI   C1B   45   4.743  17.688   9.804 -0.0014 -0.0739 -0.3428
    3loPI   C2B   46   4.883  17.696   9.415  0.0823  0.0332 -0.0316
    3loPI   C3B   47   4.791  17.758   8.971  0.1108 -0.2106  0.1467
    3loPI   C4B   48   4.814  17.768   8.516 -0.0180 -0.0680 -0.0985
    4loPI    C1   49   0.096   8.464  10.631  0.0970 -0.2301 -0.1790
    4loPI    C2   50  -0.161   8.231  10.831 -0.0985  0.1097 -0.0258
    4loPI    C3   51  -0.172   8.628  10.879  0.2556  0.1515 -0.2535
    4loPI   PO4   52   0.241   8.276  10.534 -0.0493 -0.0616  0.3820
    4loPI   GL1   53   0.414   8.331  10.088 -0.3666 -0.3957  0.1550
    4loPI   GL2   54   0.047   8.218  10.048  0.1984 -0.0160  0.0649
    4loPI   C1A   55   0.335   8.608   9.626  0.0461  0.4421 -0.2759
    4loPI   C2A   56   0.381   8.488   9.175 -0.0697  0.3871 -0.4359
    4loPI   C3A   57   0.522   8.625   8.806 -0.1320 -0.2811  0.3429
    4loPI   C4A   58   0.574   8.525   8.472  0.2297 -0.1341  0.1585
    4loPI   C5A   59   0.802   8.153   8.230  0.1813 -0.1053  0.1893
    4loPI   C6A   60   0.712   7.784   8.002 -0.1086 -0.0846  0.2276
    4loPI   C1B   61  -0.093   8.329   9.674 -0.1339 -0.0357 -0.2916
    4loPI   C2B   62  -0.092   8.273   9.204  0.0714  0.0298 -0.0959
    4loPI   C3B   63   0.205   8.169   8.791  0.2053  0.2043  0.2697
    4loPI   C4B   64   0.112   8.350   8.391  0.0286  0.2291  0.0103
    5loPI    C1   65   8.030   5.486  10.129  0.1787  0.1575  0.0352
    5loPI    C2   66   8.317   5.632  10.366  0.0599  0.1014  0.2156
    5loPI    C3   67   8.089   5.328  10.492  0.1181 -0.0534 -0.0452
    5loPI   PO4   68   8.233   5.531   9.850 -0.0790 -0.2641 -0.0192
    5loPI   GL1   69   8.226   5.519   9.518  0.3868 -0.2314  0.0127
    5loPI   GL2   70   8.518   5.573   9.227 -0.1427  0.0602  0.3457
    5loPI   C1A   71   8.057   5.286   9.180  0.2092 -0.2792 -0.1028
    5loPI   C2A   72   7.980   5.160   8.741  0.0988  0.1160 -0.2858
    5loPI   C3A   73   8.029   5.132   8.315  0.0526  0.1248  0.1140
    5loPI   C4A   74   7.933   5.113   7.880  0.1718  0.1326 -0.3919
    5loPI   C5A   75   7.921   4.959   7.400 -0.0684 -0.1275 -0.1874
    5loPI   C6A   76   7.683   4.872   7.023 -0.2158 -0.0166 -0.0439
    5loPI   C1B   77   8.386   5.475   8.797  0.0331  0.2518  0.0678
    5loPI   C2B   78   8.342   5.513   8.438 -0.2077  0.2689 -0.2302
    5loPI   C3B   79   8.137   5.533   7.988 -0.2896 -0.2621 -0.0784
    5loPI   C4B   80   8.244   5.412   7.537 -0.1189  0.1798  0.2058
    6loPI    C1   81   2.473   3.401  10.504 -0.0723 -0.0823  0.0144
    6loPI    C2   82   2.246   3.725  10.556  0.1257  0.0202  0.2598
    6loPI    C3   83   2.321   3.482  10.865 -0.1301 -0.3357  0.0493
    6loPI   PO4   84   2.298   3.301  10.262 -0.2361  0.1363  0.2417
    6loPI   GL1   85   2.188   3.325   9.847  0.3228  0.2819  0.1412
    6loPI   GL2   86   2.422   3.063   9.814 -0.2026  0.0992 -0.0057
    6loPI   C1A   87   2.151   3.392   9.392  0.2005  0.1288  0.0140
    6loPI   C2A   88   2.073   3.403   9.023 -0.0161  0.3493  0.1213
    6loPI   C3A   89   2.227   3.385   8.609 -0.2386  0.0660 -0.0095
    6loPI   C4A   90   2.078   3.637   8.193  0.0543 -0.0578 -0.3350
    6loPI   C5A   91   1.759   3.906   7.945 -0.0635  0.3443  0.3381
    6loPI   C6A   92   1.404   3.751   7.875 -0.0676 -0.3334  0.2931
    6loPI   C1B   93   2.309   2.910   9.415  0.2159 -0.0313  0.1130
    6loPI   C2B   94   2.311   2.971   9.024 -0.1160  0.1256 -0.1261
    6loPI   C3B   95   2.399   2.853   8.603  0.0045  0.0721  0.1894
    6loPI   C4B   96   2.665   2.708   8.215  0.0199 -0.4447 -0.0447
    7loPI    C1   97   0.419  12.029  10.646  0.1722 -0.0058  0.1053
    7loPI    C2   98   0.545  11.909  11.006  0.0255 -0.0928  0.1287
    7loPI    C3   99   0.257  11.706  10.818 -0.1765  0.1811  0.1363
    7loPI   PO4  100   0.529  12.104  10.514  0.0152 -0.0982 -0.2211
    7loPI   GL1  101   0.699  11.998  10.029  0.0241 -0.1648 -0.3446
    7loPI   GL2  102   0.328  11.967  10.071 -0.0063 -0.0867 -0.1004
    7loPI   C1A  103   0.901  11.942   9.641 -0.0741  0.1596 -0.0546
    7loPI   C2A  104   0.915  11.902   9.331 -0.2432 -0.1812  0.0681
    7loPI   C3A  105   1.050  11.815   8.932  0.1037 -0.1649  0.1403
    7loPI   C4A  106   0.784  12.002   8.630  0.0350  0.0314 -0.2296
    7loPI   C5A  107   0.898  12.071   8.181 -0.1291  0.2615 -0.2398
    7loPI   C6A  108   1.215  11.926   7.893  0.1104 -0.0455 -0.1597
    7loPI   C1B  109   0.363  12.018   9.583  0.1641  0.0061  0.0855
    7loPI   C2B  110   0.487  12.096   9.188  0.2595  0.0263 -0.0876
    7loPI   C3B  111   0.250  11.979   8.821 -0.3374  0.1077 -0.1996
    7loPI   C4B  112  -0.092  12.219   8.602  0.0180  0.0044 -0.1510
    8loPI    C1  113   3.296   1.714  10.631  0.2088  0.2518 -0.0812
    8loPI    C2  114   3.006   1.697  10.906  0.1907  0.2380 -0.1011
    8loPI    C3  115   3.374   1.566  10.995  0.1238  0.0039 -0.1618
    8loPI   PO4  116   3.138   1.752  10.411  0.0505 -0.0731  0.1434
    8loPI   GL1  117   3.183   1.757  10.054 -0.1483  0.2205 -0.3078
    8loPI   GL2  118   3.373   1.510   9.979 -0.0172  0.2193  0.3695
    8loPI   C1A  119   3.230   2.000   9.673  0.0263 -0.1851 -0.4806
    8loPI   C2A  120   3.259   1.934   9.169 -0.0600  0.0056 -0.3029
    8loPI   C3A  121   3.234   1.700   8.733  0.0304 -0.1321 -0.2405
    8loPI   C4A  122   3.155   1.773   8.296 -0.4744 -0.1708 -0.2869
    8loPI   C5A  123   3.147   2.277   7.975 -0.1310 -0.2605 -0.2261
    8loPI   C6A  124   2.970   2.664   7.792  0.1691  0.4690  0.1670
    8loPI   C1B  125   3.344   1.544   9.513  0.0235  0.2563 -0.2359
    8loPI   C2B  126   3.529   1.376   9.093  0.1384 -0.0649 -0.1546
    8loPI   C3B  127   3.467   1.253   8.703 -0.0320 -0.0066 -0.3355
    8loPI   C4B  128   3.439   1.317   8.266 -0.2810  0.1390  0.4376
    9loPI    C1  129  18.373   3.042  11.146 -0.0584  0.1862  0.0735
    9loPI    C2  130  18.543   2.760  10.919  0.0638  0.2934  0.0310
    9loPI    C3  131  18.282   2.656  11.204  0.0729  0.1412 -0.0150
    9loPI   PO4  132  18.257   3.244  10.922 -0.3127  0.1120  0.2028
    9loPI   GL1  133  18.331   3.301  10.428 -0.0300 -0.0119  0.1523
    9loPI   GL2  134  18.643   3.182  10.572  0.0245 -0.1764 -0.1179
    9loPI   C1A  135  18.206   3.261  10.012 -0.1280 -0.1810  0.1757
    9loPI   C2A  136  18.255   3.274   9.607 -0.0497 -0.0825  0.0226
    9loPI   C3A  137  18.228   3.208   9.144  0.0414  0.3432  0.0164
    9loPI   C4A  138  18.101   3.329   8.814  0.1628  0.1034 -0.4094
    9loPI   C5A  139  18.085   3.107   8.491  0.3444  0.1581  0.0894
    9loPI   C6A  140  18.077   3.206   8.082 -0.1047 -0.1118 -0.1208
    9loPI   C1B  141  18.636   2.887  10.354 -0.1263  0.3473 -0.0714
    9loPI   C2B  142  18.447   2.803   9.900 -0.1069 -0.1504  0.1294
    9loPI   C3B  143  18.383   2.769   9.458 -0.0920  0.0336 -0.1318
    9loPI   C4B  144  18.435   2.746   9.012 -0.2257 -0.2380  0.1121
   10loPI    C1  145  12.190   8.110   9.978  0.1292  0.2228  0.0905
   10loPI    C2  146  11.915   8.201  10.254 -0.2398  0.1249 -0.2369
   10loPI    C3  147  12.131   7.866  10.289 -0.1844  0.1844  0.0041
   10loPI   PO4  148  12.332   8.369   9.868 -0.0344 -0.1016  0.2222
   10loPI   GL1  149  12.348   8.530   9.388  0.2082 -0.1065  0.1747
   10loPI   GL2  150  12.022   8.282   9.508  0.1307  0.4912  0.1419
   10loPI   C1A  151  12.458   8.566   9.031  0.0579  0.1501  0.0064
   10loPI   C2A  152  12.576   8.509   8.496 -0.0132  0.1143 -0.0413
   10loPI   C3A  153  12.858   8.311   8.246  0.0148 -0.0749  0.2149
   10loPI   C4A  154  12.643   8.357   7.885 -0.2144  0.1381  0.0353
   10loPI   C5A  155  12.320   8.578   7.638 -0.0442  0.0636 -0.0682
   10loPI   C6A  156  12.298   8.907   7.615 -0.1995  0.0878 -0.2421
   10loPI   C1B  157  12.073   8.231   9.045 -0.1510  0.3106  0.0271
   10loPI   C2B  158  12.139   8.185   8.476  0.2415  0.1260  0.4045
   10loPI   C3B  159  12.205   8.143   8.108  0.2481 -0.2097 -0.1411
   10loPI   C4B  160  12.223   8.042   7.708  0.3621 -0.2072 -0.1059
   11loPI    C1  161  14.276  13.294  10.295  0.2003 -0.0482  0.0163
   11loPI    C2  162  14.588  13.252  10.049  0.2385 -0.0335  0.0620
   11loPI    C3  163  14.643  13.241  10.445  0.1541 -0.2247  0.0696
   11loPI   PO4  164  14.118  13.494  10.132  0.1107  0.2508  0.0489
   11loPI   GL1  165  13.969  13.560   9.722 -0.1271  0.1489 -0.0666
   11loPI   GL2  166  13.873  13.907   9.826 -0.2493  0.0448  0.1672
   11loPI   C1A  167  14.159  13.663   9.297  0.1017  0.0017 -0.0954
   11loPI   C2A  168  14.101  13.720   8.825 -0.2116  0.2445 -0.4955
   11loPI   C3A  169  14.297  13.428   8.555  0.2527  0.2230 -0.0347
   11loPI   C4A  170  14.644  13.387   8.165 -0.3701 -0.1357 -0.3402
   11loPI   C5A  171  14.986  13.741   7.952 -0.0994  0.1924 -0.0962
   11loPI   C6A  172  15.301  13.774   7.579  0.2139  0.2023  0.0211
   11loPI   C1B  173  13.809  13.973   9.326  0.0158 -0.4972 -0.4191
   11loPI   C2B  174  13.778  14.112   8.917 -0.1299  0.2133 -0.1506
   11loPI   C3B  175  13.586  13.978   8.512  0.2467  0.0735 -0.2676
   11loPI   C4B  176  13.336  13.959   8.189 -0.3510  0.0849  0.1243
   12loPI    C1  177  15.980  17.453  10.257  0.0265 -0.0766  0.0920
   12loPI    C2  178  15.585  17.486  10.203  0.0379  0.0953  0.1087
   12loPI    C3  179  15.756  17.637  10.531  0.1401  0.1703  0.0216
   12loPI   PO4  180  16.059  17.422  10.087  0.1816  0.0413  0.3983
   12loPI   GL1  181  16.290  17.174   9.839  0.0635  0.0109 -0.2044
   12loPI   GL2  182  16.153  16.858   9.703  0.2228 -0.1529 -0.1233
   12loPI   C1A  183  16.455  17.371   9.472 -0.3054  0.1700 -0.1616
   12loPI   C2A  184  16.587  17.430   9.091 -0.1284  0.1235  0.1011
   12loPI   C3A  185  16.647  17.441   8.730 -0.4424  0.0347 -0.3230
   12loPI   C4A  186  16.668  17.464   8.316 -0.1582  0.0924  0.1280
   12loPI   C5A  187  16.796  17.385   7.936  0.3946  0.2250  0.2784
   12loPI   C6A  188  17.065  17.288   7.749  0.1996 -0.1131  0.3052
   12loPI   C1B  189  16.277  16.876   9.316 -0.3234 -0.0175  0.0218
   12loPI   C2B  190  16.289  17.033   8.950  0.0486  0.1299  0.3113
   12loPI   C3B  191  16.256  17.106   8.499 -0.2497 -0.3054 -0.1603
   12loPI   C4B  192  16.263  17.074   8.116  0.0296 -0.0753  0.1937
   13loPI    C1  193  10.340   9.842  10.361 -0.0551  0.0455  0.0303
   13loPI    C2  194  10.229   9.534  10.132 -0.3343  0.2076 -0.0575
   13loPI    C3  195  10.335   9.472  10.513 -0.2536 -0.0126 -0.1140
   13loPI   PO4  196  10.489  10.053  10.129 -0.0165  0.1734 -0.2701
   13loPI   GL1  197  10.479  10.363   9.812 -0.0324 -0.0804 -0.1302
   13loPI   GL2  198  10.422  10.018   9.616 -0.5241 -0.0763 -0.1807
   13loPI   C1A  199  10.305  10.622   9.546 -0.4756  0.1436  0.2773
   13loPI   C2A  200  10.416  10.865   9.226 -0.5545 -0.1226 -0.3580
   13loPI   C3A  201  10.172  10.904   8.825  0.0675 -0.0931 -0.0254
   13loPI   C4A  202  10.137  11.069   8.481 -0.1313 -0.0641 -0.1261
   13loPI   C5A  203  10.083  11.161   8.067 -0.0338  0.0949 -0.4219
   13loPI   C6A  204   9.947  11.215   7.675 -0.1330  0.0319 -0.1328
   13loPI   C1B  205  10.540  10.275   9.213  0.0300  0.0826 -0.2335
   13loPI   C2B  206  10.556  10.538   8.833 -0.1452  0.1372  0.0340
   13loPI   C3B  207  10.593  10.591   8.477 -0.3582  0.2222 -0.1798
   13loPI   C4B  208  10.623  10.398   7.986  0.0332  0.1858 -0.0479
   14loPI    C1  209   4.023  11.819  10.956  0.5285  0.1158  0.0554
   14loPI    C2  210   3.818  11.678  11.269  0.3442 -0.3167 -0.2502
   14loPI    C3  211   4.035  12.013  11.306 -0.1795 -0.0062  0.1605
   14loPI   PO4  212   3.904  11.743  10.738 -0.0928  0.0463  0.0973
   14loPI   GL1  213   3.823  12.062  10.502  0.2939  0.2699 -0.1264
   14loPI   GL2  214   3.781  12.332  10.585 -0.0377  0.3898  0.2068
   14loPI   C1A  215   3.784  11.912  10.137  0.2979  0.1333  0.2077
   14loPI   C2A  216   3.775  11.950   9.786 -0.3694 -0.1411  0.1073
   14loPI   C3A  217   3.785  12.204   9.461  0.2896  0.1596  0.3905
   14loPI   C4A  218   3.792  12.195   8.992 -0.1026 -0.1668  0.0259
   14loPI   C5A  219   3.709  11.915   8.558 -0.0688 -0.1321 -0.0031
   14loPI   C6A  220   3.652  11.899   8.129  0.1842  0.0241 -0.1361
   14loPI   C1B  221   3.682  12.537  10.250  0.2079 -0.1093  0.0460
   14loPI   C2B  222   3.355  12.437   9.901  0.0310 -0.1430 -0.2338
   14loPI   C3B  223   3.220  12.517   9.436  0.0942  0.1542  0.2013
   14loPI   C4B  224   3.162  12.587   9.035 -0.2684  0.1585 -0.0678
   15loPI    C1  225   2.532   9.868  10.640 -0.0701 -0.3174  0.1230
   15loPI    C2  226   2.590  10.091  10.967 -0.0090  0.0901 -0.1584
   15loPI    C3  227   2.219   9.993  10.855 -0.0238 -0.1640  0.1023
   15loPI   PO4  228   2.664   9.945  10.460 -0.0645  0.0933  0.0800
   15loPI   GL1  229   2.506  10.212  10.080  0.1403  0.0635  0.6780
   15loPI   GL2  230   2.333  10.075   9.880  0.0969 -0.0244  0.0078
   15loPI   C1A  231   2.290  10.629   9.794  0.2565  0.1196 -0.0331
   15loPI   C2A  232   2.303  10.857   9.370 -0.0846  0.1910 -0.0680
   15loPI   C3A  233   2.359  10.900   8.865  0.2723 -0.1590 -0.0563
   15loPI   C4A  234   2.531  10.884   8.407 -0.2147 -0.0378 -0.1553
   15loPI   C5A  235   2.967  10.995   8.254  0.0101  0.1730 -0.1440
   15loPI   C6A  236   3.242  11.260   8.036  0.0597 -0.4206  0.0166
   15loPI   C1B  237   2.315  10.281   9.446  0.2480 -0.2586  0.0621
   15loPI   C2B  238   2.259  10.195   9.121  0.2310  0.0409  0.1323
   15loPI   C3B  239   2.144  10.334   8.632 -0.2092  0.2999 -0.0081
   15loPI   C4B  240   2.079  10.693   8.489  0.1387  0.1008  0.1721
   16loPI    C1  241   4.722  12.036  11.106  0.3184 -0.0145  0.0703
   16loPI    C2  242   4.648  11.725  11.347 -0.3329  0.1231  0.0669
   16loPI    C3  243   4.795  12.064  11.499 -0.2901  0.0509  0.1885
   16loPI   PO4  244   4.534  12.167  11.043  0.4119  0.1994  0.0085
   16loPI   GL1  245   4.251  12.157  10.698  0.2622  0.0477 -0.1372
   16loPI   GL2  246   4.276  12.003  10.371  0.2652 -0.1503  0.1525
   16loPI   C1A  247   4.541  12.348  10.321 -0.1502 -0.1256  0.0944
   16loPI   C2A  248   4.617  12.600   9.921  0.0265  0.1219 -0.2591
   16loPI   C3A  249   4.540  12.892   9.605  0.1082  0.2005  0.2241
   16loPI   C4A  250   4.505  12.912   9.255  0.0147 -0.0746  0.2848
   16loPI   C5A  251   4.660  13.033   8.756 -0.1189  0.2476  0.1060
   16loPI   C6A  252   4.387  13.057   8.385  0.3841  0.0020  0.1324
   16loPI   C1B  253   4.115  12.283   9.948 -0.1408  0.3458 -0.1139
   16loPI   C2B  254   4.271  12.404   9.544  0.1518 -0.0911  0.0249
   16loPI   C3B  255   4.216  12.458   9.064 -0.1016 -0.1283  0.0970
   16loPI   C4B  256   4.069  12.415   8.609  0.0550  0.3778  0.0436
   17loPI    C1  257  17.971   1.319  10.686 -0.0835 -0.0486  0.1852
   17loPI    C2  258  17.807   0.955  10.659 -0.1613 -0.0167  0.2231
   17loPI    C3  259  17.676   1.252  10.425 -0.0775 -0.0203  0.1712
   17loPI   PO4  260  18.222   1.275  10.713  0.1023  0.3032 -0.3305
   17loPI   GL1  261  18.589   1.307  10.403  0.0188 -0.0259  0.0283
   17loPI   GL2  262  18.579   0.976  10.190 -0.0292  0.3041  0.1001
   17loPI   C1A  263  18.558   1.393   9.955 -0.1097  0.0900  0.2432
   17loPI   C2A  264  18.606   1.453   9.544  0.3312 -0.2373 -0.0949
   17loPI   C3A  265  18.493   1.414   9.160 -0.0558 -0.1430 -0.0138
   17loPI   C4A  266  18.537   1.448   8.794 -0.1704 -0.0312 -0.1122
   17loPI   C5A  267  18.510   1.493   8.415 -0.0339  0.1093  0.1893
   17loPI   C6A  268  18.487   1.555   8.016 -0.2599 -0.2499 -0.1019
   17loPI   C1B  269  18.700   1.005   9.738 -0.4138  0.1538 -0.1439
   17loPI   C2B  270  18.675   1.021   9.410 -0.0747 -0.0698  0.3838
   17loPI   C3B  271  18.673   0.925   8.966  0.0872  0.0320  0.0562
   17loPI   C4B  272  18.667   0.958   8.542  0.0338  0.2169 -0.3833
   18loPI    C1  273   3.334  10.107  10.469 -0.1280 -0.1049  0.0738
   18loPI    C2  274   3.357  10.384  10.757 -0.0209 -0.1111  0.0715
   18loPI    C3  275   3.576  10.050  10.783 -0.1093 -0.1711  0.0475
   18loPI   PO4  276   3.415  10.242  10.182 -0.0825 -0.0299  0.5196
   18loPI   GL1  277   3.088  10.261   9.803 -0.4878  0.1862 -0.1919
   18loPI   GL2  278   3.319  10.575   9.871 -0.0523 -0.2116  0.1716
   18loPI   C1A  279   3.194  10.030   9.458 -0.0162  0.0059  0.2294
   18loPI   C2A  280   3.329   9.776   9.128  0.0626 -0.0949  0.2238
   18loPI   C3A  281   3.506   9.822   8.801 -0.1337  0.1476 -0.0885
   18loPI   C4A  282   3.692   9.644   8.466  0.1599 -0.0092 -0.1677
   18loPI   C5A  283   3.760   9.498   8.139  0.2043 -0.0483  0.3373
   18loPI   C6A  284   3.990   9.563   7.905  0.0375 -0.4506 -0.1374
   18loPI   C1B  285   3.200  10.539   9.381  0.1598 -0.1693 -0.3182
   18loPI   C2B  286   3.167  10.678   8.994  0.0692 -0.0028 -0.2301
   18loPI   C3B  287   3.353  10.739   8.562  0.0232  0.0448 -0.2536
   18loPI   C4B  288   3.515  10.906   8.187 -0.1276 -0.2433  0.0097
   19loPI    C1  289   2.851  14.537  11.203  0.2044  0.1344 -0.0433
   19loPI    C2  290   2.997  14.210  11.380 -0.0153  0.0701  0.0220
   19loPI    C3  291   3.128  14.571  11.490 -0.0254  0.0217  0.1964
   19loPI   PO4  292   2.834  14.465  10.948 -0.0271  0.2943  0.4142
   19loPI   GL1  293   2.759  14.409  10.483 -0.0636 -0.3795 -0.1640
   19loPI   GL2  294   2.580  14.641  10.513 -0.0517 -0.1016  0.3442
   19loPI   C1A  295   2.564  14.396  10.052 -0.1359 -0.0359  0.1301
   19loPI   C2A  296   2.782  14.450   9.716 -0.1671  0.0476  0.0860
   19loPI   C3A  297   2.865  14.520   9.224 -0.0720 -0.0248  0.2535
   19loPI   C4A  298   2.905  14.455   8.775  0.2914  0.3260 -0.1029
   19loPI   C5A  299   2.974  14.628   8.410 -0.0304  0.2843  0.1323
   19loPI   C6A  300   3.108  14.679   8.023  0.0791 -0.1213  0.2363
   19loPI   C1B  301   2.554  14.863  10.133 -0.0882  0.0460  0.1093
   19loPI   C2B  302   2.575  14.918   9.748 -0.1303  0.0861 -0.4980
   19loPI   C3B  303   2.654  14.967   9.298 -0.0472  0.5016  0.0236
   19loPI   C4B  304   2.529  14.792   8.962 -0.2726 -0.0845 -0.2689
   20loPI    C1  305   5.396  10.191  10.557 -0.0612 -0.1294 -0.0519
   20loPI    C2  306   5.146   9.986  10.793  0.1257 -0.0958  0.1787
   20loPI    C3  307   5.525  10.044  10.905  0.2022 -0.0294 -0.1053
   20loPI   PO4  308   5.314  10.075  10.230  0.4670  0.0184  0.2047
   20loPI   GL1  309   5.276   9.924   9.813  0.5716  0.1610 -0.0408
   20loPI   GL2  310   5.474   9.762   9.847 -0.1261 -0.0805 -0.2298
   20loPI   C1A  311   5.443  10.038   9.334  0.1822  0.2303 -0.1909
   20loPI   C2A  312   5.421  10.110   8.918  0.3709 -0.0455  0.0853
   20loPI   C3A  313   5.274  10.254   8.593 -0.1629 -0.2440  0.1602
   20loPI   C4A  314   5.185  10.334   8.165 -0.0639 -0.1760  0.1007
   20loPI   C5A  315   5.358  10.675   7.980 -0.1449 -0.3678 -0.0534
   20loPI   C6A  316   5.790  10.900   7.928 -0.2353 -0.1941  0.0287
   20loPI   C1B  317   5.539   9.582   9.459 -0.1845 -0.1276 -0.2344
   20loPI   C2B  318   5.700   9.706   9.050 -0.1428 -0.0026 -0.2609
   20loPI   C3B  319   5.643   9.776   8.614 -0.0151  0.1943 -0.0757
   20loPI   C4B  320   5.714  10.100   8.197 -0.1962 -0.2564 -0.1497
   21loPI    C1  321   2.312   2.422  10.841 -0.0778 -0.0193  0.1546
   21loPI    C2  322   2.673   2.536  10.711 -0.0637 -0.1279  0.0981
   21loPI    C3  323   2.550   2.642  11.076 -0.1500  0.2765 -0.0431
   21loPI   PO4  324   2.173   2.483  10.553 -0.1642 -0.0314  0.0261
   21loPI   GL1  325   2.084   2.399  10.115 -0.2063  0.0547  0.1074
   21loPI   GL2  326   2.278   2.621   9.890  0.0961  0.1557  0.1351
   21loPI   C1A  327   1.875   2.403   9.758  0.0770  0.0719 -0.4110
   21loPI   C2A  328   2.004   2.463   9.419  0.1201 -0.1184  0.0252
   21loPI   C3A  329   1.946   2.494   8.967 -0.1784 -0.0074  0.0150
   21loPI   C4A  330   2.024   2.512   8.542  0.0691  0.1065  0.0122
   21loPI   C5A  331   2.119   2.587   8.075  0.0881  0.2038 -0.0684
   21loPI   C6A  332   1.897   2.915   7.798  0.0045 -0.3329 -0.1155
   21loPI   C1B  333   2.477   2.460   9.588 -0.1758  0.0227  0.1482
   21loPI   C2B  334   2.516   2.440   9.080 -0.0385 -0.0549  0.4164
   21loPI   C3B  335   2.522   2.354   8.635  0.1309 -0.0281 -0.0192
   21loPI   C4B  336   2.690   2.153   8.191  0.3495 -0.2191  0.2801
   22loPI    C1  337  12.290  15.091  10.672 -0.0885 -0.0587 -0.1565
   22loPI    C2  338  12.501  15.211  10.989 -0.0215 -0.0027 -0.2219
   22loPI    C3  339  12.573  14.854  10.825  0.0071  0.0071 -0.2307
   22loPI   PO4  340  12.068  15.102  10.621  0.1529 -0.1078  0.1198
   22loPI   GL1  341  11.823  15.010  10.236  0.2819  0.0751  0.2237
   22loPI   GL2  342  11.581  14.932  10.161  0.5085  0.2272 -0.1273
   22loPI   C1A  343  12.089  14.907   9.818  0.1649 -0.4137 -0.1773
   22loPI   C2A  344  12.140  14.896   9.329 -0.0767  0.0387 -0.0665
   22loPI   C3A  345  12.046  15.145   8.974  0.0123 -0.1125  0.3699
   22loPI   C4A  346  11.854  15.018   8.661  0.1160 -0.0119  0.0015
   22loPI   C5A  347  11.764  15.022   8.160 -0.4245  0.0592 -0.0845
   22loPI   C6A  348  11.886  15.057   7.723 -0.2752 -0.0486  0.0353
   22loPI   C1B  349  11.369  14.738   9.736  0.0175  0.2185 -0.0024
   22loPI   C2B  350  11.172  14.750   9.193  0.0091 -0.0391 -0.0371
   22loPI   C3B  351  10.990  14.646   8.799 -0.0834 -0.0566  0.3629
   22loPI   C4B  352  10.876  14.484   8.401 -0.1495 -0.1515  0.1816
   23loPI    C1  353  17.224  15.555  10.714 -0.0612  0.0465  0.0093
   23loPI    C2  354  16.982  15.322  10.931 -0.3005  0.1306 -0.1624
   23loPI    C3  355  17.045  15.702  11.041  0.0449  0.0067  0.0857
   23loPI   PO4  356  17.108  15.422  10.425 -0.1384  0.1807 -0.1004
   23loPI   GL1  357  17.275  15.435   9.985  0.0093 -0.1678 -0.0240
   23loPI   GL2  358  17.685  15.330   9.908  0.3820 -0.1371 -0.2084
   23loPI   C1A  359  17.161  15.551   9.607  0.1904 -0.0116 -0.0245
   23loPI   C2A  360  17.239  15.552   9.230 -0.0710 -0.0775 -0.1906
   23loPI   C3A  361  17.252  15.336   8.844 -0.0919 -0.1308 -0.0733
   23loPI   C4A  362  17.138  15.036   8.538 -0.2146  0.2569  0.0820
   23loPI   C5A  363  16.808  14.867   8.255  0.0744  0.2301 -0.0714
   23loPI   C6A  364  16.390  15.005   8.048 -0.0457 -0.4097  0.3643
   23loPI   C1B  365  17.761  15.437   9.525 -0.2703  0.0273  0.2818
   23loPI   C2B  366  17.705  15.420   9.038 -0.1328  0.0401  0.0287
   23loPI   C3B  367  17.781  15.410   8.632  0.0839  0.0805 -0.4363
   23loPI   C4B  368  17.697  15.332   8.169  0.2303  0.0289  0.1491
   24loPI    C1  369  13.885   7.864  10.447 -0.1064 -0.3506 -0.0372
   24loPI    C2  370  13.545   7.729  10.285 -0.2048 -0.1699  0.0161
   24loPI    C3  371  13.534   7.950  10.618 -0.0413 -0.0879 -0.0321
   24loPI   PO4  372  13.990   7.939  10.222 -0.0011 -0.0377 -0.0686
   24loPI   GL1  373  14.064   7.725   9.794 -0.0124  0.0979  0.1757
   24loPI   GL2  374  13.804   7.587   9.571 -0.1208 -0.0531  0.0573
   24loPI   C1A  375  14.168   7.915   9.307  0.3214 -0.2745 -0.1102
   24loPI   C2A  376  14.074   7.866   8.803  0.0533 -0.1304 -0.3261
   24loPI   C3A  377  14.157   7.784   8.351 -0.1391  0.0264 -0.1296
   24loPI   C4A  378  14.163   7.879   7.851 -0.1462  0.1326  0.2616
   24loPI   C5A  379  14.205   7.687   7.519  0.2594 -0.2266  0.2250
   24loPI   C6A  380  14.196   7.321   7.522 -0.1223 -0.0434  0.3353
   24loPI   C1B  381  13.812   7.454   9.078 -0.1989 -0.0695 -0.1905
   24loPI   C2B  382  13.839   7.401   8.664  0.0071 -0.3705 -0.2628
   24loPI   C3B  383  13.947   7.328   8.327  0.1503  0.0081  0.0648
   24loPI   C4B  384  13.905   7.308   7.911  0.1421 -0.1752 -0.0039
   25loPI    C1  385   1.350   0.624  10.963  0.2219 -0.0098  0.2407
   25loPI    C2  386   1.323   0.994  11.113  0.0954  0.1454 -0.1521
   25loPI    C3  387   1.089   0.703  11.256  0.0322  0.2707  0.0028
   25loPI   PO4  388   1.589   0.639  10.834  0.4852 -0.1129  0.2376
   25loPI   GL1  389   1.742   0.673  10.386  0.2424 -0.1141 -0.3045
   25loPI   GL2  390   1.981   0.927  10.237 -0.1290 -0.5878 -0.0346
   25loPI   C1A  391   1.653   0.684   9.926  0.0012 -0.2651 -0.0979
   25loPI   C2A  392   1.673   0.723   9.461 -0.3984 -0.0398  0.3438
   25loPI   C3A  393   1.719   0.653   9.074 -0.0951 -0.1465  0.1046
   25loPI   C4A  394   1.744   0.674   8.670  0.0284 -0.0238 -0.2029
   25loPI   C5A  395   1.507   0.828   8.277 -0.1817  0.0187  0.1984
   25loPI   C6A  396   1.405   0.979   7.870 -0.1540  0.0323 -0.1517
   25loPI   C1B  397   2.083   1.084   9.762 -0.2319  0.0859  0.1455
   25loPI   C2B  398   2.056   1.032   9.337 -0.1872 -0.3066 -0.0176
   25loPI   C3B  399   2.088   1.061   8.926  0.0495 -0.0077 -0.1070
   25loPI   C4B  400   2.073   1.023   8.472  0.2090  0.4683  0.1887
   26loPI    C1  401  10.938   7.604   9.808 -0.4034  0.1436  0.0684
   26loPI    C2  402  11.155   7.612  10.144 -0.1864 -0.1130 -0.0605
   26loPI    C3  403  11.106   7.946   9.929  0.1394 -0.0642 -0.0638
   26loPI   PO4  404  10.806   7.281   9.854 -0.0602 -0.1145 -0.1116
   26loPI   GL1  405  10.690   7.090   9.480 -0.1333  0.1123  0.1011
   26loPI   GL2  406  10.911   7.020   9.348 -0.2253  0.0242  0.1314
   26loPI   C1A  407  10.564   7.417   9.102  0.0020  0.0724  0.1363
   26loPI   C2A  408  10.383   7.483   8.700  0.0175  0.3161 -0.1949
   26loPI   C3A  409  10.485   7.532   8.253 -0.0005  0.1607  0.1829
   26loPI   C4A  410  10.502   7.611   7.809  0.1663  0.0473  0.1013
   26loPI   C5A  411  10.673   7.458   7.419  0.3983 -0.0902  0.0105
   26loPI   C6A  412  10.846   7.023   7.513 -0.1990 -0.2501  0.0303
   26loPI   C1B  413  10.846   6.994   8.874 -0.2596 -0.0187 -0.2262
   26loPI   C2B  414  10.969   6.966   8.441  0.1968  0.1855 -0.3974
   26loPI   C3B  415  11.272   7.137   8.052 -0.0811  0.1555 -0.0230
   26loPI   C4B  416  11.421   7.035   7.643  0.0939  0.0628  0.0407
   27loPI    C1  417   5.085  15.283  11.303  0.3266 -0.0354  0.2623
   27loPI    C2  418   4.778  15.143  11.517 -0.1021  0.2560 -0.1414
   27loPI    C3  419   4.861  15.534  11.519  0.1745  0.1997 -0.1587
   27loPI   PO4  420   5.131  15.170  11.059 -0.0418  0.2376 -0.0009
   27loPI   GL1  421   5.212  15.296  10.758 -0.2477  0.2689 -0.0082
   27loPI   GL2  422   4.961  15.424  10.582  0.1864  0.1902 -0.2780
   27loPI   C1A  423   5.386  15.329  10.337  0.0241  0.4804  0.0630
   27loPI   C2A  424   5.366  15.363   9.962  0.1001  0.0473 -0.2937
   27loPI   C3A  425   5.294  15.341   9.566  0.2450  0.0409 -0.1900
   27loPI   C4A  426   5.296  15.384   9.210 -0.2597 -0.1396  0.2457
   27loPI   C5A  427   5.316  15.315   8.730  0.2695  0.0112 -0.0584
   27loPI   C6A  428   5.022  15.446   8.458 -0.0634 -0.1744 -0.1585
   27loPI   C1B  429   4.864  15.461  10.158 -0.2809 -0.1254 -0.2480
   27loPI   C2B  430   4.788  15.511   9.780 -0.0015 -0.1830 -0.1711
   27loPI   C3B  431   4.750  15.495   9.326 -0.1436 -0.1290  0.1313
   27loPI   C4B  432   4.822  15.431   8.907  0.0024 -0.0340 -0.0317
   28loPI    C1  433  18.348  12.938  10.533  0.1353 -0.1741  0.0681
   28loPI    C2  434  18.078  12.650  10.470  0.1582 -0.1427 -0.1810
   28loPI    C3  435  18.277  12.665  10.816 -0.0478 -0.2569 -0.0560
   28loPI   PO4  436  18.204  13.145  10.367 -0.2811 -0.2066 -0.1076
   28loPI   GL1  437  18.134  13.426   9.931  0.3911  0.2422 -0.2149
   28loPI   GL2  438  18.081  13.750  10.049 -0.0709 -0.2140  0.0948
   28loPI   C1A  439  18.172  13.358   9.528 -0.1579  0.2069 -0.4275
   28loPI   C2A  440  18.141  13.447   9.043 -0.2557 -0.1042 -0.3735
   28loPI   C3A  441  18.186  13.504   8.630 -0.4156 -0.0514 -0.4256
   28loPI   C4A  442  18.070  13.593   8.151 -0.1135  0.1006 -0.1418
   28loPI   C5A  443  18.101  13.635   7.700 -0.0598  0.0250  0.2602
   28loPI   C6A  444  18.254  14.031   7.548  0.4676 -0.2601 -0.1750
   28loPI   C1B  445  18.301  13.868   9.696  0.0932 -0.0905 -0.1568
   28loPI   C2B  446  18.412  13.898   9.232  0.0150 -0.1404 -0.0441
   28loPI   C3B  447  18.492  13.905   8.822 -0.0162  0.1032 -0.2242
   28loPI   C4B  448  18.447  13.912   8.400 -0.3409  0.0439 -0.0684
   29loPI    C1  449   3.551   8.258   9.997 -0.0987  0.2239 -0.0002
   29loPI    C2  450   3.561   8.200  10.393  0.2050  0.2215 -0.0059
   29loPI    C3  451   3.902   8.215  10.184  0.0496  0.2838 -0.2598
   29loPI   PO4  452   3.217   8.432  10.036 -0.0331 -0.0454  0.0905
   29loPI   GL1  453   2.876   8.521   9.654  0.1692 -0.4156 -0.3691
   29loPI   GL2  454   2.580   8.475   9.402  0.0889  0.2075  0.1155
   29loPI   C1A  455   3.030   8.428   9.162  0.3394 -0.4753 -0.2160
   29loPI   C2A  456   3.121   8.523   8.763 -0.3061 -0.2586 -0.0838
   29loPI   C3A  457   3.181   8.521   8.343  0.0941  0.0806  0.0819
   29loPI   C4A  458   3.097   8.653   7.979 -0.0536  0.3387 -0.0890
   29loPI   C5A  459   2.957   8.947   7.703  0.0659  0.0645  0.3603
   29loPI   C6A  460   2.715   9.128   7.282  0.0174 -0.2520 -0.2691
   29loPI   C1B  461   2.594   8.358   8.984 -0.0397 -0.1035  0.1405
   29loPI   C2B  462   2.687   8.508   8.498  0.2522 -0.1409 -0.0023
   29loPI   C3B  463   2.678   8.394   7.984 -0.1329 -0.1770 -0.3844
   29loPI   C4B  464   2.881   8.200   7.645 -0.3619 -0.1270  0.1830
   30loPI    C1  465  11.469   4.205  10.110 -0.1123 -0.1172  0.0287
   30loPI    C2  466  11.492   4.604  10.133  0.1237 -0.1258 -0.0262
   30loPI    C3  467  11.488   4.384  10.467 -0.0175 -0.0781  0.0044
   30loPI   PO4  468  11.466   4.124   9.830 -0.1383 -0.1065 -0.0255
   30loPI   GL1  469  11.640   3.996   9.571 -0.1217  0.2174 -0.1129
   30loPI   GL2  470  11.797   3.695   9.607  0.0643  0.2010  0.1699
   30loPI   C1A  471  11.693   3.956   9.126  0.0946  0.2883  0.2171
   30loPI   C2A  472  11.805   3.714   8.730 -0.3141 -0.2478  0.0349
   30loPI   C3A  473  11.747   3.807   8.297 -0.0581 -0.0259  0.0193
   30loPI   C4A  474  11.791   3.743   7.844  0.2564  0.5482 -0.0997
   30loPI   C5A  475  11.668   4.090   7.549  0.0386  0.3708 -0.1079
   30loPI   C6A  476  11.860   4.232   7.116  0.0425 -0.0863  0.1064
   30loPI   C1B  477  11.980   3.507   9.309 -0.0423  0.2045 -0.0693
   30loPI   C2B  478  11.978   3.336   8.923  0.1979 -0.2442 -0.0669
   30loPI   C3B  479  12.046   3.326   8.466 -0.0493 -0.2669  0.1173
   30loPI   C4B  480  12.081   3.336   7.952 -0.1481 -0.1564  0.0068
   31loPI    C1  481   8.352   7.298   9.935  0.0068 -0.2266 -0.0681
   31loPI    C2  482   8.035   7.180  10.149  0.0872 -0.3803 -0.0328
   31loPI    C3  483   8.347   7.353  10.331  0.0490 -0.2836 -0.0594
   31loPI   PO4  484   8.205   7.461   9.699 -0.3017  0.2067 -0.1346
   31loPI   GL1  485   8.205   7.765   9.335 -0.1196 -0.1586  0.0366
   31loPI   GL2  486   8.416   7.813   9.302 -0.2589 -0.3308 -0.0911
   31loPI   C1A  487   8.025   7.700   8.909 -0.2709  0.0187  0.2118
   31loPI   C2A  488   7.810   7.899   8.552  0.1606  0.4003 -0.2163
   31loPI   C3A  489   7.548   7.826   8.345 -0.1346  0.1471 -0.2135
   31loPI   C4A  490   7.449   7.634   8.015  0.1353 -0.0011  0.0731
   31loPI   C5A  491   7.361   7.588   7.646 -0.1254 -0.1124 -0.1091
   31loPI   C6A  492   7.256   7.562   7.219  0.2400 -0.1837  0.2115
   31loPI   C1B  493   8.585   7.945   8.959  0.1588  0.2550 -0.1007
   31loPI   C2B  494   8.381   7.864   8.548 -0.0844  0.1428  0.0677
   31loPI   C3B  495   8.376   7.792   8.085 -0.1292 -0.2042  0.3463
   31loPI   C4B  496   8.335   7.982   7.743 -0.0870 -0.0847 -0.2934
   32loPI    C1  497   9.269  16.695  10.662  0.1912 -0.0658 -0.0311
   32loPI    C2  498   9.559  16.514  10.870  0.1351  0.0944  0.1902
   32loPI    C3  499   9.515  16.911  10.892  0.0958  0.1076 -0.0899
   32loPI   PO4  500   9.276  16.588  10.462 -0.1073 -0.0718 -0.0905
   32loPI   GL1  501   9.072  16.522   9.983 -0.1164 -0.0702  0.2603
   32loPI   GL2  502   9.158  16.723   9.582  0.2198 -0.0423 -0.0870
   32loPI   C1A  503   9.377  16.257   9.783  0.0299  0.0327  0.2403
   32loPI   C2A  504   9.350  16.243   9.278  0.0221  0.1599  0.0700
   32loPI   C3A  505   9.335  16.211   8.851  0.0473  0.1988  0.1125
   32loPI   C4A  506   9.269  16.080   8.463  0.2168  0.0333  0.0211
   32loPI   C5A  507   9.202  15.786   8.079  0.2645  0.0684 -0.0294
   32loPI   C6A  508   9.036  15.762   7.747 -0.1174  0.5499 -0.5802
   32loPI   C1B  509   9.200  16.690   9.123 -0.0053  0.3738  0.6527
   32loPI   C2B  510   9.141  16.735   8.734 -0.1752  0.0273 -0.0603
   32loPI   C3B  511   9.090  16.539   8.298  0.0677 -0.0218  0.2187
   32loPI   C4B  512   8.877  16.716   7.835  0.0040 -0.0376  0.4096
   33loPI    C1  513  10.403   2.480  10.307 -0.1589  0.0161  0.0928
   33loPI    C2  514  10.586   2.285  10.604  0.1368  0.1605  0.0103
   33loPI    C3  515  10.208   2.195  10.508  0.1286 -0.0746  0.2492
   33loPI   PO4  516  10.605   2.415  10.132 -0.1240  0.0292  0.0904
   33loPI   GL1  517  10.495   2.275   9.747  0.0347 -0.0015  0.2568
   33loPI   GL2  518  10.416   2.429   9.465  0.0400  0.1491 -0.2398
   33loPI   C1A  519  10.464   1.964   9.316  0.2211  0.2704  0.2002
   33loPI   C2A  520  10.395   1.889   8.898 -0.0036 -0.1699 -0.1516
   33loPI   C3A  521  10.389   1.813   8.473  0.1233 -0.1016  0.0121
   33loPI   C4A  522  10.361   1.735   8.006 -0.1195 -0.1615 -0.2983
   33loPI   C5A  523  10.169   1.591   7.577  0.0641  0.2427 -0.1050
   33loPI   C6A  524   9.829   1.471   7.250 -0.0016 -0.0365 -0.0607
   33loPI   C1B  525  10.554   2.356   9.058  0.1160 -0.0112  0.0395
   33loPI   C2B  526  10.680   2.378   8.671  0.0798  0.0800 -0.2521
   33loPI   C3B  527  10.516   2.367   8.398  0.1326  0.0495  0.1581
   33loPI   C4B  528  10.470   2.216   7.932 -0.1350 -0.1347  0.1812
   34loPI    C1  529  11.243   2.523  10.583  0.1558  0.0501  0.0895
   34loPI    C2  530  11.117   2.267  10.864 -0.1280  0.0835 -0.0044
   34loPI    C3  531  11.045   2.659  10.904 -0.0282  0.1062 -0.0459
   34loPI   PO4  532  11.137   2.372  10.321  0.1759 -0.0120 -0.0520
   34loPI   GL1  533  11.051   2.346   9.875 -0.1829 -0.1346  0.3855
   34loPI   GL2  534  10.999   2.048   9.847 -0.1038 -0.2836 -0.0507
   34loPI   C1A  535  10.952   2.416   9.488 -0.1577 -0.1237 -0.1278
   34loPI   C2A  536  11.031   2.494   9.059 -0.0910 -0.1853 -0.2546
   34loPI   C3A  537  11.141   2.781   8.697  0.0878 -0.0964  0.0739
   34loPI   C4A  538  11.082   3.030   8.284  0.2128  0.2976 -0.1231
   34loPI   C5A  539  11.195   3.160   7.847  0.4684  0.1374 -0.0207
   34loPI   C6A  540  11.109   3.156   7.411 -0.1642 -0.2902 -0.1499
   34loPI   C1B  541  10.944   1.947   9.425  0.0314 -0.1202 -0.1697
   34loPI   C2B  542  10.870   1.980   9.009 -0.3168 -0.0823 -0.0142
   34loPI   C3B  543  10.874   1.884   8.574  0.1472 -0.2521  0.1997
   34loPI   C4B  544  10.807   1.953   8.182  0.1226  0.0349 -0.0022
   35loPI    C1  545   7.262   6.941  10.204 -0.0426 -0.1325  0.1640
   35loPI    C2  546   7.473   6.959  10.544 -0.0546 -0.0170  0.1659
   35loPI    C3  547   7.300   6.616  10.433  0.3361 -0.1797  0.0425
   35loPI   PO4  548   7.383   7.075  10.045 -0.3914 -0.1705 -0.0174
   35loPI   GL1  549   7.284   7.173   9.662  0.1833 -0.0774  0.2979
   35loPI   GL2  550   6.929   7.157   9.462  0.2564  0.2457  0.3297
   35loPI   C1A  551   7.348   7.077   9.182 -0.0661 -0.2624 -0.1505
   35loPI   C2A  552   7.344   7.010   8.753  0.1510  0.0733 -0.1288
   35loPI   C3A  553   7.429   7.244   8.351  0.0698  0.2192  0.0594
   35loPI   C4A  554   7.326   7.119   7.902  0.1689 -0.2309 -0.0623
   35loPI   C5A  555   7.523   6.809   7.501 -0.2159 -0.1203 -0.2898
   35loPI   C6A  556   7.749   6.439   7.653 -0.0897 -0.0846 -0.1595
   35loPI   C1B  557   6.970   6.771   9.230 -0.1845 -0.1368 -0.1044
   35loPI   C2B  558   6.952   6.770   8.846  0.1479  0.3449  0.0947
   35loPI   C3B  559   6.791   6.661   8.425  0.0409 -0.0770 -0.3657
   35loPI   C4B  560   6.854   6.832   7.934 -0.2118  0.0288  0.1051
   36loPI    C1  561  11.278  14.716  10.845  0.0055 -0.1654 -0.0182
   36loPI    C2  562  11.326  15.072  11.021 -0.1207 -0.1742  0.0351
   36loPI    C3  563  11.569  14.769  11.114  0.0545 -0.0735 -0.0885
   36loPI   PO4  564  11.195  14.795  10.619  0.2220  0.0304 -0.3371
   36loPI   GL1  565  11.153  15.102  10.281  0.2154  0.1954  0.2855
   36loPI   GL2  566  11.155  15.222   9.978  0.1268 -0.3002 -0.1768
   36loPI   C1A  567  10.756  14.922  10.105 -0.1609 -0.2859 -0.1864
   36loPI   C2A  568  10.440  14.776   9.735 -0.1516 -0.3711 -0.3093
   36loPI   C3A  569  10.144  14.789   9.391 -0.0734  0.3128  0.1599
   36loPI   C4A  570  10.008  14.635   8.923  0.2309  0.0203  0.1096
   36loPI   C5A  571  10.009  14.698   8.479  0.0891 -0.2511 -0.1154
   36loPI   C6A  572  10.199  14.819   8.066  0.0585 -0.0662  0.0694
   36loPI   C1B  573  11.141  15.209   9.601 -0.1486  0.4424  0.2692
   36loPI   C2B  574  11.065  15.222   9.204 -0.1206 -0.3157 -0.2439
   36loPI   C3B  575  10.851  15.239   8.734  0.5499  0.1212  0.2510
   36loPI   C4B  576  11.053  15.484   8.346  0.0962 -0.2194  0.1175
   37loPI    C1  577   8.778  15.936  10.833 -0.0126  0.0141  0.1686
   37loPI    C2  578   8.894  15.727  11.154 -0.0453 -0.1978  0.0444
   37loPI    C3  579   8.770  16.106  11.196  0.0985 -0.1726  0.2598
   37loPI   PO4  580   8.488  15.808  10.703 -0.0993 -0.2006 -0.1586
   37loPI   GL1  581   8.432  15.438  10.308  0.2089 -0.4511 -0.1351
   37loPI   GL2  582   8.180  15.662  10.331 -0.3478  0.2065  0.0059
   37loPI   C1A  583   8.277  15.431   9.849 -0.0238  0.0622 -0.1073
   37loPI   C2A  584   8.336  15.523   9.420 -0.3939  0.1272 -0.0932
   37loPI   C3A  585   8.262  15.501   8.939  0.1075  0.0799 -0.0481
   37loPI   C4A  586   8.196  15.440   8.531  0.0002  0.3830 -0.1000
   37loPI   C5A  587   8.190  15.678   8.187 -0.2153 -0.1681 -0.1565
   37loPI   C6A  588   7.935  15.765   7.821 -0.0601 -0.4261  0.1656
   37loPI   C1B  589   8.463  15.906  10.043 -0.0941  0.4443 -0.1624
   37loPI   C2B  590   8.448  15.988   9.674  0.3066  0.2723 -0.2065
   37loPI   C3B  591   8.345  16.247   9.276  0.1010  0.0474  0.1582
   37loPI   C4B  592   8.331  16.350   8.862 -0.2698  0.1829 -0.1716
   38loPI    C1  593  10.356  14.917  10.974 -0.3173  0.2914 -0.0659
   38loPI    C2  594  10.158  14.915  11.321  0.0149  0.0490  0.1270
   38loPI    C3  595  10.541  15.031  11.309 -0.0592  0.2725 -0.1993
   38loPI   PO4  596  10.326  14.711  10.799  0.2049 -0.3639  0.0943
   38loPI   GL1  597  10.365  14.732  10.361  0.1935 -0.2647  0.4088
   38loPI   GL2  598  10.154  14.561  10.311 -0.0310 -0.2132  0.0581
   38loPI   C1A  599  10.319  15.151  10.136  0.1058  0.0258 -0.1118
   38loPI   C2A  600  10.138  15.205   9.812  0.2256 -0.0945 -0.0593
   38loPI   C3A  601   9.950  15.222   9.396  0.2719  0.0077  0.0288
   38loPI   C4A  602   9.826  15.309   8.992  0.0840 -0.1033 -0.1528
   38loPI   C5A  603   9.753  15.311   8.518 -0.0077  0.0586  0.1824
   38loPI   C6A  604   9.624  15.048   8.308  0.0288 -0.0527 -0.0842
   38loPI   C1B  605   9.828  14.840  10.085  0.1002  0.1768  0.1103
   38loPI   C2B  606   9.632  14.863   9.664 -0.2242 -0.4688 -0.0926
   38loPI   C3B  607   9.624  14.879   9.159 -0.1231 -0.3567  0.0832
   38loPI   C4B  608   9.475  14.817   8.760  0.1116  0.1141  0.0036
   39loPI    C1  609   8.045  13.170  11.318  0.0342  0.0601  0.1509
   39loPI    C2  610   8.187  13.341  11.650 -0.0755  0.0671  0.1945
   39loPI    C3  611   7.879  13.086  11.672  0.3938 -0.5236  0.1957
   39loPI   PO4  612   8.119  13.385  11.155  0.4336  0.0506 -0.0401
   39loPI   GL1  613   8.242  13.499  10.717 -0.2734  0.0031  0.1153
   39loPI   GL2  614   8.509  13.316  10.655 -0.0843  0.3411 -0.1021
   39loPI   C1A  615   8.015  13.372  10.334 -0.1105  0.2273 -0.1270
   39loPI   C2A  616   7.747  13.626  10.030 -0.1593 -0.1226  0.1625
   39loPI   C3A  617   7.574  13.636   9.575 -0.0155  0.2664 -0.1389
   39loPI   C4A  618   7.377  13.751   9.225  0.1343 -0.2639 -0.1146
   39loPI   C5A  619   7.447  13.678   8.830 -0.2217  0.3387  0.0555
   39loPI   C6A  620   7.305  13.760   8.304 -0.2321  0.3926 -0.0282
   39loPI   C1B  621   8.545  13.375  10.210 -0.1315  0.3299  0.1352
   39loPI   C2B  622   8.670  13.326  10.017 -0.0911 -0.2357  0.0340
   39loPI   C3B  623   8.599  13.168   9.610  0.1300  0.2830 -0.2493
   39loPI   C4B  624   8.788  13.194   9.165  0.0152  0.2768  0.1556
   40loPI    C1  625  18.027   5.740  10.350 -0.0750  0.0056  0.1149
   40loPI    C2  626  18.255   5.568  10.630 -0.1635 -0.0108  0.1776
   40loPI    C3  627  17.863   5.491  10.617 -0.1358 -0.1245 -0.0419
   40loPI   PO4  628  18.101   5.985  10.326  0.2071 -0.0076 -0.1212
   40loPI   GL1  629  18.348   6.206  10.040  0.1651  0.1834  0.0139
   40loPI   GL2  630  18.459   6.550   9.977  0.1453  0.0132  0.0381
   40loPI   C1A  631  18.098   6.060   9.666 -0.2768 -0.0290  0.0049
   40loPI   C2A  632  18.161   6.128   9.308  0.4155  0.0665  0.0550
   40loPI   C3A  633  18.023   6.282   8.905 -0.0627 -0.1637 -0.0647
   40loPI   C4A  634  18.077   6.052   8.514  0.1134  0.1850 -0.0004
   40loPI   C5A  635  18.146   6.312   8.131  0.3113  0.0798  0.2546
   40loPI   C6A  636  18.414   6.565   8.130 -0.0303  0.0464 -0.1629
   40loPI   C1B  637  18.490   6.461   9.642  0.0982 -0.6641  0.3618
   40loPI   C2B  638  18.567   6.414   9.141  0.0340  0.0583 -0.1588
   40loPI   C3B  639  18.467   6.039   8.870  0.1367 -0.0967 -0.0551
   40loPI   C4B  640  18.574   6.094   8.423  0.0377  0.0499  0.0725
   41loPI    C1  641  15.974   3.162  10.476 -0.0020 -0.2009  0.2438
   41loPI    C2  642  15.804   3.346  10.788 -0.0606  0.0593  0.0618
   41loPI    C3  643  16.200   3.368  10.734 -0.0668  0.1296  0.0435
   41loPI   PO4  644  15.811   3.261  10.180  0.2168 -0.0987 -0.1097
   41loPI   GL1  645  15.846   3.013   9.782  0.0635  0.0939 -0.0785
   41loPI   GL2  646  15.912   2.665   9.758 -0.1670  0.1093  0.1044
   41loPI   C1A  647  15.745   3.153   9.396 -0.1656  0.4043 -0.2256
   41loPI   C2A  648  15.715   3.216   8.995  0.2085  0.1069 -0.2161
   41loPI   C3A  649  15.694   3.248   8.542 -0.0673 -0.4339  0.2648
   41loPI   C4A  650  15.636   3.099   8.036  0.1397 -0.0904 -0.0326
   41loPI   C5A  651  15.600   2.670   7.704  0.0879  0.2476 -0.0042
   41loPI   C6A  652  15.652   2.244   7.662  0.5767 -0.2189 -0.2400
   41loPI   C1B  653  16.101   2.738   9.365 -0.0480 -0.1759 -0.2183
   41loPI   C2B  654  15.946   2.772   8.938 -0.1923  0.2617  0.3445
   41loPI   C3B  655  16.030   2.592   8.532  0.4092  0.0034 -0.2153
   41loPI   C4B  656  15.857   2.585   8.097  0.1908 -0.1469  0.0847
   42loPI    C1  657  14.926  13.605  10.706 -0.1765  0.2174 -0.0316
   42loPI    C2  658  15.198  13.878  10.814  0.1536 -0.0761 -0.1005
   42loPI    C3  659  14.869  13.823  11.036  0.1310  0.3056 -0.0337
   42loPI   PO4  660  15.030  13.599  10.414  0.1965 -0.1048 -0.0955
   42loPI   GL1  661  14.960  13.614  10.068 -0.0075  0.1543 -0.3620
   42loPI   GL2  662  15.137  13.651   9.842 -0.2157 -0.1481  0.2620
   42loPI   C1A  663  14.877  13.283   9.673  0.0236  0.1769 -0.3618
   42loPI   C2A  664  14.976  13.353   9.210  0.0880  0.1143 -0.1213
   42loPI   C3A  665  15.289  13.202   8.812  0.2811  0.0786  0.2224
   42loPI   C4A  666  15.427  12.960   8.570 -0.0790  0.2343 -0.0773
   42loPI   C5A  667  15.396  12.885   8.085  0.2582  0.1473 -0.0051
   42loPI   C6A  668  15.518  13.042   7.676  0.1484  0.0212 -0.4536
   42loPI   C1B  669  15.189  13.788   9.382  0.0519  0.0375  0.1327
   42loPI   C2B  670  15.214  13.688   8.924 -0.1539 -0.3103  0.0737
   42loPI   C3B  671  15.157  13.965   8.460  0.1753  0.2160 -0.1872
   42loPI   C4B  672  15.299  14.140   8.049  0.0859 -0.2845  0.0237
   43loPI    C1  673  10.640  12.735  10.415  0.4071  0.1635  0.1347
   43loPI    C2  674  10.622  12.364  10.563  0.0675  0.1449  0.0542
   43loPI    C3  675  10.537  12.677  10.797  0.3415  0.1738  0.1186
   43loPI   PO4  676  10.864  12.764  10.231 -0.2687 -0.2120 -0.0308
   43loPI   GL1  677  10.967  12.893   9.827  0.0191  0.0362  0.1085
   43loPI   GL2  678  11.143  12.559   9.852 -0.1859 -0.1336  0.1116
   43loPI   C1A  679  10.993  13.004   9.401 -0.1357 -0.2014 -0.1920
   43loPI   C2A  680  10.858  13.108   9.077 -0.1649 -0.0952  0.1858
   43loPI   C3A  681  10.646  13.349   8.823  0.2287  0.2078  0.0187
   43loPI   C4A  682  10.477  13.401   8.367  0.0423  0.4109 -0.1569
   43loPI   C5A  683  10.305  13.187   8.070  0.0396 -0.0609  0.3788
   43loPI   C6A  684  10.479  13.070   7.677 -0.4922 -0.0981  0.0079
   43loPI   C1B  685  11.340  12.741   9.584 -0.2456 -0.1657 -0.1027
   43loPI   C2B  686  11.357  12.757   9.141  0.4090  0.1780 -0.1354
   43loPI   C3B  687  11.193  12.783   8.741  0.0256  0.1618  0.0120
   43loPI   C4B  688  11.137  12.777   8.358  0.0831 -0.0424 -0.1345
   44loPI    C1  689  18.454  15.669  10.852  0.0365 -0.0375  0.0638
   44loPI    C2  690  18.366  15.334  11.051 -0.0416  0.0517  0.1808
   44loPI    C3  691  18.313  15.690  11.226  0.1885  0.1207  0.1142
   44loPI   PO4  692  18.356  15.647  10.585 -0.0996  0.0439 -0.1860
   44loPI   GL1  693  18.037  15.514  10.256  0.2243  0.1606  0.1408
   44loPI   GL2  694  18.149  15.256  10.023  0.1466  0.0936  0.3752
   44loPI   C1A  695  17.985  15.773   9.832  0.2106  0.3742 -0.2066
   44loPI   C2A  696  18.046  15.905   9.456 -0.3848 -0.0574  0.2256
   44loPI   C3A  697  18.104  15.789   9.051 -0.0280 -0.0921 -0.0587
   44loPI   C4A  698  18.231  15.688   8.585  0.4873  0.0061  0.0423
   44loPI   C5A  699  18.110  15.743   8.189  0.0284 -0.0298  0.1602
   44loPI   C6A  700  18.066  15.854   7.801 -0.3949  0.3794 -0.1606
   44loPI   C1B  701  18.282  15.357   9.554  0.1462  0.0417 -0.1013
   44loPI   C2B  702  18.419  15.333   9.154  0.1328 -0.0250 -0.1554
   44loPI   C3B  703  18.484  15.278   8.713  0.3444  0.4313  0.2400
   44loPI   C4B  704  18.455  15.268   8.272 -0.3353 -0.1439  0.1995
   45loPI    C1  705   6.793   8.381  10.152  0.0559 -0.1963  0.2558
   45loPI    C2  706   6.613   8.632  10.406  0.0325 -0.2041  0.2470
   45loPI    C3  707   7.012   8.624  10.381  0.0245  0.1786 -0.1011
   45loPI   PO4  708   6.596   8.405   9.881  0.0731 -0.0700 -0.2043
   45loPI   GL1  709   6.550   8.624   9.578  0.0622 -0.0549 -0.1106
   45loPI   GL2  710   6.589   8.898   9.594  0.0387 -0.1843 -0.0498
   45loPI   C1A  711   6.523   8.652   9.184  0.1445  0.1782 -0.1142
   45loPI   C2A  712   6.416   8.465   8.743  0.1564  0.1367  0.0557
   45loPI   C3A  713   6.566   8.116   8.476  0.0050  0.3724 -0.1146
   45loPI   C4A  714   6.904   7.978   8.269 -0.0090  0.3529 -0.0216
   45loPI   C5A  715   6.983   8.087   7.813  0.0565  0.2437  0.0325
   45loPI   C6A  716   6.881   7.767   7.467 -0.3254  0.1022 -0.2149
   45loPI   C1B  717   6.382   9.193   9.284 -0.1164  0.1202 -0.1865
   45loPI   C2B  718   6.367   9.340   8.787 -0.0188 -0.3401  0.6395
   45loPI   C3B  719   6.405   9.447   8.342 -0.4301  0.2743  0.0574
   45loPI   C4B  720   6.242   9.770   8.060 -0.0744  0.1174 -0.1423
   46loPI    C1  721   5.649   9.404  10.150  0.0345 -0.1940 -0.1722
   46loPI    C2  722   5.960   9.156  10.104  0.1197 -0.1237  0.0138
   46loPI    C3  723   5.836   9.256  10.471 -0.0845 -0.1023 -0.0593
   46loPI   PO4  724   5.391   9.251  10.006 -0.1280 -0.0723 -0.1646
   46loPI   GL1  725   5.105   9.474   9.669 -0.0174 -0.0038  0.1762
   46loPI   GL2  726   4.996   9.181   9.708  0.0191  0.1945  0.1549
   46loPI   C1A  727   5.018   9.705   9.278 -0.1925 -0.0662 -0.0135
   46loPI   C2A  728   5.000   9.760   8.897  0.1039 -0.1323  0.3275
   46loPI   C3A  729   4.903   9.938   8.669 -0.0145 -0.0162  0.0863
   46loPI   C4A  730   5.163   9.824   8.260 -0.2023  0.0647  0.1194
   46loPI   C5A  731   5.130   9.676   7.857 -0.3725  0.0022 -0.2945
   46loPI   C6A  732   5.326   9.570   7.423  0.0405 -0.0267 -0.1114
   46loPI   C1B  733   5.324   9.098   9.348  0.2945  0.0941  0.2658
   46loPI   C2B  734   5.344   9.325   8.966 -0.0735  0.2435  0.0555
   46loPI   C3B  735   5.376   9.207   8.453 -0.0411  0.0107 -0.0292
   46loPI   C4B  736   5.514   9.097   8.096 -0.0027 -0.1847  0.2258
   47loPI    C1  737   6.543  17.023  10.900 -0.1939  0.3209  0.1630
   47loPI    C2  738   6.416  16.822  11.222  0.2063  0.0874  0.1812
   47loPI    C3  739   6.673  17.127  11.264 -0.0049  0.2777  0.1091
   47loPI   PO4  740   6.371  16.966  10.664 -0.0364 -0.0596  0.1731
   47loPI   GL1  741   6.518  16.807  10.328 -0.2886  0.0373 -0.2745
   47loPI   GL2  742   6.704  16.567  10.238 -0.1101  0.1248 -0.0010
   47loPI   C1A  743   6.250  16.667   9.935 -0.3299 -0.1056  0.1182
   47loPI   C2A  744   6.220  16.640   9.440  0.1218  0.0316  0.0724
   47loPI   C3A  745   6.291  16.619   9.055  0.0370 -0.1280 -0.2504
   47loPI   C4A  746   6.300  16.696   8.542  0.0256 -0.3498 -0.0117
   47loPI   C5A  747   5.969  16.938   8.305 -0.1500 -0.0575  0.1544
   47loPI   C6A  748   5.577  17.037   8.118  0.2943  0.0111  0.1814
   47loPI   C1B  749   6.685  16.680   9.775 -0.0669 -0.0205 -0.0013
   47loPI   C2B  750   6.748  16.581   9.356 -0.3087  0.0171 -0.0544
   47loPI   C3B  751   6.802  16.584   8.889  0.0992  0.4416  0.1185
   47loPI   C4B  752   6.751  16.627   8.391  0.3953  0.1227  0.0494
   48loPI    C1  753  11.273   3.316  10.187 -0.1506 -0.1485 -0.0353
   48loPI    C2  754  11.147   3.050  10.457 -0.0639  0.0983  0.2539
   48loPI    C3  755  11.431   3.314  10.554  0.1427  0.0358 -0.1564
   48loPI   PO4  756  11.329   3.182   9.961  0.1300 -0.2305  0.0844
   48loPI   GL1  757  11.291   3.113   9.516 -0.0596  0.3877 -0.0210
   48loPI   GL2  758  11.346   2.795   9.674  0.1940  0.0222 -0.3822
   48loPI   C1A  759  11.105   3.125   9.109  0.0604  0.1227  0.0543
   48loPI   C2A  760  11.000   3.247   8.684 -0.0196 -0.3231 -0.0506
   48loPI   C3A  761  10.830   3.535   8.424 -0.2541  0.1223 -0.0648
   48loPI   C4A  762  10.758   3.394   8.032  0.3535  0.0857  0.1873
   48loPI   C5A  763  10.639   3.307   7.669  0.0247  0.4351  0.1096
   48loPI   C6A  764  10.711   2.916   7.432  0.4062 -0.0299 -0.0398
   48loPI   C1B  765  11.497   2.608   9.352  0.1110 -0.0105  0.0453
   48loPI   C2B  766  11.482   2.424   9.038 -0.0896 -0.2536  0.0935
   48loPI   C3B  767  11.376   2.388   8.570  0.0931 -0.2554 -0.0759
   48loPI   C4B  768  11.041   2.368   8.311  0.2008 -0.2163  0.1834
   49loPI    C1  769   2.455  12.346  10.818  0.0768  0.0260 -0.2111
   49loPI    C2  770   2.170  12.202  11.059  0.2478  0.1037  0.0417
   49loPI    C3  771   2.268  12.589  11.075  0.1581  0.1412 -0.2605
   49loPI   PO4  772   2.351  12.315  10.584  0.0818  0.2572  0.3296
   49loPI   GL1  773   2.488  12.563  10.262 -0.1226 -0.1840  0.3100
   49loPI   GL2  774   2.512  12.799  10.199 -0.1798  0.2754  0.1119
   49loPI   C1A  775   2.358  12.369   9.867 -0.1741 -0.0412 -0.1406
   49loPI   C2A  776   2.375  12.106   9.521  0.0232 -0.0439 -0.1569
   49loPI   C3A  777   2.519  11.997   9.150  0.0965  0.3315 -0.0540
   49loPI   C4A  778   2.782  11.782   8.850  0.3754 -0.1481 -0.2123
   49loPI   C5A  779   2.775  11.528   8.600 -0.1409  0.1837 -0.1935
   49loPI   C6A  780   2.900  11.035   8.731  0.0898  0.2230 -0.0688
   49loPI   C1B  781   2.435  12.957   9.800 -0.2679 -0.1401 -0.0487
   49loPI   C2B  782   2.326  12.715   9.463  0.0272  0.0550 -0.0709
   49loPI   C3B  783   2.043  12.815   9.125  0.1979  0.1734  0.0416
   49loPI   C4B  784   2.003  12.772   8.679  0.0196  0.1290 -0.1544
   50loPI    C1  785  13.974   6.082   9.993  0.0854 -0.0373  0.1242
   50loPI    C2  786  13.823   6.269  10.312 -0.2189  0.2060 -0.1550
   50loPI    C3  787  13.579   6.137  10.024  0.0106 -0.4235 -0.0759
   50loPI   PO4  788  14.222   6.270   9.984  0.1852 -0.1828  0.3465
   50loPI   GL1  789  14.410   6.389   9.566  0.0758  0.3205 -0.0898
   50loPI   GL2  790  14.177   6.065   9.523  0.0299  0.2100  0.2074
   50loPI   C1A  791  14.298   6.519   9.120  0.1762 -0.0797 -0.0213
   50loPI   C2A  792  14.333   6.418   8.724  0.4329  0.4436  0.0146
   50loPI   C3A  793  14.201   6.420   8.323  0.0336 -0.1964 -0.0324
   50loPI   C4A  794  14.106   6.385   7.917  0.0164  0.1626  0.2445
   50loPI   C5A  795  14.335   6.353   7.522 -0.1474 -0.2125 -0.0299
   50loPI   C6A  796  14.662   6.246   7.226  0.2562 -0.2349  0.1196
   50loPI   C1B  797  14.244   5.985   9.075  0.2387  0.3804  0.1457
   50loPI   C2B  798  14.401   5.949   8.610  0.1167  0.1356  0.1556
   50loPI   C3B  799  14.482   6.021   8.228 -0.0701  0.1271 -0.1030
   50loPI   C4B  800  14.684   6.057   7.780 -0.2355  0.1692 -0.1239
   51loPI    C1  801  16.118   9.523  10.164 -0.0093  0.2911 -0.0536
   51loPI    C2  802  16.073   9.456  10.556 -0.2937  0.1247 -0.1119
   51loPI    C3  803  15.753   9.526  10.327 -0.1610 -0.1035 -0.3722
   51loPI   PO4  804  16.363   9.776  10.111  0.1018  0.1015  0.2401
   51loPI   GL1  805  16.597   9.789   9.658  0.0974 -0.0575  0.0654
   51loPI   GL2  806  16.429   9.508   9.573 -0.0689 -0.1428 -0.3066
   51loPI   C1A  807  16.682   9.878   9.326 -0.0880  0.1742  0.1981
   51loPI   C2A  808  16.665  10.078   8.961 -0.3220  0.3898  0.1084
   51loPI   C3A  809  16.537  10.162   8.483 -0.3868  0.0517 -0.2728
   51loPI   C4A  810  16.560  10.082   8.034 -0.0133 -0.0116  0.3788
   51loPI   C5A  811  16.340  10.180   7.706  0.1767 -0.1025  0.1350
   51loPI   C6A  812  16.204  10.599   7.578 -0.0902 -0.1851  0.2391
   51loPI   C1B  813  16.513   9.425   9.154 -0.0227  0.1629 -0.0578
   51loPI   C2B  814  16.629   9.540   8.750  0.2081 -0.0749 -0.1206
   51loPI   C3B  815  16.697   9.621   8.287  0.0033  0.1444 -0.0152
   51loPI   C4B  816  16.488   9.544   7.828  0.0800  0.0613 -0.0022
   52loPI    C1  817   8.093   1.636  10.283 -0.1554 -0.0325  0.0237
   52loPI    C2  818   8.189   1.784  10.642  0.2138  0.0979 -0.1249
   52loPI    C3  819   7.823   1.844  10.493  0.1087  0.1787  0.1595
   52loPI   PO4  820   8.265   1.349  10.245  0.2564  0.0266 -0.1968
   52loPI   GL1  821   8.501   1.319   9.906 -0.1771  0.0504  0.3644
   52loPI   GL2  822   8.630   1.542   9.662  0.1448  0.1632  0.1752
   52loPI   C1A  823   8.485   1.105   9.472 -0.2523 -0.0868  0.0761
   52loPI   C2A  824   8.498   1.194   9.115 -0.4515 -0.2425 -0.0921
   52loPI   C3A  825   8.442   1.033   8.800  0.0495  0.0811  0.0476
   52loPI   C4A  826   8.423   1.161   8.455 -0.0419 -0.1547  0.4070
   52loPI   C5A  827   8.448   1.152   7.983 -0.0182 -0.2598  0.1141
   52loPI   C6A  828   8.730   0.988   7.800  0.3145  0.0806 -0.2197
   52loPI   C1B  829   8.458   1.641   9.301 -0.3161  0.2345 -0.1240
   52loPI   C2B  830   8.254   1.640   8.959  0.1976  0.1090  0.1012
   52loPI   C3B  831   8.190   1.579   8.482 -0.3211 -0.2051 -0.3663
   52loPI   C4B  832   8.217   1.562   8.110 -0.0764  0.1238  0.4241
   53loPI    C1  833   4.912   8.331  10.346 -0.0694  0.1667  0.0553
   53loPI    C2  834   5.005   7.948  10.410 -0.2187  0.1445  0.1449
   53loPI    C3  835   4.980   8.201  10.718 -0.2026  0.2073  0.0948
   53loPI   PO4  836   4.761   8.273  10.109  0.4287  0.0328 -0.0689
   53loPI   GL1  837   4.744   8.350   9.709 -0.0276 -0.0049  0.0039
   53loPI   GL2  838   4.648   8.038   9.665 -0.1833  0.1892  0.1517
   53loPI   C1A  839   4.625   8.349   9.215  0.1518  0.1649  0.1106
   53loPI   C2A  840   4.770   8.176   8.800  0.3287  0.0058  0.1259
   53loPI   C3A  841   4.603   8.247   8.367 -0.1831  0.1247  0.1091
   53loPI   C4A  842   4.808   8.356   7.964  0.2225 -0.0462  0.1804
   53loPI   C5A  843   5.046   8.487   7.546 -0.0401 -0.1621  0.1750
   53loPI   C6A  844   5.042   8.693   7.115 -0.1855 -0.1447 -0.0695
   53loPI   C1B  845   4.580   7.892   9.278 -0.1225  0.2185  0.0419
   53loPI   C2B  846   4.590   7.703   8.907 -0.1398 -0.0958 -0.0118
   53loPI   C3B  847   4.614   7.758   8.499 -0.4444 -0.0706 -0.1994
   53loPI   C4B  848   4.685   7.867   8.053  0.0197 -0.3221 -0.0365
   54loPI    C1  849  17.053   4.821  10.524 -0.1666  0.1614 -0.1264
   54loPI    C2  850  16.741   4.673  10.725  0.1581 -0.1737  0.1472
   54loPI    C3  851  16.818   5.066  10.735 -0.0015 -0.1471  0.4347
   54loPI   PO4  852  16.942   4.718  10.250 -0.1721 -0.4973 -0.1735
   54loPI   GL1  853  16.585   4.895   9.866  0.2066 -0.0558 -0.0062
   54loPI   GL2  854  16.341   4.931   9.797 -0.0046  0.2511  0.1985
   54loPI   C1A  855  16.590   4.573   9.621 -0.0296  0.2853  0.0986
   54loPI   C2A  856  16.702   4.539   9.139  0.1899  0.0775  0.0034
   54loPI   C3A  857  16.761   4.440   8.737 -0.1554  0.2392  0.0375
   54loPI   C4A  858  16.907   4.349   8.354 -0.1188 -0.0311 -0.3584
   54loPI   C5A  859  16.984   4.184   8.028  0.0749 -0.0925  0.1176
   54loPI   C6A  860  17.410   4.096   7.724 -0.1425 -0.2551  0.0089
   54loPI   C1B  861  16.442   4.975   9.309 -0.1124 -0.1295 -0.0785
   54loPI   C2B  862  16.613   4.932   8.852  0.4332  0.1470  0.0139
   54loPI   C3B  863  16.675   4.884   8.423  0.1470  0.1104 -0.1264
   54loPI   C4B  864  16.755   4.805   8.058 -0.1612  0.1600 -0.4826
   55loPI    C1  865   0.533   4.625  10.699  0.0192 -0.0156  0.0627
   55loPI    C2  866   0.204   4.795  10.850 -0.0506 -0.0023 -0.1027
   55loPI    C3  867   0.537   5.012  10.802 -0.0025 -0.0274  0.1082
   55loPI   PO4  868   0.444   4.486  10.476 -0.2343 -0.0666  0.2113
   55loPI   GL1  869   0.422   4.365  10.087 -0.2289 -0.0694 -0.3930
   55loPI   GL2  870   0.290   4.102   9.931 -0.0063 -0.1229 -0.0838
   55loPI   C1A  871   0.659   4.458   9.757  0.1401 -0.2477 -0.1300
   55loPI   C2A  872   0.738   4.412   9.372  0.3146  0.1354 -0.0277
   55loPI   C3A  873   0.728   4.363   8.864  0.0713 -0.2928 -0.0491
   55loPI   C4A  874   0.674   4.761   8.522 -0.2249  0.0834 -0.2609
   55loPI   C5A  875   0.611   4.757   8.037 -0.0489 -0.2012  0.1765
   55loPI   C6A  876   0.732   4.766   7.553  0.0651 -0.0227  0.0787
   55loPI   C1B  877   0.426   4.040   9.599 -0.0658 -0.0975 -0.3767
   55loPI   C2B  878   0.490   4.015   9.189  0.1793 -0.2868  0.0118
   55loPI   C3B  879   0.379   3.965   8.704  0.4399 -0.3606 -0.2144
   55loPI   C4B  880   0.215   4.011   8.214  0.1225  0.0145 -0.1094
   56loPI    C1  881  10.484   5.049   9.986  0.1061  0.0698  0.0548
   56loPI    C2  882  10.518   5.237  10.338 -0.0207  0.0480  0.0791
   56loPI    C3  883  10.541   4.838  10.321 -0.1487  0.0402  0.0811
   56loPI   PO4  884  10.575   5.258   9.848  0.3920  0.0121  0.3319
   56loPI   GL1  885  10.445   5.418   9.497  0.1150 -0.1360  0.3143
   56loPI   GL2  886  10.629   5.709   9.565  0.3062  0.4693  0.0956
   56loPI   C1A  887  10.406   5.290   9.038  0.1777 -0.0585 -0.4382
   56loPI   C2A  888  10.243   5.076   8.689  0.1336 -0.2905  0.2246
   56loPI   C3A  889  10.240   4.938   8.278  0.2578 -0.3794  0.2655
   56loPI   C4A  890  10.102   4.821   7.859  0.2770 -0.0327 -0.1140
   56loPI   C5A  891  10.328   4.723   7.436 -0.0172  0.0798 -0.0367
   56loPI   C6A  892  10.724   4.598   7.473 -0.3025 -0.4253  0.0479
   56loPI   C1B  893  10.488   5.770   9.134  0.0595  0.0959  0.2855
   56loPI   C2B  894  10.563   5.695   8.664 -0.2044  0.0767 -0.1245
   56loPI   C3B  895  10.534   5.345   8.362 -0.0370  0.1804 -0.1679
   56loPI   C4B  896  10.555   5.216   7.984  0.1360  0.1325  0.0853
   57loPI    C1  897   3.863   9.316  10.122  0.0396  0.1697  0.1272
   57loPI    C2  898   3.994   9.274  10.498  0.0863 -0.2156  0.0720
   57loPI    C3  899   3.603   9.248  10.418  0.0144  0.4194  0.1645
   57loPI   PO4  900   4.006   9.515  10.029  0.2146 -0.4098 -0.0557
   57loPI   GL1  901   3.990   9.765   9.641 -0.0693 -0.3115 -0.1359
   57loPI   GL2  902   4.288   9.770   9.685 -0.0567  0.0315  0.1742
   57loPI   C1A  903   3.826   9.693   9.257 -0.1269 -0.1980  0.1286
   57loPI   C2A  904   4.059   9.786   8.841  0.2365  0.2041 -0.0617
   57loPI   C3A  905   4.010   9.981   8.455  0.3152  0.0732  0.0534
   57loPI   C4A  906   4.214  10.077   8.065  0.6018 -0.2243 -0.0859
   57loPI   C5A  907   4.263  10.021   7.688  0.2132  0.2176 -0.0301
   57loPI   C6A  908   4.420   9.962   7.272 -0.0745 -0.1617 -0.2495
   57loPI   C1B  909   4.356   9.777   9.245  0.1658 -0.1364 -0.2147
   57loPI   C2B  910   4.520   9.656   8.944 -0.1216  0.1100  0.0354
   57loPI   C3B  911   4.413   9.664   8.461 -0.2320  0.0721  0.1297
   57loPI   C4B  912   4.569   9.650   8.053  0.2736  0.2392  0.2221
   58loPI    C1  913   3.834  17.574  11.207 -0.2088 -0.1583  0.1334
   58loPI    C2  914   3.687  17.260  11.406  0.0267 -0.2994  0.0883
   58loPI    C3  915   4.081  17.326  11.400 -0.0059 -0.1086 -0.0588
   58loPI   PO4  916   3.715  17.561  10.925 -0.1911 -0.0038 -0.3773
   58loPI   GL1  917   3.632  17.474  10.565 -0.0460 -0.2631  0.0977
   58loPI   GL2  918   3.470  17.232  10.399 -0.3643 -0.1548 -0.0279
   58loPI   C1A  919   3.786  17.552  10.104 -0.0350  0.1450 -0.1429
   58loPI   C2A  920   3.865  17.442   9.709 -0.0752 -0.0002 -0.0165
   58loPI   C3A  921   3.947  17.396   9.227  0.3138 -0.0436 -0.0506
   58loPI   C4A  922   3.940  17.444   8.736  0.1843 -0.3472  0.0976
   58loPI   C5A  923   3.949  17.302   8.449 -0.0306  0.1611 -0.2973
   58loPI   C6A  924   3.726  17.369   7.995  0.0594 -0.0934 -0.2846
   58loPI   C1B  925   3.550  17.167   9.965  0.1079 -0.0446 -0.0616
   58loPI   C2B  926   3.659  16.985   9.674  0.0472 -0.0495  0.0839
   58loPI   C3B  927   3.634  16.971   9.164 -0.0476 -0.0194 -0.3199
   58loPI   C4B  928   3.587  17.033   8.702 -0.3311  0.0452 -0.3769
   59loPI    C1  929   3.739   4.617  10.145 -0.1964  0.0039  0.1354
   59loPI    C2  930   4.003   4.331  10.237 -0.1728 -0.0634 -0.1331
   59loPI    C3  931   4.119   4.714  10.228 -0.1821 -0.0521  0.1354
   59loPI   PO4  932   3.595   4.473   9.933 -0.0963  0.2240 -0.2197
   59loPI   GL1  933   3.704   4.354   9.516  0.1719 -0.0181  0.0880
   59loPI   GL2  934   3.918   4.415   9.321 -0.2517 -0.0836  0.1353
   59loPI   C1A  935   3.466   4.243   9.106 -0.1318  0.2131 -0.3277
   59loPI   C2A  936   3.430   4.285   8.602 -0.1609 -0.1358  0.0329
   59loPI   C3A  937   3.192   4.400   8.290  0.2330 -0.2094 -0.0770
   59loPI   C4A  938   3.186   4.668   7.852 -0.0391  0.2137 -0.1635
   59loPI   C5A  939   3.433   5.083   7.695 -0.0626  0.0787  0.1601
   59loPI   C6A  940   3.746   5.357   7.548 -0.1074  0.3983  0.0694
   59loPI   C1B  941   3.840   4.514   8.894 -0.0489  0.1826 -0.3746
   59loPI   C2B  942   3.827   4.497   8.538  0.0170 -0.0855 -0.1866
   59loPI   C3B  943   4.001   4.320   8.118  0.1365 -0.0108  0.0481
   59loPI   C4B  944   3.924   3.986   7.770 -0.0147  0.3625  0.0260
   60loPI    C1  945   0.969  18.143  10.892 -0.1086  0.0080 -0.0659
   60loPI    C2  946   1.106  17.903  11.182 -0.0185  0.1417  0.0030
   60loPI    C3  947   0.903  18.235  11.276 -0.2638  0.0220 -0.0951
   60loPI   PO4  948   1.247  18.250  10.835 -0.0777  0.0835  0.2777
   60loPI   GL1  949   1.519  18.349  10.534  0.2040 -0.4899 -0.1496
   60loPI   GL2  950   1.666  18.664  10.499 -0.4448 -0.1124 -0.1587
   60loPI   C1A  951   1.496  18.310  10.180  0.0463  0.2279 -0.1969
   60loPI   C2A  952   1.555  18.274   9.735 -0.1967  0.0678  0.0255
   60loPI   C3A  953   1.667  18.327   9.312 -0.0780 -0.0986 -0.1101
   60loPI   C4A  954   1.729  18.256   8.850 -0.3514 -0.0348  0.0099
   60loPI   C5A  955   1.696  18.325   8.386 -0.1814 -0.1303  0.0493
   60loPI   C6A  956   1.431  18.493   8.052  0.1357 -0.0286  0.0984
   60loPI   C1B  957   1.383  18.749  10.197  0.0581 -0.2909  0.3119
   60loPI   C2B  958   1.399  18.765   9.796  0.1461  0.0571  0.1287
   60loPI   C3B  959   1.399  18.799   9.345 -0.3337  0.2313 -0.2831
   60loPI   C4B  960   1.453  18.737   8.924 -0.3858 -0.3726 -0.0897
   61loPI    C1  961   7.711   1.186  10.307  0.0448  0.0691 -0.1562
   61loPI    C2  962   7.947   1.282  10.615 -0.0259 -0.0385 -0.0676
   61loPI    C3  963   7.550   1.305  10.653 -0.0374 -0.1497 -0.1180
   61loPI   PO4  964   7.789   1.338  10.062 -0.0984 -0.2448  0.0229
   61loPI   GL1  965   8.115   1.031   9.841 -0.1011 -0.0801  0.2066
   61loPI   GL2  966   8.138   0.764   9.727 -0.0221 -0.1150  0.1059
   61loPI   C1A  967   8.014   1.207   9.380 -0.1518  0.2283  0.7005
   61loPI   C2A  968   7.987   1.187   8.939 -0.1056  0.0641  0.1088
   61loPI   C3A  969   7.947   1.172   8.610  0.1074  0.0366  0.0859
   61loPI   C4A  970   7.935   1.201   8.211  0.2095 -0.0934  0.0472
   61loPI   C5A  971   7.971   1.139   7.820  0.1591 -0.0477  0.0443
   61loPI   C6A  972   7.924   0.950   7.341 -0.3055 -0.0967 -0.1260
   61loPI   C1B  973   8.145   0.713   9.326  0.1566 -0.0616 -0.1038
   61loPI   C2B  974   8.148   0.625   8.993 -0.0390 -0.0364 -0.0666
   61loPI   C3B  975   8.118   0.674   8.546  0.1201 -0.2212  0.0271
   61loPI   C4B  976   8.059   0.683   8.129  0.1492  0.0629  0.0561
   62loPI    C1  977   6.916  10.165  10.616  0.2958  0.1279  0.1061
   62loPI    C2  978   7.013  10.535  10.500  0.0499  0.1924  0.1014
   62loPI    C3  979   6.804  10.479  10.836  0.0876  0.0571  0.1029
   62loPI   PO4  980   6.835   9.969  10.388  0.0582 -0.3306  0.2908
   62loPI   GL1  981   6.523   9.852  10.042 -0.0007 -0.1216  0.1082
   62loPI   GL2  982   6.241  10.126  10.115  0.0941 -0.0708 -0.1478
   62loPI   C1A  983   6.645   9.887   9.595  0.0516  0.1073 -0.0178
   62loPI   C2A  984   6.612  10.156   9.267  0.0220 -0.0696 -0.1273
   62loPI   C3A  985   6.521  10.285   8.790 -0.1194  0.0106  0.0483
   62loPI   C4A  986   6.164  10.569   8.519  0.0523 -0.0950 -0.3623
   62loPI   C5A  987   6.155  10.962   8.281 -0.1140 -0.1162 -0.0505
   62loPI   C6A  988   6.350  11.047   7.773  0.0118 -0.1062  0.0734
   62loPI   C1B  989   6.360  10.242   9.725  0.1078 -0.1710  0.0437
   62loPI   C2B  990   6.216  10.443   9.304 -0.1780 -0.0445  0.2011
   62loPI   C3B  991   6.306  10.729   9.006 -0.0269  0.1245  0.2971
   62loPI   C4B  992   6.610  10.791   8.585  0.0609 -0.0331  0.0721
   63loPI    C1  993   8.819  11.246  10.456 -0.3622  0.1634 -0.1134
   63loPI    C2  994   8.788  11.191  10.851 -0.2699 -0.0064 -0.1285
   63loPI    C3  995   8.713  11.551  10.693  0.1350  0.1834  0.0959
   63loPI   PO4  996   8.755  11.026  10.336 -0.3138 -0.0773  0.0263
   63loPI   GL1  997   8.689  10.815   9.940 -0.3114  0.2929  0.0176
   63loPI   GL2  998   8.377  10.801   9.949 -0.1918  0.2247 -0.1699
   63loPI   C1A  999   8.745  11.055   9.568  0.1628  0.1101 -0.1748
   63loPI   C2A 1000   8.641  11.120   9.177  0.2367 -0.0397 -0.1681
   63loPI   C3A 1001   8.789  11.220   8.840  0.1088  0.0634 -0.1476
   63loPI   C4A 1002   8.952  11.412   8.521  0.2771 -0.2099  0.0355
   63loPI   C5A 1003   9.045  11.810   8.380  0.1924  0.0665  0.2444
   63loPI   C6A 1004   9.105  12.210   8.337 -0.0290 -0.1103 -0.0333
   63loPI   C1B 1005   8.351  10.748   9.524  0.1273  0.0589 -0.1406
   63loPI   C2B 1006   8.421  10.708   8.962  0.0236 -0.2650 -0.3153
   63loPI   C3B 1007   8.607  10.631   8.585  0.1004  0.0796  0.0885
   63loPI   C4B 1008   8.463  10.667   8.074 -0.1553  0.0257  0.2619
   64loPI    C1 1009  12.990   9.360   9.855  0.2068 -0.3812 -0.1932
   64loPI    C2 1010  13.262   9.645   9.928 -0.3412  0.0718  0.1654
   64loPI    C3 1011  13.203   9.352  10.194 -0.2158 -0.0216  0.0916
   64loPI   PO4 1012  12.993   9.353   9.620 -0.1116 -0.1555  0.1143
   64loPI   GL1 1013  12.748   8.988   9.405 -0.2671  0.0444  0.0783
   64loPI   GL2 1014  12.478   9.139   9.297  0.0498  0.0359  0.0816
   64loPI   C1A 1015  12.934   9.198   9.021 -0.1001 -0.0400  0.0399
   64loPI   C2A 1016  12.887   9.359   8.602  0.2307 -0.0458 -0.0841
   64loPI   C3A 1017  12.851   9.448   8.118 -0.2454  0.0798 -0.1745
   64loPI   C4A 1018  13.121   9.536   7.809  0.1243 -0.0295  0.3552
   64loPI   C5A 1019  13.177   9.778   7.541 -0.1131 -0.1109  0.1574
   64loPI   C6A 1020  13.284  10.041   7.182  0.1112 -0.0145  0.0368
   64loPI   C1B 1021  12.449   9.038   8.871  0.2362 -0.1561 -0.0161
   64loPI   C2B 1022  12.455   9.006   8.435  0.0388 -0.1292 -0.1490
   64loPI   C3B 1023  12.407   9.169   8.087 -0.1694 -0.1868  0.3076
   64loPI   C4B 1024  12.259   9.419   7.771  0.1104  0.0801 -0.1223
   65loPI    C1 1025  15.665   6.083  10.063 -0.2660 -0.0157  0.0414
   65loPI    C2 1026  15.655   5.811   9.770 -0.3159  0.0450 -0.0136
   65loPI    C3 1027  15.537   5.712  10.139 -0.3096 -0.0150 -0.0276
   65loPI   PO4 1028  15.849   6.172  10.019 -0.0634  0.3817  0.0132
   65loPI   GL1 1029  16.243   6.141   9.755  0.0486  0.1545  0.1497
   65loPI   GL2 1030  16.349   6.462   9.555 -0.1796  0.4495  0.1336
   65loPI   C1A 1031  16.153   5.908   9.465  0.0538  0.0005  0.2063
   65loPI   C2A 1032  16.184   5.909   9.116  0.1153  0.1276 -0.0486
   65loPI   C3A 1033  16.298   5.859   8.686  0.2400  0.4474 -0.3104
   65loPI   C4A 1034  16.146   5.832   8.291  0.1071  0.0424 -0.3038
   65loPI   C5A 1035  16.298   5.769   7.872 -0.0852 -0.1664 -0.0309
   65loPI   C6A 1036  16.497   5.895   7.462  0.1972 -0.1052  0.0874
   65loPI   C1B 1037  16.412   6.345   9.065  0.1251 -0.0101  0.0127
   65loPI   C2B 1038  16.523   6.309   8.630 -0.1585  0.2962  0.0379
   65loPI   C3B 1039  16.560   6.118   8.202 -0.0271  0.0260 -0.0814
   65loPI   C4B 1040  16.764   6.085   7.881 -0.1391 -0.3198  0.2063
   66loPI    C1 1041   8.522  14.997  10.939  0.0150 -0.1980 -0.0349
   66loPI    C2 1042   8.816  15.103  11.189 -0.0344 -0.0063 -0.0567
   66loPI    C3 1043   8.552  14.823  11.298 -0.0675  0.0905  0.1146
   66loPI   PO4 1044   8.583  14.922  10.743 -0.0462 -0.1201  0.0168
   66loPI   GL1 1045   8.437  14.973  10.301  0.2990  0.3752 -0.1478
   66loPI   GL2 1046   8.219  14.625  10.446 -0.3270  0.0493 -0.2373
   66loPI   C1A 1047   8.465  14.939   9.834 -0.0809 -0.0661 -0.0779
   66loPI   C2A 1048   8.523  14.911   9.485  0.0762  0.1923 -0.0144
   66loPI   C3A 1049   8.491  14.983   9.052  0.0573 -0.0748  0.1235
   66loPI   C4A 1050   8.472  14.979   8.665 -0.0320 -0.0407 -0.0827
   66loPI   C5A 1051   8.744  15.250   8.414 -0.0230  0.1072 -0.0889
   66loPI   C6A 1052   9.106  15.221   8.053 -0.0470  0.1687 -0.0732
   66loPI   C1B 1053   8.287  14.402  10.098 -0.0774 -0.1222 -0.3432
   66loPI   C2B 1054   8.235  14.340   9.627 -0.0871 -0.3663 -0.1271
   66loPI   C3B 1055   8.247  14.227   9.215  0.0720 -0.0222 -0.2532
   66loPI   C4B 1056   8.126  14.588   8.982 -0.1351 -0.3082  0.0520
   67loPI    C1 1057  16.641   8.725  10.058  0.1674 -0.1430  0.2392
   67loPI    C2 1058  16.980   8.880   9.914  0.0229  0.0806  0.1332
   67loPI    C3 1059  16.845   8.993  10.273 -0.0338  0.1300  0.0963
   67loPI   PO4 1060  16.342   8.703   9.958 -0.1715  0.0039  0.2076
   67loPI   GL1 1061  15.946   8.805   9.675  0.0627  0.0074  0.1329
   67loPI   GL2 1062  15.835   8.458   9.603  0.1585 -0.2117 -0.3536
   67loPI   C1A 1063  16.105   8.712   9.276  0.1977  0.0486 -0.1840
   67loPI   C2A 1064  15.948   8.555   8.751  0.0459  0.0043 -0.3162
   67loPI   C3A 1065  15.897   8.491   8.328  0.0230  0.1162  0.0089
   67loPI   C4A 1066  15.952   8.327   7.918 -0.0347  0.0967  0.0524
   67loPI   C5A 1067  16.193   8.122   7.621 -0.0877  0.1195 -0.0505
   67loPI   C6A 1068  16.252   7.792   7.286 -0.0250 -0.1500 -0.1876
   67loPI   C1B 1069  15.891   8.079   9.215 -0.2899  0.0313 -0.0328
   67loPI   C2B 1070  16.052   7.969   8.890  0.0038 -0.1584  0.1439
   67loPI   C3B 1071  15.923   8.021   8.442  0.0351 -0.0748 -0.3038
   67loPI   C4B 1072  16.028   7.830   8.051 -0.2780 -0.0282 -0.2009
   68loPI    C1 1073  15.891  15.172  10.701 -0.0833  0.1668  0.1028
   68loPI    C2 1074  16.006  14.860  10.924  0.0132 -0.0245 -0.2066
   68loPI    C3 1075  15.621  14.902  10.822 -0.0313  0.0639 -0.0077
   68loPI   PO4 1076  16.159  15.196  10.611  0.2539  0.1503  0.0446
   68loPI   GL1 1077  16.140  15.088  10.215 -0.0737  0.2594 -0.2854
   68loPI   GL2 1078  16.391  14.895  10.187  0.3124  0.0077  0.4746
   68loPI   C1A 1079  16.046  15.228   9.839 -0.2659  0.0329  0.0231
   68loPI   C2A 1080  16.040  15.377   9.453 -0.0283 -0.2183  0.0802
   68loPI   C3A 1081  16.141  15.463   9.136  0.1267  0.1052  0.2582
   68loPI   C4A 1082  16.323  15.566   8.765 -0.0962  0.1248 -0.0465
   68loPI   C5A 1083  16.364  15.629   8.228  0.1108  0.1143 -0.0646
   68loPI   C6A 1084  16.365  15.445   7.865 -0.2611 -0.3803 -0.1629
   68loPI   C1B 1085  16.482  14.947   9.703  0.2574 -0.1572  0.4376
   68loPI   C2B 1086  16.440  14.938   9.325 -0.0727 -0.2104 -0.1838
   68loPI   C3B 1087  16.237  15.038   8.942 -0.1863 -0.2371 -0.2044
   68loPI   C4B 1088  16.471  15.175   8.491  0.1070  0.0405  0.1274
   69loPI    C1 1089   7.508  10.604  10.627 -0.2169 -0.1472  0.2942
   69loPI    C2 1090   7.825  10.360  10.633 -0.0162  0.0913 -0.1349
   69loPI    C3 1091   7.741  10.587  10.952  0.3544  0.1597 -0.0809
   69loPI   PO4 1092   7.517  10.717  10.411 -0.1834  0.1303  0.0416
   69loPI   GL1 1093   7.554  10.637  10.020  0.0006  0.0988 -0.0061
   69loPI   GL2 1094   7.261  10.748   9.998 -0.0502  0.0892 -0.1627
   69loPI   C1A 1095   7.639  10.802   9.701  0.0776  0.2270  0.0975
   69loPI   C2A 1096   7.887  10.805   9.395 -0.1476 -0.3234  0.1243
   69loPI   C3A 1097   8.006  10.951   8.987  0.1083  0.2255  0.1944
   69loPI   C4A 1098   7.911  11.133   8.598 -0.1699  0.1638  0.0956
   69loPI   C5A 1099   8.045  11.398   8.209  0.4332  0.0523 -0.0924
   69loPI   C6A 1100   8.053  11.594   7.799 -0.0624  0.2843 -0.0713
   69loPI   C1B 1101   7.256  11.052   9.594 -0.0162  0.0318 -0.3580
   69loPI   C2B 1102   7.604  11.215   9.242 -0.0603  0.0357  0.1311
   69loPI   C3B 1103   7.789  11.522   8.984 -0.3077  0.1137 -0.3145
   69loPI   C4B 1104   7.981  11.729   8.572 -0.2590  0.1190 -0.2801
   70loPI    C1 1105   0.854  10.312  10.376 -0.1212 -0.1651 -0.1385
   70loPI    C2 1106   0.525  10.538  10.395 -0.0128 -0.0250  0.1351
   70loPI    C3 1107   0.608  10.280  10.689  0.0226 -0.2031 -0.0284
   70loPI   PO4 1108   0.876  10.237  10.161  0.2636 -0.1848  0.3662
   70loPI   GL1 1109   0.634  10.080   9.852 -0.1516 -0.1450 -0.0422
   70loPI   GL2 1110   0.987   9.929   9.757  0.1879 -0.1172  0.0944
   70loPI   C1A 1111   0.496  10.137   9.537 -0.0056 -0.0877  0.1780
   70loPI   C2A 1112   0.531  10.185   9.020  0.2048 -0.3034  0.0606
   70loPI   C3A 1113   0.424  10.111   8.697  0.0044 -0.1146 -0.0310
   70loPI   C4A 1114   0.403  10.277   8.274  0.1033 -0.2193  0.0850
   70loPI   C5A 1115   0.171  10.388   7.913 -0.0110 -0.0354  0.4340
   70loPI   C6A 1116   0.071  10.112   7.603  0.0747 -0.2735  0.1286
   70loPI   C1B 1117   0.931  10.007   9.308  0.2940  0.1943  0.2273
   70loPI   C2B 1118   0.991  10.174   8.915 -0.1902  0.1196  0.1886
   70loPI   C3B 1119   0.948  10.113   8.416  0.0308 -0.0992 -0.0172
   70loPI   C4B 1120   0.913  10.253   7.950  0.0182  0.2326  0.1756
   71loPI    C1 1121  10.052   2.598   9.893  0.3237 -0.0189  0.2071
   71loPI    C2 1122  10.011   2.750  10.261  0.3079  0.1115  0.1519
   71loPI    C3 1123   9.998   2.991   9.942 -0.0962 -0.0507  0.0393
   71loPI   PO4 1124  10.054   2.413   9.926  0.1853 -0.0130  0.0189
   71loPI   GL1 1125   9.985   2.105   9.589 -0.0076  0.3029 -0.0564
   71loPI   GL2 1126  10.131   1.861   9.690 -0.3754  0.2208  0.0905
   71loPI   C1A 1127  10.057   2.201   9.154 -0.1379  0.3230 -0.1283
   71loPI   C2A 1128  10.020   2.193   8.656  0.0281  0.0795 -0.2396
   71loPI   C3A 1129  10.022   2.128   8.182 -0.2026  0.0007 -0.0130
   71loPI   C4A 1130  10.016   2.168   7.835  0.1579  0.1447 -0.1882
   71loPI   C5A 1131   9.815   2.454   7.548 -0.0006 -0.2191  0.2377
   71loPI   C6A 1132   9.930   2.701   7.224  0.2481  0.0597 -0.1222
   71loPI   C1B 1133  10.060   1.685   9.278  0.1910  0.1012  0.2845
   71loPI   C2B 1134   9.862   1.800   8.865  0.2904 -0.5260 -0.1425
   71loPI   C3B 1135   9.819   1.722   8.449 -0.0346 -0.1292  0.1261
   71loPI   C4B 1136   9.779   1.719   8.013  0.1416  0.0145  0.2082
   72loPI    C1 1137  16.063   7.319  10.341 -0.1015  0.0483  0.3500
   72loPI    C2 1138  16.061   6.933  10.446 -0.1778 -0.0049  0.1576
   72loPI    C3 1139  15.716   7.124  10.379 -0.1330  0.0433  0.0611
   72loPI   PO4 1140  16.310   7.261  10.166 -0.1847 -0.0097  0.2467
   72loPI   GL1 1141  16.314   7.183   9.712 -0.0800 -0.2339 -0.0042
   72loPI   GL2 1142  16.527   7.469   9.644  0.3291 -0.1885 -0.1039
   72loPI   C1A 1143  16.177   6.949   9.424  0.1313 -0.1878 -0.0547
   72loPI   C2A 1144  16.259   6.851   9.053  0.2335  0.0921 -0.2353
   72loPI   C3A 1145  16.376   6.819   8.651 -0.3891  0.2065  0.3346
   72loPI   C4A 1146  16.255   6.754   8.229  0.1849  0.3351 -0.1730
   72loPI   C5A 1147  16.475   6.816   7.929  0.1562  0.1251 -0.0818
   72loPI   C6A 1148  16.528   7.097   7.724  0.2114  0.2414  0.0732
   72loPI   C1B 1149  16.626   7.269   9.265 -0.0061 -0.1513 -0.1247
   72loPI   C2B 1150  16.717   7.202   8.774  0.0109 -0.1488 -0.1657
   72loPI   C3B 1151  16.612   7.217   8.345 -0.1178 -0.0873 -0.2482
   72loPI   C4B 1152  16.346   7.373   8.075 -0.1025  0.1385  0.0978
   73loPI    C1 1153   8.778   6.008   9.915 -0.0381  0.0364 -0.1417
   73loPI    C2 1154   8.397   6.110   9.987  0.0011  0.0503  0.0514
   73loPI    C3 1155   8.634   5.996  10.289  0.0515 -0.2998 -0.1155
   73loPI   PO4 1156   8.824   6.167   9.634 -0.0576  0.4143 -0.0380
   73loPI   GL1 1157   8.619   6.176   9.318  0.0484  0.0968  0.2515
   73loPI   GL2 1158   8.299   6.033   9.371  0.1400 -0.0613  0.0768
   73loPI   C1A 1159   8.665   5.980   8.917  0.0107  0.0831 -0.1506
   73loPI   C2A 1160   8.667   5.855   8.455  0.0464  0.1692  0.1148
   73loPI   C3A 1161   8.570   5.829   8.065  0.0220 -0.0060  0.1031
   73loPI   C4A 1162   8.342   5.858   7.674 -0.1069  0.0921  0.3132
   73loPI   C5A 1163   8.327   5.952   7.338  0.0580  0.0225 -0.1266
   73loPI   C6A 1164   8.180   6.278   7.230  0.1892  0.1169  0.0787
   73loPI   C1B 1165   8.149   5.791   9.083  0.1759  0.0322  0.0685
   73loPI   C2B 1166   8.167   5.963   8.661  0.1028  0.2830  0.0781
   73loPI   C3B 1167   8.095   5.959   8.223  0.1314  0.3612 -0.1518
   73loPI   C4B 1168   8.269   6.295   7.935  0.1356  0.0228 -0.0606
   74loPI    C1 1169   5.059  11.627  11.082  0.0231  0.0483  0.2008
   74loPI    C2 1170   5.458  11.635  11.060  0.0214 -0.1921  0.0512
   74loPI    C3 1171   5.278  11.443  11.362  0.0184  0.1611  0.2796
   74loPI   PO4 1172   4.969  11.573  10.768  0.2164 -0.0020 -0.1298
   74loPI   GL1 1173   4.735  11.552  10.362 -0.0257  0.3894 -0.2916
   74loPI   GL2 1174   4.838  11.472  10.046  0.1491  0.3227 -0.1570
   74loPI   C1A 1175   4.658  11.952  10.058  0.2337  0.2142  0.2008
   74loPI   C2A 1176   4.667  12.169   9.628 -0.0898 -0.1935  0.0261
   74loPI   C3A 1177   4.682  12.474   9.312  0.1937  0.0385 -0.2056
   74loPI   C4A 1178   4.665  12.568   8.891 -0.1688  0.2262 -0.0512
   74loPI   C5A 1179   4.556  12.544   8.395 -0.0785  0.0354 -0.0413
   74loPI   C6A 1180   4.179  12.578   8.174  0.0945 -0.1921 -0.1355
   74loPI   C1B 1181   4.669  11.549   9.662 -0.0518 -0.0478  0.0460
   74loPI   C2B 1182   4.530  11.583   9.410 -0.0370 -0.1319 -0.1943
   74loPI   C3B 1183   4.215  11.609   9.134 -0.2513  0.0404 -0.0282
   74loPI   C4B 1184   4.139  11.748   8.742  0.0443  0.1033 -0.2377
   75loPI    C1 1185   0.365   1.492  10.932  0.0507 -0.0258  0.0250
   75loPI    C2 1186   0.014   1.659  11.028 -0.0251 -0.0650 -0.1782
   75loPI    C3 1187   0.173   1.378  11.264 -0.0485  0.0714  0.0017
   75loPI   PO4 1188   0.508   1.708  10.779  0.2818  0.3091  0.1016
   75loPI   GL1 1189   0.533   1.834  10.326  0.3644 -0.1201 -0.0993
   75loPI   GL2 1190   0.307   1.719  10.242 -0.0199 -0.0201 -0.2004
   75loPI   C1A 1191   0.783   2.139  10.035 -0.1897  0.1132  0.1752
   75loPI   C2A 1192   0.672   2.235   9.738  0.2442  0.2986  0.1632
   75loPI   C3A 1193   0.681   2.191   9.248 -0.1908  0.0937  0.3399
   75loPI   C4A 1194   0.679   2.219   8.875  0.1388  0.1134  0.1567
   75loPI   C5A 1195   0.756   2.182   8.524  0.1095 -0.1473  0.1308
   75loPI   C6A 1196   0.622   2.422   8.155 -0.0967  0.0249 -0.1916
   75loPI   C1B 1197   0.342   1.810   9.839 -0.0701  0.0602  0.0289
   75loPI   C2B 1198   0.392   1.871   9.426 -0.2875  0.3083 -0.2297
   75loPI   C3B 1199   0.293   1.847   9.003  0.0268 -0.4532 -0.0210
   75loPI   C4B 1200   0.352   1.815   8.654  0.0293 -0.0411  0.1571
   76loPI    C1 1201  17.529   5.016  10.547 -0.2614  0.0135 -0.0862
   76loPI    C2 1202  17.359   5.378  10.567 -0.2808 -0.0017  0.0323
   76loPI    C3 1203  17.310   5.117  10.867 -0.1304 -0.0426  0.0221
   76loPI   PO4 1204  17.473   5.014  10.283  0.0144 -0.1895  0.3622
   76loPI   GL1 1205  17.297   4.982   9.924  0.3137  0.3813  0.0415
   76loPI   GL2 1206  17.421   4.573   9.852  0.2986  0.2988 -0.3901
   76loPI   C1A 1207  17.096   4.793   9.491  0.2392 -0.2685 -0.0812
   76loPI   C2A 1208  17.098   4.928   9.172  0.1640  0.0109  0.0373
   76loPI   C3A 1209  17.131   4.900   8.881 -0.0729 -0.0714  0.2396
   76loPI   C4A 1210  17.165   4.793   8.495  0.0373  0.3474 -0.2357
   76loPI   C5A 1211  17.261   4.736   8.072  0.2624 -0.2558 -0.0734
   76loPI   C6A 1212  17.504   4.873   7.799  0.2074 -0.0995  0.1220
   76loPI   C1B 1213  17.402   4.362   9.401 -0.0289 -0.2452  0.4217
   76loPI   C2B 1214  17.263   4.398   8.894  0.0337  0.3370  0.0967
   76loPI   C3B 1215  17.360   4.340   8.544  0.1493 -0.0099  0.1013
   76loPI   C4B 1216  17.397   3.996   8.202 -0.1316 -0.1595  0.1576
   77loPI    C1 1217   3.799  10.893  10.794 -0.0762  0.2384  0.1627
   77loPI    C2 1218   3.870  10.540  10.968  0.2882  0.2604  0.0686
   77loPI    C3 1219   3.677  10.827  11.169 -0.1121 -0.0264  0.1062
   77loPI   PO4 1220   3.736  10.926  10.551  0.3795  0.3030 -0.1940
   77loPI   GL1 1221   3.627  10.861  10.101 -0.0274 -0.1270  0.1974
   77loPI   GL2 1222   3.925  10.693   9.978  0.3387 -0.0673 -0.2064
   77loPI   C1A 1223   3.636  11.021   9.644 -0.0891  0.0972  0.0508
   77loPI   C2A 1224   3.567  10.964   9.282 -0.0164 -0.0109  0.1224
   77loPI   C3A 1225   3.408  11.133   9.004  0.1367  0.3062 -0.0726
   77loPI   C4A 1226   3.343  11.247   8.545 -0.0487 -0.2692 -0.1372
   77loPI   C5A 1227   3.243  11.706   8.361  0.3766 -0.1360  0.0904
   77loPI   C6A 1228   2.862  11.862   8.189 -0.2215 -0.2758 -0.2166
   77loPI   C1B 1229   3.959  10.658   9.502 -0.1910  0.0826  0.2627
   77loPI   C2B 1230   3.972  10.873   9.063 -0.0019  0.1523 -0.0819
   77loPI   C3B 1231   3.780  10.960   8.673  0.4312 -0.5257 -0.0209
   77loPI   C4B 1232   3.720  11.390   8.355  0.3070  0.0727  0.0395
   78loPI    C1 1233  15.117   7.898  10.345  0.1687 -0.1107  0.0516
   78loPI    C2 1234  14.877   7.650  10.547 -0.1123  0.2450  0.1670
   78loPI    C3 1235  15.201   7.803  10.725 -0.1528  0.2645  0.2247
   78loPI   PO4 1236  14.977   7.993  10.174 -0.2688 -0.4247  0.0309
   78loPI   GL1 1237  14.763   8.065   9.740 -0.0463  0.0236 -0.2090
   78loPI   GL2 1238  14.592   7.885   9.666 -0.2117 -0.0132 -0.1105
   78loPI   C1A 1239  15.068   8.017   9.433  0.2291 -0.3272 -0.2835
   78loPI   C2A 1240  15.061   8.039   8.993  0.2534 -0.0854 -0.0050
   78loPI   C3A 1241  15.135   8.083   8.502  0.2051 -0.0589 -0.0247
   78loPI   C4A 1242  15.480   8.148   8.210  0.2202  0.0538 -0.4522
   78loPI   C5A 1243  15.586   7.995   7.845  0.2006 -0.1632  0.0349
   78loPI   C6A 1244  15.376   8.152   7.469 -0.4276 -0.2599  0.0745
   78loPI   C1B 1245  14.621   7.948   9.220  0.0991 -0.0512  0.1638
   78loPI   C2B 1246  14.595   7.896   8.681 -0.0404  0.0531 -0.0903
   78loPI   C3B 1247  14.706   7.961   8.296 -0.0403 -0.3106  0.1285
   78loPI   C4B 1248  15.055   7.988   7.948 -0.2124  0.3366 -0.1018
   79loPI    C1 1249  10.337   1.435  10.372 -0.2419  0.0165 -0.2068
   79loPI    C2 1250  10.381   1.752  10.611 -0.1734 -0.1659  0.0267
   79loPI    C3 1251  10.172   1.435  10.736  0.1369 -0.3953 -0.0256
   79loPI   PO4 1252  10.238   1.548  10.123  0.0471 -0.0235 -0.0044
   79loPI   GL1 1253  10.181   1.371   9.683  0.3408 -0.1326 -0.1181
   79loPI   GL2 1254  10.414   1.072   9.749  0.0430 -0.0810 -0.2114
   79loPI   C1A 1255  10.048   1.204   9.218  0.0544 -0.0977  0.1119
   79loPI   C2A 1256  10.054   1.300   8.870  0.0575  0.0449  0.0371
   79loPI   C3A 1257  10.210   1.379   8.564 -0.0688  0.2471  0.2699
   79loPI   C4A 1258  10.225   1.265   8.142  0.1484  0.4316 -0.2359
   79loPI   C5A 1259  10.401   1.036   7.740 -0.1159 -0.2954 -0.0809
   79loPI   C6A 1260  10.584   0.818   7.355  0.0553 -0.0509  0.0975
   79loPI   C1B 1261  10.486   0.952   9.353  0.0370 -0.0373  0.3147
   79loPI   C2B 1262  10.405   0.862   8.978 -0.1689  0.4819  0.1129
   79loPI   C3B 1263  10.541   0.993   8.607 -0.0995 -0.3221 -0.2035
   79loPI   C4B 1264  10.491   0.808   8.200 -0.0302  0.2659 -0.2423
   80loPI    C1 1265  16.551  18.266  10.537 -0.0923  0.1167 -0.1291
   80loPI    C2 1266  16.385  18.597  10.689  0.0306  0.0819  0.0841
   80loPI    C3 1267  16.776  18.528  10.739  0.0224 -0.0545 -0.0326
   80loPI   PO4 1268  16.310  18.242  10.335  0.0872 -0.0443  0.0030
   80loPI   GL1 1269  16.386  18.310   9.891  0.0923 -0.1511 -0.1587
   80loPI   GL2 1270  16.245  18.535   9.745  0.2295 -0.1847  0.0104
   80loPI   C1A 1271  16.649  18.219   9.546 -0.2328 -0.2578  0.1741
   80loPI   C2A 1272  16.657  18.290   9.142  0.3516  0.1073  0.2889
   80loPI   C3A 1273  16.791  18.376   8.753 -0.0030 -0.2416 -0.0803
   80loPI   C4A 1274  16.754  18.432   8.374 -0.3403  0.0853  0.2072
   80loPI   C5A 1275  16.697  18.489   7.979  0.1558 -0.0155 -0.0309
   80loPI   C6A 1276  16.308  18.657   7.796 -0.1623  0.0449 -0.2409
   80loPI   C1B 1277  16.406  18.703   9.346 -0.0228  0.1205  0.5157
   80loPI   C2B 1278  16.506  18.750   8.891 -0.4360  0.0779  0.2591
   80loPI   C3B 1279  16.558  18.863   8.509 -0.0992  0.0432 -0.2122
   80loPI   C4B 1280  16.564  19.013   8.127 -0.3461 -0.0261 -0.3838
   81loPI    C1 1281  16.128  15.771  10.804  0.1949 -0.0693  0.2241
   81loPI    C2 1282  16.348  16.100  10.861  0.1396  0.0021  0.0354
   81loPI    C3 1283  16.096  15.976  11.146  0.0403  0.2164  0.0420
   81loPI   PO4 1284  16.180  15.722  10.591 -0.1076  0.1221 -0.0194
   81loPI   GL1 1285  16.321  15.578  10.204  0.1066 -0.1458 -0.2560
   81loPI   GL2 1286  16.172  15.863  10.040  0.0328  0.0075  0.2904
   81loPI   C1A 1287  16.561  15.438   9.916 -0.3329 -0.1626  0.1679
   81loPI   C2A 1288  16.679  15.488   9.518 -0.2534 -0.2535  0.3855
   81loPI   C3A 1289  16.758  15.480   9.065  0.0493  0.4073 -0.0547
   81loPI   C4A 1290  16.790  15.547   8.617  0.1267 -0.0879  0.3754
   81loPI   C5A 1291  16.802  15.329   8.105  0.3102  0.1332  0.2638
   81loPI   C6A 1292  16.741  14.913   7.766 -0.1418  0.1101  0.0448
   81loPI   C1B 1293  16.240  15.766   9.643 -0.0507 -0.1254  0.3415
   81loPI   C2B 1294  16.360  15.889   9.202 -0.2470 -0.0680  0.1697
   81loPI   C3B 1295  16.404  16.032   8.761 -0.3083  0.0229  0.0281
   81loPI   C4B 1296  16.341  16.124   8.319  0.2239  0.0666 -0.1810
   82loPI    C1 1297   5.521   7.563   9.932  0.1008 -0.0048  0.1159
   82loPI    C2 1298   5.496   7.802  10.252  0.0542  0.0131  0.0989
   82loPI    C3 1299   5.224   7.514  10.195  0.0758 -0.0052  0.0876
   82loPI   PO4 1300   5.528   7.688   9.691 -0.2246  0.1709  0.0099
   82loPI   GL1 1301   5.579   7.493   9.326  0.2960 -0.2517  0.0061
   82loPI   GL2 1302   5.164   7.290   9.359 -0.0351 -0.1066  0.0828
   82loPI   C1A 1303   5.677   7.541   8.849 -0.1166 -0.0677  0.0276
   82loPI   C2A 1304   5.874   7.618   8.563  0.1918  0.1743  0.1413
   82loPI   C3A 1305   5.644   7.702   8.196 -0.1748 -0.1495 -0.2668
   82loPI   C4A 1306   5.487   7.726   7.712 -0.2396  0.0429  0.3846
   82loPI   C5A 1307   5.381   7.898   7.291  0.0501  0.2381 -0.0205
   82loPI   C6A 1308   5.201   8.194   7.158 -0.0160 -0.1894 -0.1517
   82loPI   C1B 1309   5.012   7.032   9.022  0.0300 -0.2013 -0.1474
   82loPI   C2B 1310   4.967   7.134   8.637 -0.0174 -0.2823  0.0053
   82loPI   C3B 1311   5.060   6.975   8.245  0.1857 -0.0579 -0.1138
   82loPI   C4B 1312   4.909   6.899   7.940 -0.1902  0.0131 -0.2768
   83loPI    C1 1313   1.646  12.666  11.027 -0.2244 -0.1723  0.2708
   83loPI    C2 1314   1.797  12.499  11.358 -0.0008 -0.1464  0.1839
   83loPI    C3 1315   1.882  12.880  11.269  0.1622 -0.2335 -0.0415
   83loPI   PO4 1316   1.794  12.575  10.810 -0.0648  0.0161 -0.0079
   83loPI   GL1 1317   1.928  12.494  10.354 -0.0493 -0.2758  0.3169
   83loPI   GL2 1318   1.701  12.826  10.316  0.3264  0.1979  0.1322
   83loPI   C1A 1319   1.834  12.180  10.111  0.0377 -0.4118 -0.3848
   83loPI   C2A 1320   1.946  11.972   9.767  0.1150 -0.0120  0.0426
   83loPI   C3A 1321   1.841  12.020   9.353 -0.2451  0.2151  0.1638
   83loPI   C4A 1322   1.711  12.239   8.925  0.1716  0.0779  0.0070
   83loPI   C5A 1323   1.697  12.251   8.578 -0.0892  0.2465 -0.0443
   83loPI   C6A 1324   1.366  11.899   8.422 -0.2190 -0.0035 -0.4659
   83loPI   C1B 1325   1.836  12.637   9.779  0.1379 -0.0041 -0.1230
   83loPI   C2B 1326   1.803  12.500   9.426  0.0067  0.0950 -0.0604
   83loPI   C3B 1327   2.173  12.354   9.120 -0.1905 -0.1389 -0.1884
   83loPI   C4B 1328   2.479  12.686   8.758  0.0288  0.2118 -0.1610
   84loPI    C1 1329   3.121   1.088  10.889  0.2705 -0.1134 -0.1275
   84loPI    C2 1330   2.884   1.251  11.167  0.2468 -0.1495 -0.1264
   84loPI    C3 1331   3.264   1.161  11.255  0.2623 -0.0874 -0.1295
   84loPI   PO4 1332   2.899   1.275  10.677  0.1157 -0.3970  0.1310
   84loPI   GL1 1333   2.869   1.371  10.208  0.2710 -0.0729  0.1310
   84loPI   GL2 1334   3.087   1.114  10.156 -0.0219 -0.1324  0.0102
   84loPI   C1A 1335   2.900   1.429   9.777 -0.0264  0.2360  0.1740
   84loPI   C2A 1336   2.901   1.435   9.322 -0.0541  0.0211  0.0091
   84loPI   C3A 1337   2.870   1.408   8.895  0.0360  0.1179 -0.0724
   84loPI   C4A 1338   2.933   1.270   8.506  0.0866 -0.0985  0.1134
   84loPI   C5A 1339   2.933   1.353   8.074 -0.0169  0.0124  0.0418
   84loPI   C6A 1340   3.360   1.675   7.850  0.1524  0.0423 -0.1821
   84loPI   C1B 1341   3.110   0.985   9.747 -0.0441  0.0178 -0.0142
   84loPI   C2B 1342   3.040   0.971   9.328 -0.0760  0.1376  0.1256
   84loPI   C3B 1343   3.090   0.948   8.853  0.1288  0.2117 -0.5866
   84loPI   C4B 1344   3.256   0.876   8.464  0.1136 -0.3391  0.1909
   85loPI    C1 1345   2.378   7.908  10.384  0.0773  0.0120 -0.0230
   85loPI    C2 1346   2.012   7.900  10.546  0.0477 -0.0022 -0.0903
   85loPI    C3 1347   2.295   8.135  10.703  0.0642 -0.1312  0.0769
   85loPI   PO4 1348   2.339   7.899  10.101  0.0162 -0.0383 -0.1175
   85loPI   GL1 1349   2.451   7.776   9.724  0.0405  0.0774 -0.3922
   85loPI   GL2 1350   2.506   7.991   9.645 -0.1811  0.1916 -0.1040
   85loPI   C1A 1351   2.664   7.459   9.511  0.0160 -0.2384 -0.3234
   85loPI   C2A 1352   2.660   7.413   9.058 -0.0520  0.2911 -0.2454
   85loPI   C3A 1353   2.644   7.337   8.606  0.3696  0.3010 -0.0093
   85loPI   C4A 1354   2.524   7.445   8.175  0.0058 -0.1214  0.1170
   85loPI   C5A 1355   2.101   7.445   7.918 -0.0347  0.1256  0.1634
   85loPI   C6A 1356   1.979   7.232   7.602  0.2628  0.1845  0.0267
   85loPI   C1B 1357   2.645   7.949   9.256  0.3493  0.0906  0.0625
   85loPI   C2B 1358   2.750   7.889   8.828  0.4160  0.0289  0.0591
   85loPI   C3B 1359   2.821   7.834   8.436  0.0686 -0.2377 -0.1624
   85loPI   C4B 1360   2.876   7.809   8.023  0.2361  0.0817  0.1263
   86loPI    C1 1361   8.630   1.961   9.984 -0.0021 -0.1295  0.0715
   86loPI    C2 1362   8.617   1.735  10.314  0.1703 -0.0935  0.1042
   86loPI    C3 1363   8.881   2.035  10.288  0.0414  0.0123  0.0021
   86loPI   PO4 1364   8.329   1.920   9.873  0.2050 -0.0143  0.4300
   86loPI   GL1 1365   8.129   2.061   9.536  0.2383  0.0678 -0.3300
   86loPI   GL2 1366   8.171   2.354   9.330  0.1893 -0.0571 -0.1001
   86loPI   C1A 1367   7.893   1.764   9.217  0.1989 -0.1675 -0.1325
   86loPI   C2A 1368   7.702   1.782   8.800 -0.2035  0.2631 -0.3770
   86loPI   C3A 1369   7.707   1.640   8.377 -0.0761  0.1108 -0.2458
   86loPI   C4A 1370   7.612   1.528   7.939  0.2261 -0.1948  0.3082
   86loPI   C5A 1371   7.461   1.217   7.657  0.0799 -0.0170 -0.1424
   86loPI   C6A 1372   7.624   0.798   7.784  0.0392 -0.1282  0.1089
   86loPI   C1B 1373   8.076   2.114   8.909 -0.1716  0.0176  0.0901
   86loPI   C2B 1374   7.990   2.022   8.458 -0.4530  0.1011 -0.0768
   86loPI   C3B 1375   8.005   2.028   7.947  0.4944 -0.0085 -0.0135
   86loPI   C4B 1376   7.884   2.287   7.711  0.0627 -0.0308 -0.0053
   87loPI    C1 1377   6.803   7.049  10.021 -0.0384  0.7122 -0.0395
   87loPI    C2 1378   6.504   7.237  10.209 -0.1387  0.3722  0.1501
   87loPI    C3 1379   6.794   7.062  10.421 -0.1866  0.0897 -0.0113
   87loPI   PO4 1380   6.649   6.936   9.816  0.1458  0.0540 -0.0001
   87loPI   GL1 1381   6.552   6.703   9.472 -0.0779  0.0675 -0.0221
   87loPI   GL2 1382   6.389   6.954   9.276 -0.0847  0.3079 -0.1001
   87loPI   C1A 1383   6.591   6.436   9.073  0.0704 -0.1526  0.3504
   87loPI   C2A 1384   6.738   6.239   8.680 -0.2438 -0.0763  0.0641
   87loPI   C3A 1385   6.820   6.277   8.160  0.0541  0.0364 -0.0033
   87loPI   C4A 1386   7.117   6.449   8.033  0.0513  0.2875  0.2656
   87loPI   C5A 1387   7.558   6.417   8.118  0.1431  0.0229 -0.3162
   87loPI   C6A 1388   7.961   6.527   8.328  0.0598  0.0179  0.0284
   87loPI   C1B 1389   6.415   6.927   8.776  0.0405 -0.0376  0.1650
   87loPI   C2B 1390   6.380   7.021   8.415  0.0247  0.3378 -0.0880
   87loPI   C3B 1391   6.395   7.167   8.014 -0.0442 -0.0797 -0.0345
   87loPI   C4B 1392   6.451   7.408   7.602 -0.3093 -0.1174 -0.0051
   88loPI    C1 1393  15.702  17.015  10.401 -0.1705  0.0560  0.1934
   88loPI    C2 1394  15.821  16.717  10.641  0.1134  0.0069 -0.0033
   88loPI    C3 1395  16.050  17.042  10.597  0.0572  0.0223 -0.1947
   88loPI   PO4 1396  15.683  16.897  10.151  0.0842  0.1836 -0.0555
   88loPI   GL1 1397  15.674  17.084   9.754 -0.1828  0.1057 -0.0277
   88loPI   GL2 1398  15.423  16.882   9.687 -0.0241 -0.2509 -0.0971
   88loPI   C1A 1399  15.836  17.069   9.350  0.1492 -0.2495  0.1067
   88loPI   C2A 1400  15.817  17.040   9.021 -0.1996  0.0244  0.2950
   88loPI   C3A 1401  15.732  17.093   8.644  0.0024 -0.1720  0.2463
   88loPI   C4A 1402  15.775  17.029   8.218  0.2784  0.0549 -0.0773
   88loPI   C5A 1403  15.824  16.951   7.845  0.2066 -0.2582 -0.1413
   88loPI   C6A 1404  15.794  16.845   7.383 -0.1008  0.1428  0.3442
   88loPI   C1B 1405  15.348  16.900   9.261  0.1241  0.0629 -0.1387
   88loPI   C2B 1406  15.282  16.762   8.905 -0.3119 -0.2193  0.0188
   88loPI   C3B 1407  15.438  16.625   8.501 -0.3253 -0.0090  0.2055
   88loPI   C4B 1408  15.547  16.577   8.048  0.1931  0.0105  0.2633
   89loPI    C1 1409   2.877   8.886  10.193 -0.0201 -0.1496 -0.0634
   89loPI    C2 1410   3.023   8.628  10.461  0.3926 -0.1671 -0.2954
   89loPI    C3 1411   3.122   9.014  10.482  0.1692 -0.1111 -0.2386
   89loPI   PO4 1412   2.706   8.742  10.061  0.0863 -0.4511 -0.1350
   89loPI   GL1 1413   2.485   8.853   9.740  0.2221 -0.1340 -0.0284
   89loPI   GL2 1414   2.170   8.985   9.693  0.0272 -0.1162 -0.0223
   89loPI   C1A 1415   2.319   8.889   9.267  0.2638  0.4054 -0.0645
   89loPI   C2A 1416   2.159   8.628   9.022  0.3102  0.1606 -0.0185
   89loPI   C3A 1417   2.157   8.636   8.587  0.2273  0.1676 -0.1732
   89loPI   C4A 1418   1.991   8.569   8.177  0.2143 -0.0862 -0.1669
   89loPI   C5A 1419   1.752   8.623   7.790 -0.1322 -0.2909 -0.0412
   89loPI   C6A 1420   1.325   8.636   7.506  0.0631 -0.0223 -0.0606
   89loPI   C1B 1421   1.744   8.905   9.466  0.0273 -0.0334 -0.0515
   89loPI   C2B 1422   1.666   8.944   8.959 -0.0663 -0.0562 -0.0300
   89loPI   C3B 1423   1.478   8.841   8.583  0.0299  0.1265 -0.2298
   89loPI   C4B 1424   1.410   8.794   8.110  0.0557 -0.1227  0.0019
   90loPI    C1 1425  12.832  13.467  10.570  0.1011  0.1337  0.0438
   90loPI    C2 1426  12.671  13.160  10.769  0.1569  0.0623 -0.0210
   90loPI    C3 1427  12.876  13.441  10.967  0.0734  0.0782  0.0432
   90loPI   PO4 1428  13.057  13.429  10.291  0.0627  0.0802  0.2514
   90loPI   GL1 1429  13.223  13.390   9.864  0.1221 -0.1994  0.1525
   90loPI   GL2 1430  13.360  13.570   9.672  0.0316  0.0350 -0.0645
   90loPI   C1A 1431  12.916  13.106   9.695 -0.1045 -0.0965  0.2226
   90loPI   C2A 1432  12.818  13.027   9.153 -0.3747 -0.4375 -0.2457
   90loPI   C3A 1433  12.596  13.093   8.632  0.2762 -0.1039  0.1038
   90loPI   C4A 1434  12.209  13.328   8.387  0.0351 -0.1310 -0.2618
   90loPI   C5A 1435  11.783  13.319   8.274  0.1722 -0.3589  0.1865
   90loPI   C6A 1436  11.401  13.245   8.178 -0.1084 -0.2352  0.0946
   90loPI   C1B 1437  13.574  13.576   9.234  0.1382 -0.0819 -0.0212
   90loPI   C2B 1438  13.620  13.493   8.767  0.1397  0.0615  0.0227
   90loPI   C3B 1439  13.599  13.453   8.280 -0.2188 -0.1279  0.1649
   90loPI   C4B 1440  13.597  13.159   8.019  0.3953 -0.2129  0.0370
   91loPI    C1 1441   5.103   6.938  10.141  0.0424 -0.1725 -0.0546
   91loPI    C2 1442   4.860   6.735  10.384  0.1612 -0.3718 -0.0998
   91loPI    C3 1443   5.201   6.888  10.525 -0.0401  0.0056 -0.0093
   91loPI   PO4 1444   4.910   7.080   9.991 -0.2039 -0.1487  0.1797
   91loPI   GL1 1445   4.731   7.064   9.585 -0.2360  0.2452 -0.1692
   91loPI   GL2 1446   4.726   6.703   9.526  0.1110 -0.1742  0.1027
   91loPI   C1A 1447   4.554   7.310   9.220 -0.1321 -0.0313  0.2372
   91loPI   C2A 1448   4.464   7.281   8.743 -0.0915  0.1887  0.0334
   91loPI   C3A 1449   4.520   7.343   8.323  0.0027 -0.0313  0.0616
   91loPI   C4A 1450   4.623   7.347   7.996  0.2740 -0.1661 -0.1756
   91loPI   C5A 1451   4.829   7.570   7.657 -0.0014 -0.0509 -0.2117
   91loPI   C6A 1452   4.914   7.972   7.518  0.1742 -0.2275 -0.1298
   91loPI   C1B 1453   4.584   6.841   9.131  0.3311  0.2000  0.1507
   91loPI   C2B 1454   4.551   6.772   8.799  0.3067  0.0000  0.4348
   91loPI   C3B 1455   4.504   6.863   8.344 -0.1564  0.0981 -0.2125
   91loPI   C4B 1456   4.287   6.992   7.965 -0.2545  0.0106 -0.4226
   92loPI    C1 1457  13.642  14.717  10.373 -0.3481  0.1655 -0.0672
   92loPI    C2 1458  13.598  15.007  10.646 -0.1130  0.0849  0.0594
   92loPI    C3 1459  13.441  14.645  10.711  0.1496 -0.0059  0.2029
   92loPI   PO4 1460  13.605  14.881  10.149 -0.2804  0.2583 -0.2790
   92loPI   GL1 1461  13.450  14.786   9.847 -0.1227 -0.3967  0.1276
   92loPI   GL2 1462  13.293  14.996   9.724  0.1044  0.0803  0.0837
   92loPI   C1A 1463  13.572  14.943   9.357  0.0695  0.3990 -0.2335
   92loPI   C2A 1464  13.610  14.964   8.973 -0.1192  0.0665 -0.1585
   92loPI   C3A 1465  13.484  14.993   8.445 -0.1302  0.1978 -0.2444
   92loPI   C4A 1466  13.245  14.924   8.072  0.1700  0.0525 -0.1067
   92loPI   C5A 1467  13.323  14.692   7.708 -0.1343 -0.0903  0.2455
   92loPI   C6A 1468  13.472  14.328   7.587 -0.0091  0.2376  0.0478
   92loPI   C1B 1469  13.082  14.980   9.266 -0.3139  0.1287  0.1131
   92loPI   C2B 1470  13.024  15.068   8.870  0.1604 -0.1964 -0.1455
   92loPI   C3B 1471  13.162  15.347   8.552 -0.2071 -0.0997 -0.0153
   92loPI   C4B 1472  13.284  15.458   8.137  0.1351 -0.3302  0.0988
   93loPI    C1 1473  12.377   3.332  10.024 -0.1040  0.0821 -0.1538
   93loPI    C2 1474  12.392   3.503  10.385  0.0642  0.1186 -0.1773
   93loPI    C3 1475  12.104   3.606  10.127 -0.0296  0.1255 -0.0708
   93loPI   PO4 1476  12.615   3.265  10.036  0.1828 -0.0616 -0.0002
   93loPI   GL1 1477  12.790   3.113   9.809 -0.2493  0.0853  0.0218
   93loPI   GL2 1478  12.886   2.859  10.010  0.4291  0.4079  0.1004
   93loPI   C1A 1479  12.736   3.067   9.407  0.2351  0.3032  0.0337
   93loPI   C2A 1480  12.780   2.931   9.100 -0.0504  0.2169 -0.2957
   93loPI   C3A 1481  12.809   2.748   8.665 -0.0347  0.2028 -0.0006
   93loPI   C4A 1482  12.761   2.636   8.268  0.0721 -0.1047  0.2455
   93loPI   C5A 1483  12.864   2.575   7.835  0.0046  0.0615  0.1324
   93loPI   C6A 1484  12.657   2.462   7.396 -0.1832 -0.1130 -0.1562
   93loPI   C1B 1485  12.932   2.646   9.536  0.1630  0.0476  0.0029
   93loPI   C2B 1486  13.005   2.485   9.074  0.1601 -0.0244  0.0674
   93loPI   C3B 1487  13.074   2.332   8.617  0.0773  0.0353  0.3984
   93loPI   C4B 1488  12.870   2.118   8.281 -0.2408 -0.2769 -0.0232
   94loPI    C1 1489  11.391  13.877  10.921  0.0774 -0.1405 -0.0864
   94loPI    C2 1490  11.470  14.261  11.002 -0.2408 -0.0969  0.0356
   94loPI    C3 1491  11.603  13.973  11.246  0.0201 -0.0693 -0.0697
   94loPI   PO4 1492  11.382  13.828  10.725 -0.0929 -0.3581 -0.2454
   94loPI   GL1 1493  11.245  13.828  10.291  0.0824 -0.0571  0.0186
   94loPI   GL2 1494  10.949  13.943  10.169 -0.0361  0.0078  0.1216
   94loPI   C1A 1495  11.361  13.830   9.819 -0.1578  0.2866 -0.3550
   94loPI   C2A 1496  11.339  13.800   9.375  0.4324  0.0133 -0.0553
   94loPI   C3A 1497  11.045  13.743   8.910  0.1171 -0.0500  0.3015
   94loPI   C4A 1498  11.025  13.713   8.537  0.1975 -0.1300  0.2244
   94loPI   C5A 1499  11.098  13.699   8.017  0.2282  0.0779 -0.0985
   94loPI   C6A 1500  10.885  13.308   7.900  0.0188 -0.0575  0.3427
   94loPI   C1B 1501  10.904  14.049   9.739 -0.0058  0.1288 -0.0427
   94loPI   C2B 1502  10.880  14.136   9.296 -0.0015  0.4264 -0.0248
   94loPI   C3B 1503  10.767  14.174   8.986 -0.0616  0.0485  0.1424
   94loPI   C4B 1504  10.662  14.047   8.584 -0.0115 -0.3431 -0.1250
   95loPI    C1 1505  14.326   1.738  10.764 -0.2895 -0.0848 -0.0382
   95loPI    C2 1506  14.486   1.485  11.029 -0.1040 -0.0939 -0.1576
   95loPI    C3 1507  14.195   1.735  11.142  0.0871  0.0179  0.0973
   95loPI   PO4 1508  14.335   1.625  10.571 -0.0498  0.2079  0.1533
   95loPI   GL1 1509  14.264   1.653  10.097  0.0696  0.0781  0.2478
   95loPI   GL2 1510  14.183   1.926   9.948 -0.0816 -0.2608 -0.2322
   95loPI   C1A 1511  14.180   1.451   9.749 -0.0465  0.1749  0.3434
   95loPI   C2A 1512  14.038   1.588   9.319 -0.0545  0.1135 -0.1905
   95loPI   C3A 1513  13.961   1.487   8.846 -0.3086  0.0040  0.2872
   95loPI   C4A 1514  13.883   1.299   8.401  0.4295  0.3410 -0.0253
   95loPI   C5A 1515  13.712   1.074   8.028  0.1631  0.1314  0.0778
   95loPI   C6A 1516  13.457   0.966   7.641 -0.2729  0.0376  0.3003
   95loPI   C1B 1517  14.335   1.933   9.557  0.2546  0.0362  0.0833
   95loPI   C2B 1518  14.341   1.994   9.234 -0.2842 -0.0756  0.0339
   95loPI   C3B 1519  14.346   1.978   8.778 -0.0044 -0.0705 -0.0730
   95loPI   C4B 1520  14.300   1.949   8.330 -0.1406  0.1927 -0.1477
   96loPI    C1 1521   8.629  14.336  11.060  0.1809  0.1523 -0.1293
   96loPI    C2 1522   8.540  14.175  11.415  0.0536  0.1499 -0.1620
   96loPI    C3 1523   8.840  14.438  11.385  0.1973 -0.0038 -0.0903
   96loPI   PO4 1524   8.368  14.498  10.965  0.1957 -0.0618  0.0054
   96loPI   GL1 1525   8.248  14.187  10.694  0.1395 -0.3059 -0.1920
   96loPI   GL2 1526   8.393  13.941  10.542 -0.1599 -0.2755 -0.1677
   96loPI   C1A 1527   7.952  14.196  10.415 -0.3910  0.2048 -0.1189
   96loPI   C2A 1528   7.943  14.072   9.956 -0.2363  0.2181 -0.0814
   96loPI   C3A 1529   7.986  13.853   9.500  0.2595 -0.0910 -0.0898
   96loPI   C4A 1530   7.845  13.596   9.092  0.1276  0.0988  0.1331
   96loPI   C5A 1531   7.894  13.397   8.770 -0.0602 -0.0370  0.2038
   96loPI   C6A 1532   8.042  13.175   8.534 -0.0269 -0.0631  0.4057
   96loPI   C1B 1533   8.236  13.808  10.226 -0.2215  0.0866 -0.2194
   96loPI   C2B 1534   8.404  13.676   9.761 -0.1755 -0.0192 -0.2718
   96loPI   C3B 1535   8.421  13.527   9.335 -0.0569 -0.1209  0.0622
   96loPI   C4B 1536   8.394  13.759   8.922  0.0080  0.3517 -0.3086
   97loPI    C1 1537   3.391   9.460  10.036  0.1605 -0.0826 -0.0984
   97loPI    C2 1538   3.576   9.727  10.270  0.2097 -0.0578 -0.1656
   97loPI    C3 1539   3.509   9.811   9.884 -0.2545  0.0801 -0.0610
   97loPI   PO4 1540   3.118   9.344  10.029 -0.2271 -0.1354  0.0392
   97loPI   GL1 1541   2.968   9.123   9.750 -0.0924  0.1859 -0.1972
   97loPI   GL2 1542   2.698   9.312   9.595  0.0028 -0.2936  0.1510
   97loPI   C1A 1543   3.248   9.140   9.352  0.0681  0.0346  0.0789
   97loPI   C2A 1544   3.321   9.333   8.858 -0.0858  0.1170  0.1173
   97loPI   C3A 1545   3.249   9.431   8.464 -0.0596  0.2080 -0.2875
   97loPI   C4A 1546   3.184   9.432   8.030  0.0881 -0.0007  0.4011
   97loPI   C5A 1547   3.318   9.758   7.716  0.0201  0.1000 -0.0514
   97loPI   C6A 1548   3.232  10.011   7.311  0.1746  0.2210 -0.2964
   97loPI   C1B 1549   2.799   9.490   9.189 -0.0848 -0.0403 -0.1216
   97loPI   C2B 1550   2.945   9.621   8.805  0.2739  0.0567 -0.0922
   97loPI   C3B 1551   2.816   9.583   8.364  0.0471  0.2768  0.1412
   97loPI   C4B 1552   2.818   9.840   7.985  0.1080  0.3000 -0.0243
   98loPI    C1 1553   3.486   2.231  10.631  0.1526  0.0626 -0.0605
   98loPI    C2 1554   3.313   2.581  10.717  0.0776 -0.0438  0.2331
   98loPI    C3 1555   3.646   2.471  10.908  0.2609 -0.0095 -0.0600
   98loPI   PO4 1556   3.452   2.216  10.407  0.0972 -0.0215 -0.0502
   98loPI   GL1 1557   3.330   2.430  10.014 -0.0496 -0.0123  0.1334
   98loPI   GL2 1558   3.009   2.305  10.072 -0.2547  0.1758 -0.2516
   98loPI   C1A 1559   3.497   2.456   9.645 -0.1206 -0.2072 -0.1454
   98loPI   C2A 1560   3.562   2.324   9.239 -0.0118  0.2388  0.2089
   98loPI   C3A 1561   3.488   2.161   8.819 -0.3987  0.0588  0.1404
   98loPI   C4A 1562   3.561   2.077   8.403  0.1135  0.2477  0.1827
   98loPI   C5A 1563   3.606   2.096   7.998  0.0128  0.1828  0.0229
   98loPI   C6A 1564   3.847   2.344   7.624 -0.2449 -0.0606 -0.1773
   98loPI   C1B 1565   2.720   2.090   9.742 -0.0283 -0.1210 -0.0995
   98loPI   C2B 1566   2.774   1.980   9.297  0.1035  0.1591 -0.3931
   98loPI   C3B 1567   2.653   1.857   8.935  0.1428  0.1971 -0.0473
   98loPI   C4B 1568   2.717   1.732   8.531  0.2325 -0.2988  0.0693
   99loPI    C1 1569   8.657   7.726   9.950 -0.2113 -0.3699 -0.0117
   99loPI    C2 1570   8.848   7.441  10.157 -0.1164 -0.2618  0.0504
   99loPI    C3 1571   8.691   7.756  10.348 -0.2984 -0.3158 -0.0080
   99loPI   PO4 1572   8.722   7.559   9.651 -0.2337 -0.1407  0.0035
   99loPI   GL1 1573   9.010   7.300   9.272  0.0823 -0.1069 -0.3605
   99loPI   GL2 1574   8.941   7.125   9.081  0.0948  0.0686 -0.0149
   99loPI   C1A 1575   8.948   7.640   8.974 -0.3336 -0.0791  0.0114
   99loPI   C2A 1576   8.934   7.719   8.491 -0.1939  0.1853 -0.0736
   99loPI   C3A 1577   8.867   7.677   8.129 -0.0333  0.2109  0.1105
   99loPI   C4A 1578   8.733   7.640   7.760  0.2452  0.4205  0.3575
   99loPI   C5A 1579   8.596   7.620   7.449  0.2129  0.2268 -0.1905
   99loPI   C6A 1580   8.201   7.775   7.309 -0.0988 -0.1183 -0.2455
   99loPI   C1B 1581   8.976   7.135   8.662 -0.0416 -0.1101  0.1529
   99loPI   C2B 1582   8.961   7.209   8.204  0.0748  0.0306 -0.1105
   99loPI   C3B 1583   8.741   7.136   7.828  0.1225 -0.2092 -0.2515
   99loPI   C4B 1584   8.633   6.924   7.530  0.0075 -0.0234 -0.0992
  100loPI    C1 1585  14.255   5.684   9.978 -0.1886 -0.0223  0.1090
  100loPI    C2 1586  14.329   5.865  10.327  0.2645 -0.0026  0.0090
  100loPI    C3 1587  14.300   5.466  10.311  0.1438  0.0028  0.0845
  100loPI   PO4 1588  14.433   5.811   9.841 -0.1656 -0.0495 -0.1699
  100loPI   GL1 1589  14.797   5.903   9.592 -0.0492 -0.0595 -0.1754
  100loPI   GL2 1590  14.642   5.894   9.351 -0.4386 -0.0079  0.3719
  100loPI   C1A 1591  15.091   5.955   9.362  0.0429  0.2365 -0.0883
  100loPI   C2A 1592  15.293   6.027   8.921  0.1067  0.1848 -0.1668
  100loPI   C3A 1593  15.185   6.005   8.575 -0.3881  0.0437 -0.1871
  100loPI   C4A 1594  15.013   5.959   8.142  0.1886 -0.0021  0.0277
  100loPI   C5A 1595  15.064   5.758   7.728  0.1398  0.1845  0.1500
  100loPI   C6A 1596  14.879   5.702   7.286  0.0615 -0.0535  0.3440
  100loPI   C1B 1597  14.884   5.728   8.945 -0.3566 -0.0571 -0.0690
  100loPI   C2B 1598  14.839   5.638   8.539 -0.4651 -0.0465 -0.2235
  100loPI   C3B 1599  14.664   5.561   8.073 -0.1790  0.1552 -0.1146
  100loPI   C4B 1600  14.663   5.407   7.660  0.0861 -0.2218 -0.0073
  101loPI    C1 1601   5.519  16.426  11.497 -0.3406 -0.0908 -0.0968
  101loPI    C2 1602   5.534  16.800  11.356 -0.0102 -0.1073 -0.1123
  101loPI    C3 1603   5.348  16.724  11.703 -0.0982  0.0666 -0.1204
  101loPI   PO4 1604   5.605  16.306  11.173 -0.2600  0.1134  0.0983
  101loPI   GL1 1605   5.643  16.181  10.762  0.2064 -0.2355 -0.1108
  101loPI   GL2 1606   5.968  15.931  10.716  0.1938  0.1201  0.0867
  101loPI   C1A 1607   5.523  16.338  10.391 -0.0220  0.1846 -0.2464
  101loPI   C2A 1608   5.479  16.325  10.012  0.0205 -0.2468  0.0400
  101loPI   C3A 1609   5.345  16.299   9.565  0.0059  0.1831 -0.0247
  101loPI   C4A 1610   5.464  16.309   9.146  0.2992 -0.1054 -0.2681
  101loPI   C5A 1611   5.503  16.166   8.807  0.1290  0.1989 -0.1205
  101loPI   C6A 1612   5.223  15.897   8.574  0.2042  0.0191 -0.1423
  101loPI   C1B 1613   6.063  15.746  10.327  0.0038  0.1173  0.3135
  101loPI   C2B 1614   6.194  15.786   9.924 -0.1286 -0.0813 -0.2589
  101loPI   C3B 1615   6.140  15.740   9.507  0.0673 -0.1681  0.0643
  101loPI   C4B 1616   6.128  15.776   9.143  0.1516 -0.1943  0.1094
  102loPI    C1 1617  13.848  11.286   9.979 -0.1312  0.0361 -0.0952
  102loPI    C2 1618  13.706  11.642  10.093  0.0410  0.1032 -0.0889
  102loPI    C3 1619  13.824  11.376  10.368 -0.0863  0.0413 -0.0937
  102loPI   PO4 1620  13.760  11.266   9.700  0.0651  0.0309 -0.2027
  102loPI   GL1 1621  13.822  11.506   9.333  0.2000  0.5728 -0.2878
  102loPI   GL2 1622  14.060  11.671   9.576 -0.0246  0.1158  0.1311
  102loPI   C1A 1623  13.466  11.635   9.038 -0.1526  0.0554  0.4790
  102loPI   C2A 1624  13.140  11.857   8.739  0.0435  0.0290 -0.0141
  102loPI   C3A 1625  12.801  11.992   8.743 -0.0143  0.2624 -0.2644
  102loPI   C4A 1626  12.630  12.254   8.506 -0.1277  0.2526  0.2510
  102loPI   C5A 1627  12.463  12.679   8.371 -0.1066  0.1790 -0.2732
  102loPI   C6A 1628  12.151  12.781   8.126 -0.0528  0.0047  0.1695
  102loPI   C1B 1629  14.331  12.053   9.426  0.2184 -0.2778 -0.2401
  102loPI   C2B 1630  14.300  12.190   9.120  0.1396  0.3582 -0.0806
  102loPI   C3B 1631  14.186  12.085   8.745  0.1620  0.0628  0.4320
  102loPI   C4B 1632  14.008  11.887   8.262 -0.1522  0.0022 -0.2438
  103loPI    C1 1633  15.012   1.233  10.352  0.2140 -0.0052 -0.0196
  103loPI    C2 1634  14.817   1.434  10.638  0.0741  0.0459 -0.1492
  103loPI    C3 1635  15.173   1.269  10.716  0.2008  0.3610 -0.0463
  103loPI   PO4 1636  14.995   1.385  10.169  0.0000 -0.0487 -0.1558
  103loPI   GL1 1637  15.201   1.531   9.845 -0.0637 -0.0645 -0.0202
  103loPI   GL2 1638  15.020   1.870   9.867 -0.2292 -0.1137  0.0193
  103loPI   C1A 1639  15.332   1.887   9.437  0.0498 -0.2517 -0.1063
  103loPI   C2A 1640  15.379   1.975   8.943 -0.0335 -0.0025 -0.2157
  103loPI   C3A 1641  15.371   1.814   8.542  0.2807  0.0915 -0.0082
  103loPI   C4A 1642  15.539   1.811   8.123  0.0663  0.5173  0.1417
  103loPI   C5A 1643  15.986   1.905   8.043  0.1589 -0.3707  0.1157
  103loPI   C6A 1644  16.143   2.167   7.790  0.0270 -0.1558 -0.1598
  103loPI   C1B 1645  14.828   1.911   9.501  0.0260 -0.1617  0.1122
  103loPI   C2B 1646  14.848   1.921   9.004  0.0504  0.1555  0.1116
  103loPI   C3B 1647  14.869   1.923   8.578 -0.0050 -0.3718 -0.0073
  103loPI   C4B 1648  14.719   1.896   8.048  0.2616  0.0855  0.3157
  104loPI    C1 1649   7.274  18.270  10.500  0.0184 -0.2420  0.1759
  104loPI    C2 1650   7.666  18.316  10.436 -0.0786  0.2731 -0.0982
  104loPI    C3 1651   7.527  18.289  10.810  0.2242 -0.0168 -0.0015
  104loPI   PO4 1652   7.191  18.063  10.380 -0.0010  0.1616  0.2217
  104loPI   GL1 1653   6.908  18.015  10.088 -0.1813  0.0279 -0.0986
  104loPI   GL2 1654   6.857  17.685  10.108  0.0277  0.2744  0.6169
  104loPI   C1A 1655   6.783  17.986   9.719  0.0495  0.1946  0.0440
  104loPI   C2A 1656   6.673  17.990   9.401  0.3720  0.1484  0.1666
  104loPI   C3A 1657   6.724  17.989   8.985  0.3198 -0.1087  0.0478
  104loPI   C4A 1658   6.653  18.019   8.572  0.3370 -0.4151 -0.0069
  104loPI   C5A 1659   6.751  18.007   8.279  0.0829 -0.0200 -0.1366
  104loPI   C6A 1660   6.967  18.071   7.865  0.1161  0.0265  0.3544
  104loPI   C1B 1661   6.949  17.497   9.766  0.1822  0.2001  0.0738
  104loPI   C2B 1662   6.860  17.512   9.401  0.0947 -0.3100 -0.1597
  104loPI   C3B 1663   6.891  17.481   9.001  0.1941 -0.0653  0.1561
  104loPI   C4B 1664   6.833  17.516   8.503 -0.1240  0.0993 -0.0561
  105loPI    C1 1665  16.180   3.965  10.288  0.1074 -0.0285 -0.0275
  105loPI    C2 1666  15.940   3.725  10.499 -0.0027  0.1851  0.0942
  105loPI    C3 1667  16.215   3.568  10.254 -0.0666 -0.0631  0.1783
  105loPI   PO4 1668  15.983   4.155  10.262  0.1099 -0.0101  0.2209
  105loPI   GL1 1669  15.995   4.511  10.070 -0.3215  0.0735  0.3722
  105loPI   GL2 1670  15.817   4.788   9.891 -0.1149 -0.1446  0.1505
  105loPI   C1A 1671  16.106   4.406   9.659 -0.4693 -0.4853  0.0156
  105loPI   C2A 1672  16.133   4.532   9.218 -0.1451 -0.1355 -0.0761
  105loPI   C3A 1673  16.266   4.551   8.800  0.1007 -0.3761 -0.0171
  105loPI   C4A 1674  16.294   4.495   8.341  0.1421  0.2007  0.2558
  105loPI   C5A 1675  16.125   4.520   7.862 -0.0375 -0.1696  0.1133
  105loPI   C6A 1676  16.091   4.294   7.482  0.1496  0.2038  0.3219
  105loPI   C1B 1677  15.914   4.891   9.415 -0.0436  0.3082 -0.0135
  105loPI   C2B 1678  16.024   5.071   9.043 -0.1134 -0.0263 -0.2900
  105loPI   C3B 1679  16.141   5.002   8.626  0.2318  0.0045  0.0437
  105loPI   C4B 1680  16.138   4.963   8.213  0.1506 -0.0282 -0.1403
  106loPI    C1 1681   0.052  17.686  11.065  0.0793 -0.0888 -0.0655
  106loPI    C2 1682   0.334  17.466  10.888  0.0934 -0.1130 -0.0134
  106loPI    C3 1683   0.275  17.435  11.282  0.1134 -0.0038 -0.0014
  106loPI   PO4 1684   0.031  17.929  10.882 -0.0712 -0.1123 -0.1546
  106loPI   GL1 1685   0.032  17.974  10.416 -0.0847 -0.0851  0.0110
  106loPI   GL2 1686   0.094  17.650  10.440 -0.0452 -0.5457 -0.2814
  106loPI   C1A 1687   0.236  18.009   9.968 -0.0950  0.0144 -0.0735
  106loPI   C2A 1688   0.327  18.017   9.515  0.0157  0.0376 -0.2819
  106loPI   C3A 1689   0.249  17.912   9.280 -0.0437  0.0051  0.1255
  106loPI   C4A 1690   0.358  18.020   8.857 -0.2121 -0.1552 -0.0844
  106loPI   C5A 1691   0.329  17.720   8.507  0.0498  0.0496  0.0959
  106loPI   C6A 1692   0.051  17.423   8.237  0.1346  0.0222  0.1575
  106loPI   C1B 1693  -0.099  17.666  10.020 -0.2402  0.1157 -0.0752
  106loPI   C2B 1694  -0.095  17.550   9.605 -0.2203  0.1391 -0.0351
  106loPI   C3B 1695  -0.058  17.495   9.198  0.2999  0.1019 -0.2312
  106loPI   C4B 1696  -0.055  17.586   8.847 -0.2943 -0.3420  0.3894
  107loPI    C1 1697  18.039  11.322  10.582 -0.1153  0.1779 -0.2479
  107loPI    C2 1698  17.807  11.464  10.875 -0.0515  0.1026 -0.1602
  107loPI    C3 1699  18.204  11.511  10.893 -0.0241 -0.1419 -0.0976
  107loPI   PO4 1700  18.055  11.440  10.309  0.0541  0.2844 -0.1881
  107loPI   GL1 1701  18.000  11.374   9.823  0.0470  0.1059  0.0115
  107loPI   GL2 1702  18.320  11.490   9.894 -0.4326 -0.0988 -0.0031
  107loPI   C1A 1703  18.103  11.372   9.339 -0.2792  0.1543  0.0725
  107loPI   C2A 1704  18.100  11.233   8.942  0.1387  0.0178 -0.0466
  107loPI   C3A 1705  18.150  11.079   8.448  0.4331 -0.0943  0.0374
  107loPI   C4A 1706  18.339  11.042   8.009  0.0029  0.4831 -0.0757
  107loPI   C5A 1707  18.455  11.081   7.607 -0.2342 -0.2623  0.1689
  107loPI   C6A 1708  18.656  11.014   7.246 -0.2375 -0.1857 -0.0131
  107loPI   C1B 1709  18.507  11.543   9.628 -0.1281 -0.2646  0.0528
  107loPI   C2B 1710  18.451  11.758   9.259 -0.0154 -0.1347  0.0827
  107loPI   C3B 1711  18.309  11.697   8.829 -0.1243 -0.0597 -0.2802
  107loPI   C4B 1712  18.375  11.725   8.375 -0.3073 -0.1960  0.0745
  108loPI    C1 1713  17.277  18.159  10.784 -0.1325  0.0176  0.3649
  108loPI    C2 1714  17.265  18.547  10.878  0.0585  0.0641  0.2032
  108loPI    C3 1715  17.587  18.328  10.972  0.1798  0.0711 -0.1761
  108loPI   PO4 1716  17.204  18.086  10.567  0.3032 -0.0223 -0.0795
  108loPI   GL1 1717  17.295  18.152  10.118 -0.0291  0.0702 -0.1144
  108loPI   GL2 1718  17.504  18.096  10.008  0.2635  0.0692 -0.0413
  108loPI   C1A 1719  17.103  18.218   9.668 -0.4054 -0.1243 -0.0572
  108loPI   C2A 1720  17.241  18.271   9.252  0.0543 -0.1469  0.4045
  108loPI   C3A 1721  17.330  18.276   8.839  0.0859  0.1763 -0.1982
  108loPI   C4A 1722  17.231  18.342   8.374 -0.0985  0.1150 -0.0923
  108loPI   C5A 1723  17.162  18.407   7.898 -0.1443 -0.2013 -0.1231
  108loPI   C6A 1724  16.928  18.615   7.594 -0.0716 -0.0156 -0.1021
  108loPI   C1B 1725  17.612  18.117   9.560  0.0273 -0.1769  0.0895
  108loPI   C2B 1726  17.744  18.085   9.165  0.0390  0.0094 -0.1086
  108loPI   C3B 1727  17.814  18.199   8.733  0.1031 -0.1891 -0.0416
  108loPI   C4B 1728  17.780  18.182   8.234 -0.2188 -0.1321  0.0722
  109loPI    C1 1729   0.268  16.596  11.249 -0.0029  0.0029 -0.1503
  109loPI    C2 1730  -0.066  16.539  11.461 -0.0012  0.3534 -0.0478
  109loPI    C3 1731   0.289  16.438  11.616 -0.0564 -0.0314 -0.1622
  109loPI   PO4 1732   0.206  16.543  10.996  0.2591 -0.0553  0.0755
  109loPI   GL1 1733   0.143  16.828  10.531 -0.0310  0.1305  0.1296
  109loPI   GL2 1734   0.315  16.515  10.492 -0.2892 -0.1811  0.1041
  109loPI   C1A 1735   0.210  16.784  10.088 -0.0702  0.0251  0.0140
  109loPI   C2A 1736   0.244  16.565   9.649 -0.0671 -0.1296 -0.2209
  109loPI   C3A 1737   0.383  16.624   9.263  0.3683  0.2213  0.2896
  109loPI   C4A 1738   0.265  16.626   8.903 -0.2419  0.1344  0.0916
  109loPI   C5A 1739   0.337  16.705   8.479  0.0265  0.2105 -0.0922
  109loPI   C6A 1740   0.224  16.598   8.034  0.1175  0.1467 -0.0782
  109loPI   C1B 1741   0.376  16.263  10.074 -0.1641 -0.0827  0.1939
  109loPI   C2B 1742   0.498  16.146   9.704  0.0246 -0.1524  0.2067
  109loPI   C3B 1743   0.636  16.180   9.301  0.0001 -0.0329  0.4240
  109loPI   C4B 1744   0.539  16.136   8.888  0.3564 -0.0641 -0.2051
  110loPI    C1 1745  10.642   6.455  10.269  0.0268  0.0245 -0.1027
  110loPI    C2 1746  10.897   6.156  10.341 -0.1382 -0.0631  0.1294
  110loPI    C3 1747  10.505   6.082  10.315 -0.1500  0.0831 -0.1451
  110loPI   PO4 1748  10.708   6.560  10.037 -0.2297  0.1101  0.0546
  110loPI   GL1 1749  10.779   6.518   9.565  0.2161 -0.0797 -0.3467
  110loPI   GL2 1750  10.859   6.241   9.394 -0.2371 -0.0850 -0.0270
  110loPI   C1A 1751  10.630   6.624   9.088 -0.0732  0.0580  0.0653
  110loPI   C2A 1752  10.545   6.611   8.656  0.1524 -0.0150  0.4242
  110loPI   C3A 1753  10.510   6.575   8.261 -0.0526 -0.0042  0.1649
  110loPI   C4A 1754  10.700   6.790   8.007 -0.1961  0.0644 -0.0498
  110loPI   C5A 1755  10.771   7.200   8.021 -0.0472  0.3578  0.1637
  110loPI   C6A 1756  11.087   7.471   7.780 -0.1074  0.1502 -0.2326
  110loPI   C1B 1757  10.674   6.168   8.957  0.2718 -0.1647 -0.0870
  110loPI   C2B 1758  10.601   6.128   8.468  0.2681  0.0803 -0.0471
  110loPI   C3B 1759  10.656   5.822   8.148 -0.0974  0.0966  0.1668
  110loPI   C4B 1760  10.894   5.599   7.842 -0.0782  0.0636  0.2706
  111loPI    C1 1761  13.686   3.820  10.272 -0.1385 -0.0802 -0.2213
  111loPI    C2 1762  13.441   3.639  10.013 -0.0583 -0.3997 -0.0775
  111loPI    C3 1763  13.335   3.675  10.397 -0.0459 -0.1947 -0.0923
  111loPI   PO4 1764  13.731   4.115  10.169 -0.1412 -0.0506 -0.0239
  111loPI   GL1 1765  13.575   4.262   9.709 -0.1311 -0.3352 -0.0357
  111loPI   GL2 1766  13.725   3.953   9.663  0.1345  0.4229 -0.0062
  111loPI   C1A 1767  13.251   4.531   9.326  0.2927 -0.1143 -0.2365
  111loPI   C2A 1768  13.274   4.530   8.870 -0.3331 -0.4230  0.1796
  111loPI   C3A 1769  13.263   4.469   8.404 -0.4326 -0.3575 -0.1035
  111loPI   C4A 1770  13.259   4.145   8.055  0.1350  0.4359 -0.0467
  111loPI   C5A 1771  13.095   4.014   7.697 -0.0872 -0.3037  0.1979
  111loPI   C6A 1772  13.164   3.922   7.344  0.1358 -0.2530  0.0729
  111loPI   C1B 1773  13.622   4.152   9.258  0.0024  0.1661  0.3520
  111loPI   C2B 1774  13.691   4.027   8.863 -0.1954  0.2128 -0.0735
  111loPI   C3B 1775  13.487   4.034   8.551  0.0664  0.2102  0.0077
  111loPI   C4B 1776  13.430   3.689   8.331  0.0405  0.0617 -0.0998
  112loPI    C1 1777   1.969   8.895  10.805 -0.0007 -0.0606  0.2961
  112loPI    C2 1778   2.083   8.564  10.613  0.1492  0.0454  0.2007
  112loPI    C3 1779   2.279   8.682  10.941  0.1275  0.0665  0.2060
  112loPI   PO4 1780   1.811   9.041  10.505  0.1653 -0.3438 -0.0660
  112loPI   GL1 1781   1.718   8.941  10.064 -0.1189  0.1023  0.1481
  112loPI   GL2 1782   1.805   8.655   9.897 -0.0775  0.0215 -0.1854
  112loPI   C1A 1783   1.318   9.102   9.803  0.0878 -0.2826 -0.5931
  112loPI   C2A 1784   1.129   8.959   9.423  0.4510  0.2576  0.0678
  112loPI   C3A 1785   0.904   8.821   8.969 -0.2920 -0.1925  0.1337
  112loPI   C4A 1786   0.974   8.945   8.550 -0.0346 -0.0256 -0.0843
  112loPI   C5A 1787   0.915   9.077   8.182 -0.3365 -0.1028  0.3314
  112loPI   C6A 1788   1.212   9.040   7.751 -0.0085  0.0248  0.1308
  112loPI   C1B 1789   2.018   8.511   9.509  0.1038 -0.1312  0.3402
  112loPI   C2B 1790   2.121   8.201   9.235  0.0855 -0.3900 -0.1722
  112loPI   C3B 1791   2.063   8.168   8.808 -0.0998  0.2154 -0.1403
  112loPI   C4B 1792   2.208   8.164   8.379 -0.0914 -0.3082 -0.0576
  113loPI    C1 1793  15.636  11.540  10.501 -0.1139  0.1700 -0.1296
  113loPI    C2 1794  15.544  11.313  10.185 -0.1006  0.0172 -0.0252
  113loPI    C3 1795  15.738  11.153  10.496 -0.2201  0.1368  0.1123
  113loPI   PO4 1796  15.786  11.731  10.508 -0.1973 -0.0197 -0.2360
  113loPI   GL1 1797  15.858  11.794  10.038  0.0717 -0.1370 -0.2136
  113loPI   GL2 1798  15.518  11.770  10.042  0.0603 -0.2918 -0.1999
  113loPI   C1A 1799  15.904  11.905   9.578 -0.3095 -0.0262  0.0053
  113loPI   C2A 1800  15.815  12.275   9.327  0.3046  0.3848  0.1708
  113loPI   C3A 1801  15.914  12.335   8.843  0.2000  0.1747 -0.0918
  113loPI   C4A 1802  15.969  12.246   8.444 -0.1010  0.0122  0.5263
  113loPI   C5A 1803  16.130  12.328   8.011 -0.3236  0.0191  0.0312
  113loPI   C6A 1804  16.460  12.388   7.759 -0.0823 -0.0191  0.0311
  113loPI   C1B 1805  15.427  11.762   9.610 -0.1809 -0.0828  0.0351
  113loPI   C2B 1806  15.706  11.718   9.188  0.2618  0.1969  0.0333
  113loPI   C3B 1807  15.783  11.722   8.777 -0.3010  0.1983  0.2020
  113loPI   C4B 1808  15.854  11.709   8.326  0.1585  0.1194 -0.0053
  114loPI    C1 1809  17.439   1.399  10.832  0.2262 -0.1404 -0.2105
  114loPI    C2 1810  17.417   1.549  11.202  0.1882  0.1154 -0.3145
  114loPI    C3 1811  17.671   1.251  11.122  0.0393 -0.0912 -0.0338
  114loPI   PO4 1812  17.511   1.643  10.665  0.1761  0.0017  0.0336
  114loPI   GL1 1813  17.501   1.791  10.312  0.2476  0.0294 -0.2104
  114loPI   GL2 1814  17.159   1.713  10.153  0.0966 -0.0578  0.2340
  114loPI   C1A 1815  17.678   1.578  10.023 -0.0279  0.1603  0.1357
  114loPI   C2A 1816  17.749   1.548   9.642 -0.2868 -0.0199  0.0227
  114loPI   C3A 1817  17.837   1.583   9.311 -0.2946 -0.2122 -0.2918
  114loPI   C4A 1818  18.001   1.463   8.942  0.2314  0.2088  0.1145
  114loPI   C5A 1819  17.995   1.449   8.582 -0.0460 -0.2737 -0.1859
  114loPI   C6A 1820  18.094   1.641   8.267 -0.1254  0.0923 -0.1535
  114loPI   C1B 1821  17.205   1.483   9.822 -0.1207 -0.2067 -0.0703
  114loPI   C2B 1822  17.254   1.464   9.437 -0.3377  0.0719  0.0039
  114loPI   C3B 1823  17.364   1.510   9.101  0.4001  0.1715  0.0645
  114loPI   C4B 1824  17.464   1.625   8.687 -0.2099  0.3045 -0.1566
  115loPI    C1 1825   0.742  13.888  10.911  0.0114  0.2243 -0.2370
  115loPI    C2 1826   0.965  14.095  11.171  0.2620 -0.0020 -0.2667
  115loPI    C3 1827   0.727  13.801  11.302  0.2722 -0.0148 -0.2767
  115loPI   PO4 1828   0.919  13.865  10.753  0.0095 -0.1733 -0.1529
  115loPI   GL1 1829   0.977  14.131  10.443  0.2747 -0.1456  0.0444
  115loPI   GL2 1830   0.865  13.863  10.139 -0.1895 -0.4482  0.0921
  115loPI   C1A 1831   1.196  14.323  10.086 -0.0034 -0.0103  0.1021
  115loPI   C2A 1832   1.349  14.220   9.617 -0.1609 -0.1210 -0.0360
  115loPI   C3A 1833   1.357  14.172   9.053 -0.2795  0.0679 -0.0732
  115loPI   C4A 1834   1.403  14.287   8.550 -0.2222 -0.1546 -0.0196
  115loPI   C5A 1835   1.129  14.171   8.136  0.0081  0.1765 -0.0407
  115loPI   C6A 1836   0.948  13.810   7.819  0.0536  0.0655  0.0574
  115loPI   C1B 1837   1.051  13.839   9.704  0.1740  0.2059  0.2464
  115loPI   C2B 1838   1.108  13.719   9.269 -0.2448 -0.0164  0.3354
  115loPI   C3B 1839   1.049  13.703   8.730 -0.2063  0.1744 -0.0620
  115loPI   C4B 1840   1.059  13.651   8.368  0.1229 -0.0300 -0.2457
  116loPI    C1 1841  17.048  10.332  10.214  0.0693 -0.0245  0.0733
  116loPI    C2 1842  17.286  10.081  10.415 -0.0259 -0.1998 -0.0306
  116loPI    C3 1843  16.938  10.198  10.574  0.0485 -0.0806  0.0462
  116loPI   PO4 1844  17.082  10.370  10.002  0.2498  0.0058 -0.0801
  116loPI   GL1 1845  16.987  10.512   9.709  0.1128 -0.3239 -0.0657
  116loPI   GL2 1846  16.979  10.271   9.463 -0.0472 -0.0234 -0.0239
  116loPI   C1A 1847  16.718  10.706   9.328  0.0241  0.5363  0.2934
  116loPI   C2A 1848  16.722  10.625   8.979  0.0744 -0.2588 -0.0653
  116loPI   C3A 1849  16.911  10.441   8.608 -0.1219 -0.4186 -0.2277
  116loPI   C4A 1850  17.048  10.168   8.253  0.1874 -0.0309  0.1296
  116loPI   C5A 1851  17.109   9.843   7.985  0.0976 -0.2983 -0.0697
  116loPI   C6A 1852  16.914   9.932   7.701 -0.1142  0.1949  0.1666
  116loPI   C1B 1853  17.235  10.384   9.063  0.2731  0.0319 -0.1561
  116loPI   C2B 1854  17.400  10.449   8.530  0.0220 -0.2182  0.0456
  116loPI   C3B 1855  17.657  10.372   8.139  0.4259  0.1037  0.1861
  116loPI   C4B 1856  17.971  10.097   7.933  0.0377  0.1039  0.0758
  117loPI    C1 1857  13.229   5.043  10.256 -0.1389  0.1740 -0.0652
  117loPI    C2 1858  12.869   5.187  10.357 -0.1521  0.0712  0.0363
  117loPI    C3 1859  13.196   5.411  10.410 -0.1947  0.1418  0.0009
  117loPI   PO4 1860  13.238   5.010  10.015 -0.0245  0.0290 -0.2443
  117loPI   GL1 1861  13.328   5.104   9.724  0.2855  0.0216  0.1907
  117loPI   GL2 1862  13.675   5.230   9.628 -0.0221  0.0344  0.0843
  117loPI   C1A 1863  13.444   4.948   9.309 -0.3604 -0.2189 -0.1956
  117loPI   C2A 1864  13.537   4.974   8.811 -0.1431  0.0653  0.0228
  117loPI   C3A 1865  13.401   4.944   8.388  0.1454  0.1153  0.1783
  117loPI   C4A 1866  13.223   4.836   7.941 -0.2142 -0.2396  0.0286
  117loPI   C5A 1867  13.382   4.419   7.619  0.0399  0.2101  0.1873
  117loPI   C6A 1868  13.556   4.257   7.279  0.0333 -0.2755 -0.1198
  117loPI   C1B 1869  13.750   5.321   9.131  0.2676  0.1126  0.1176
  117loPI   C2B 1870  13.828   5.412   8.746 -0.1520  0.1743  0.2060
  117loPI   C3B 1871  14.062   5.535   8.356 -0.2205  0.2030 -0.3227
  117loPI   C4B 1872  14.200   5.393   7.920 -0.0714 -0.1273  0.0874
  118loPI    C1 1873  14.723   0.637  10.710  0.0216 -0.0005 -0.0035
  118loPI    C2 1874  14.812   0.289  10.885  0.4662  0.0477 -0.1236
  118loPI    C3 1875  14.618   0.571  11.091  0.1976 -0.2269  0.0078
  118loPI   PO4 1876  14.912   0.748  10.497  0.1330  0.0782 -0.1865
  118loPI   GL1 1877  14.856   0.829  10.046 -0.0692  0.2764  0.1990
  118loPI   GL2 1878  15.137   0.842  10.005  0.0827 -0.0014  0.0402
  118loPI   C1A 1879  14.901   0.682   9.658 -0.0415 -0.0901 -0.2476
  118loPI   C2A 1880  14.962   0.564   9.214  0.2654  0.1496 -0.1643
  118loPI   C3A 1881  14.916   0.547   8.781 -0.2733 -0.3646 -0.0255
  118loPI   C4A 1882  14.967   0.582   8.400  0.1862  0.1371 -0.0301
  118loPI   C5A 1883  14.800   0.536   7.928  0.2432 -0.1103 -0.1991
  118loPI   C6A 1884  14.416   0.534   7.659  0.2895  0.1048  0.1229
  118loPI   C1B 1885  15.292   0.942   9.609  0.2512 -0.1347 -0.0305
  118loPI   C2B 1886  15.149   1.032   9.277 -0.1416 -0.0780  0.0635
  118loPI   C3B 1887  15.224   0.981   8.919 -0.1231 -0.1617 -0.2708
  118loPI   C4B 1888  15.263   0.967   8.518 -0.1994 -0.0077  0.0894
  119loPI    C1 1889  13.961  17.601  10.660  0.0697  0.1169  0.0552
  119loPI    C2 1890  13.912  17.939  10.868 -0.1998  0.0274  0.1411
  119loPI    C3 1891  13.842  17.585  11.042  0.0239 -0.0712  0.0341
  119loPI   PO4 1892  14.163  17.687  10.517 -0.3002  0.0130 -0.1307
  119loPI   GL1 1893  14.145  17.895  10.178 -0.0849 -0.1697  0.2592
  119loPI   GL2 1894  14.296  17.571  10.005  0.4727  0.1690 -0.2342
  119loPI   C1A 1895  13.998  17.907   9.768  0.1130 -0.2819  0.0160
  119loPI   C2A 1896  14.030  18.153   9.296 -0.0037  0.1918 -0.0869
  119loPI   C3A 1897  14.057  18.144   8.889 -0.0758 -0.0472 -0.1304
  119loPI   C4A 1898  14.175  18.064   8.505 -0.1167  0.3287  0.1291
  119loPI   C5A 1899  14.471  18.122   8.174  0.2833  0.0542 -0.0476
  119loPI   C6A 1900  14.351  18.153   7.717  0.0385 -0.0217  0.3127
  119loPI   C1B 1901  14.312  17.732   9.463 -0.2057 -0.0296  0.0990
  119loPI   C2B 1902  14.444  17.881   9.100 -0.1069 -0.2051  0.1875
  119loPI   C3B 1903  14.626  18.044   8.738  0.2061  0.1703  0.2699
  119loPI   C4B 1904  14.859  18.106   8.450 -0.0034 -0.3422 -0.2470
  120loPI    C1 1905  18.269  17.190  10.930  0.1638 -0.1051 -0.0839
  120loPI    C2 1906  18.269  16.799  11.015 -0.0475 -0.0674  0.1002
  120loPI    C3 1907  17.964  17.029  11.133  0.0948  0.1616  0.0277
  120loPI   PO4 1908  18.345  17.213  10.674  0.0307  0.0055  0.2606
  120loPI   GL1 1909  18.098  17.340  10.309  0.1067  0.1915 -0.0083
  120loPI   GL2 1910  18.294  17.118  10.216  0.0852 -0.3209  0.1015
  120loPI   C1A 1911  17.932  17.184   9.845 -0.1168 -0.1105 -0.0885
  120loPI   C2A 1912  18.002  17.123   9.465  0.2268 -0.0120  0.1911
  120loPI   C3A 1913  18.048  17.167   8.936 -0.0987  0.1846 -0.3005
  120loPI   C4A 1914  18.148  17.184   8.466 -0.3510  0.2205 -0.2109
  120loPI   C5A 1915  17.854  17.220   8.030  0.2032  0.4300 -0.0204
  120loPI   C6A 1916  17.499  17.075   7.858 -0.0980  0.2318  0.2767
  120loPI   C1B 1917  18.437  17.049   9.760 -0.2316  0.1976  0.3068
  120loPI   C2B 1918  18.535  17.007   9.422  0.1539 -0.0777  0.3166
  120loPI   C3B 1919  18.563  17.061   9.004  0.0673  0.1591  0.0161
  120loPI   C4B 1920  18.710  17.180   8.619 -0.1101 -0.0923 -0.1136
  121loPI    C1 1921   1.812   2.920  10.674  0.0229  0.0654 -0.0096
  121loPI    C2 1922   1.913   3.213  10.926  0.2396 -0.0704  0.0644
  121loPI    C3 1923   1.891   2.836  11.057 -0.2729 -0.0608  0.0265
  121loPI   PO4 1924   1.968   2.935  10.425  0.0120 -0.3211 -0.0614
  121loPI   GL1 1925   1.870   2.820  10.050 -0.3172  0.0633  0.0572
  121loPI   GL2 1926   1.682   3.104  10.056  0.0457  0.2275  0.2662
  121loPI   C1A 1927   1.854   2.905   9.604 -0.0094 -0.1156 -0.1778
  121loPI   C2A 1928   1.812   2.978   9.219 -0.1341 -0.2268  0.3050
  121loPI   C3A 1929   1.885   2.992   8.748 -0.2390 -0.3594 -0.1314
  121loPI   C4A 1930   1.982   3.069   8.304 -0.1191  0.0790 -0.0478
  121loPI   C5A 1931   2.307   3.211   8.032 -0.0606 -0.2117  0.2438
  121loPI   C6A 1932   2.717   3.173   7.901  0.0800  0.2378  0.1319
  121loPI   C1B 1933   1.395   3.058   9.791 -0.0375  0.0831  0.0759
  121loPI   C2B 1934   1.369   2.968   9.445  0.0253 -0.1879 -0.3574
  121loPI   C3B 1935   1.339   3.048   9.031 -0.1400  0.1268  0.1799
  121loPI   C4B 1936   1.312   3.061   8.596 -0.1543  0.0109  0.0648
  122loPI    C1 1937  15.661  13.637  10.625 -0.0500  0.0398  0.2615
  122loPI    C2 1938  15.391  13.367  10.742 -0.0353 -0.1331 -0.0917
  122loPI    C3 1939  15.742  13.394  10.932 -0.1924 -0.0889  0.1979
  122loPI   PO4 1940  15.503  13.513  10.247 -0.2662  0.2506 -0.1417
  122loPI   GL1 1941  15.629  13.165  10.033  0.0083 -0.0993 -0.1519
  122loPI   GL2 1942  15.377  13.150   9.804 -0.3633 -0.3446 -0.1149
  122loPI   C1A 1943  15.934  13.293   9.673  0.0156 -0.0900 -0.0087
  122loPI   C2A 1944  16.214  13.459   9.289 -0.1919 -0.0309  0.4034
  122loPI   C3A 1945  16.218  13.448   8.927  0.1287 -0.1353  0.1009
  122loPI   C4A 1946  16.141  13.717   8.508  0.1116  0.0156 -0.0249
  122loPI   C5A 1947  16.259  14.147   8.310  0.1559  0.0788  0.3345
  122loPI   C6A 1948  16.246  14.635   8.355  0.3402 -0.2541 -0.1568
  122loPI   C1B 1949  15.469  13.350   9.404 -0.0767 -0.1080 -0.3828
  122loPI   C2B 1950  15.748  13.344   9.097  0.2060  0.0346  0.0880
  122loPI   C3B 1951  15.841  13.312   8.695 -0.1137  0.3907 -0.0428
  122loPI   C4B 1952  15.840  13.329   8.232 -0.1918  0.1756  0.0559
  123loPI    C1 1953   3.931   1.403  10.646 -0.3148  0.0931  0.0939
  123loPI    C2 1954   4.308   1.449  10.773 -0.2206 -0.1169 -0.1010
  123loPI    C3 1955   4.002   1.509  11.025 -0.0529 -0.0953  0.1002
  123loPI   PO4 1956   3.970   1.392  10.391  0.4954  0.2415  0.5829
  123loPI   GL1 1957   4.150   1.128   9.975 -0.1857  0.2441  0.0902
  123loPI   GL2 1958   4.337   1.310   9.782  0.1110 -0.0652 -0.0962
  123loPI   C1A 1959   4.188   0.855   9.609  0.3135 -0.2288  0.0156
  123loPI   C2A 1960   4.080   0.800   9.236  0.0142 -0.3677 -0.1307
  123loPI   C3A 1961   4.101   0.666   8.917  0.1213 -0.1750 -0.2580
  123loPI   C4A 1962   4.152   0.654   8.423  0.1088 -0.0314  0.1928
  123loPI   C5A 1963   4.122   0.753   7.993 -0.1092  0.2356 -0.1396
  123loPI   C6A 1964   4.420   0.695   7.619 -0.1957 -0.1506  0.3504
  123loPI   C1B 1965   4.356   1.244   9.322  0.1829 -0.0370  0.0135
  123loPI   C2B 1966   4.433   1.144   8.858 -0.1494  0.2320 -0.0958
  123loPI   C3B 1967   4.455   1.017   8.447  0.1495  0.2106  0.1074
  123loPI   C4B 1968   4.506   1.029   8.079  0.0054 -0.0959  0.0742
  124loPI    C1 1969  12.817   6.678  10.027  0.1562 -0.0906  0.1184
  124loPI    C2 1970  13.106   6.464   9.851  0.1484 -0.0030 -0.0024
  124loPI    C3 1971  13.186   6.674  10.182  0.2553  0.1202 -0.1054
  124loPI   PO4 1972  12.566   6.663   9.888 -0.1098  0.0915 -0.3339
  124loPI   GL1 1973  12.412   6.787   9.436 -0.0184 -0.2817  0.0883
  124loPI   GL2 1974  12.706   6.839   9.484 -0.1014 -0.0238  0.1031
  124loPI   C1A 1975  12.197   6.635   9.165 -0.1100  0.0522 -0.0332
  124loPI   C2A 1976  12.333   6.560   8.650  0.1919 -0.1538 -0.2173
  124loPI   C3A 1977  12.430   6.389   8.305 -0.1654  0.2234 -0.1515
  124loPI   C4A 1978  12.625   6.289   8.009 -0.0003  0.1322  0.1013
  124loPI   C5A 1979  12.443   6.173   7.599 -0.1441 -0.0966  0.0242
  124loPI   C6A 1980  12.549   6.403   7.177  0.0018  0.0063  0.1576
  124loPI   C1B 1981  12.674   6.696   9.020 -0.1657 -0.1564  0.2693
  124loPI   C2B 1982  12.779   6.671   8.518  0.1893 -0.1201  0.2900
  124loPI   C3B 1983  12.709   6.759   8.018  0.2240  0.1020 -0.0789
  124loPI   C4B 1984  12.501   6.672   7.613  0.2697  0.0969 -0.1008
  125loPI    C1 1985  14.270  16.562  10.300  0.4283 -0.1336 -0.0636
  125loPI    C2 1986  14.391  16.808  10.591  0.1604  0.1735 -0.2054
  125loPI    C3 1987  14.427  16.412  10.636  0.0300  0.2103  0.2874
  125loPI   PO4 1988  14.283  16.706  10.097 -0.1209 -0.0020  0.1364
  125loPI   GL1 1989  14.347  16.477   9.787  0.1333  0.0749 -0.1115
  125loPI   GL2 1990  14.290  16.223   9.854  0.2566  0.3902  0.0099
  125loPI   C1A 1991  14.367  16.602   9.373 -0.0508  0.1837 -0.0389
  125loPI   C2A 1992  14.463  16.681   8.961  0.0815 -0.2530 -0.0186
  125loPI   C3A 1993  14.543  16.821   8.530  0.0001 -0.0940  0.0107
  125loPI   C4A 1994  14.391  16.944   8.146  0.2228 -0.1898  0.0555
  125loPI   C5A 1995  14.115  16.722   7.935 -0.0575 -0.1482  0.0798
  125loPI   C6A 1996  13.963  16.308   7.847  0.4017  0.0057 -0.0016
  125loPI   C1B 1997  14.336  16.049   9.444  0.2604  0.0880 -0.1717
  125loPI   C2B 1998  14.286  16.144   9.014  0.0063  0.0820 -0.1299
  125loPI   C3B 1999  14.502  16.094   8.628  0.3919 -0.0160 -0.1289
  125loPI   C4B 2000  14.469  15.856   8.280  0.2896 -0.1494  0.1782
  126loPI    C1 2001   0.660   9.805  10.467 -0.0515 -0.1450  0.0326
  126loPI    C2 2002   0.589   9.450  10.637 -0.1792 -0.1872 -0.1057
  126loPI    C3 2003   0.572   9.784  10.856 -0.1184 -0.2602  0.0119
  126loPI   PO4 2004   0.851   9.739  10.338  0.2567  0.0708  0.3590
  126loPI   GL1 2005   1.051   9.554  10.013 -0.0554 -0.0118 -0.2266
  126loPI   GL2 2006   1.363   9.645   9.858  0.2765  0.1195 -0.0593
  126loPI   C1A 2007   1.002   9.480   9.548  0.0113 -0.2904  0.0891
  126loPI   C2A 2008   1.119   9.379   9.057  0.3912  0.3260  0.0226
  126loPI   C3A 2009   1.114   9.414   8.586 -0.2329  0.0155  0.0898
  126loPI   C4A 2010   0.872   9.647   8.239 -0.2874  0.3547 -0.3136
  126loPI   C5A 2011   0.602   9.434   8.049  0.1336 -0.2472  0.1099
  126loPI   C6A 2012   0.712   9.266   7.695 -0.3815 -0.0421 -0.0601
  126loPI   C1B 2013   1.375   9.866   9.513 -0.0842  0.1020  0.0682
  126loPI   C2B 2014   1.397   9.889   9.118  0.0506  0.3459 -0.4786
  126loPI   C3B 2015   1.359   9.836   8.616 -0.2538  0.0711  0.1661
  126loPI   C4B 2016   1.392   9.916   8.178 -0.0376  0.0871  0.1212
  127loPI    C1 2017   7.374  15.622  10.958  0.1826  0.1646 -0.1690
  127loPI    C2 2018   7.471  15.546  11.339 -0.2841 -0.0953 -0.0952
  127loPI    C3 2019   7.631  15.328  11.045  0.2516  0.2523 -0.0737
  127loPI   PO4 2020   7.437  15.882  10.858  0.0444 -0.2391 -0.0066
  127loPI   GL1 2021   7.364  16.097  10.505  0.2238  0.2858 -0.0630
  127loPI   GL2 2022   7.007  16.178  10.441 -0.2598 -0.3423  0.1372
  127loPI   C1A 2023   7.715  15.944  10.207  0.1117 -0.0427  0.0522
  127loPI   C2A 2024   7.949  15.888   9.894 -0.1786  0.1806  0.0528
  127loPI   C3A 2025   8.033  15.874   9.435  0.2060  0.1573 -0.3054
  127loPI   C4A 2026   7.981  15.954   8.991 -0.1962 -0.3009 -0.0518
  127loPI   C5A 2027   8.128  16.011   8.573 -0.0243  0.3395 -0.0689
  127loPI   C6A 2028   8.425  16.166   8.386  0.1153 -0.0603  0.2474
  127loPI   C1B 2029   7.027  16.207   9.920 -0.0062  0.3489  0.0353
  127loPI   C2B 2030   6.906  16.160   9.565 -0.0282  0.0479  0.3794
  127loPI   C3B 2031   7.013  16.190   9.202 -0.0215  0.0897  0.0301
  127loPI   C4B 2032   7.055  16.127   8.808 -0.0649 -0.3251 -0.4323
  128loPI    C1 2033  12.745   5.676  10.525 -0.1322  0.1424 -0.2459
  128loPI    C2 2034  12.619   6.005  10.715 -0.0766  0.0284 -0.0079
  128loPI    C3 2035  12.985   5.860  10.788 -0.0395  0.0051 -0.2340
  128loPI   PO4 2036  12.679   5.679  10.246  0.2399 -0.0550  0.1856
  128loPI   GL1 2037  12.413   5.780   9.877  0.1554 -0.1684  0.0585
  128loPI   GL2 2038  12.372   5.616   9.679  0.1991 -0.4262  0.2612
  128loPI   C1A 2039  12.808   5.821   9.589 -0.3022  0.1770  0.0548
  128loPI   C2A 2040  13.120   5.902   9.185  0.4613  0.6024  0.2757
  128loPI   C3A 2041  13.359   5.742   8.918  0.1377  0.2646 -0.1652
  128loPI   C4A 2042  13.406   5.543   8.579 -0.2310 -0.0434  0.1349
  128loPI   C5A 2043  13.597   5.371   8.229  0.1877  0.0590  0.0674
  128loPI   C6A 2044  13.697   5.286   7.825 -0.0089 -0.2758 -0.0085
  128loPI   C1B 2045  12.513   5.444   9.320  0.0757  0.2450 -0.0616
  128loPI   C2B 2046  12.743   5.684   8.942 -0.1606  0.0192  0.1621
  128loPI   C3B 2047  12.905   5.684   8.551  0.1088 -0.0032 -0.1503
  128loPI   C4B 2048  12.925   5.813   8.117 -0.0685  0.0696 -0.0112
  129loPI    C1 2049   3.286   3.072  10.436  0.0283  0.1670 -0.4057
  129loPI    C2 2050   3.065   2.746  10.365  0.0978 -0.0277  0.2065
  129loPI    C3 2051   2.915   3.046  10.583  0.3008  0.0082  0.2998
  129loPI   PO4 2052   3.322   3.123  10.119 -0.0108 -0.0256 -0.1887
  129loPI   GL1 2053   3.347   2.998   9.726  0.2938  0.0121  0.0091
  129loPI   GL2 2054   3.085   3.216   9.695  0.1277 -0.0253  0.1227
  129loPI   C1A 2055   3.387   2.916   9.294  0.1107  0.0164 -0.0539
  129loPI   C2A 2056   3.377   2.685   8.793 -0.1488 -0.0715 -0.1859
  129loPI   C3A 2057   3.692   2.537   8.515 -0.0305  0.1384  0.2363
  129loPI   C4A 2058   3.994   2.569   8.122 -0.4864 -0.0599 -0.0552
  129loPI   C5A 2059   3.958   2.860   7.752  0.0765  0.0399 -0.2498
  129loPI   C6A 2060   4.192   2.830   7.402 -0.3037 -0.0932  0.2153
  129loPI   C1B 2061   3.281   3.366   9.286 -0.1793  0.0774 -0.1242
  129loPI   C2B 2062   3.197   3.345   8.873  0.2301  0.2518  0.1153
  129loPI   C3B 2063   3.318   3.127   8.547  0.0746  0.2083 -0.0214
  129loPI   C4B 2064   3.732   3.028   8.223  0.0692  0.0019  0.1984
  130loPI    C1 2065  16.123  12.193  10.384 -0.1517  0.0343  0.3191
  130loPI    C2 2066  16.269  11.875  10.577 -0.0455  0.0390  0.2475
  130loPI    C3 2067  16.302  12.239  10.739  0.2918  0.0791  0.0972
  130loPI   PO4 2068  16.222  12.087  10.085  0.3520 -0.2374  0.1071
  130loPI   GL1 2069  16.399  11.989   9.759 -0.1060  0.1922  0.3140
  130loPI   GL2 2070  16.294  11.593   9.794 -0.4608 -0.1133 -0.1800
  130loPI   C1A 2071  16.369  12.020   9.260 -0.0242 -0.0519 -0.0763
  130loPI   C2A 2072  16.266  11.951   8.905 -0.0056  0.0508  0.1492
  130loPI   C3A 2073  16.379  11.962   8.507  0.1909 -0.0163 -0.1200
  130loPI   C4A 2074  16.581  12.221   8.239  0.0449 -0.0598 -0.3397
  130loPI   C5A 2075  16.934  12.294   8.109  0.3446 -0.4955 -0.1471
  130loPI   C6A 2076  17.354  12.311   8.281  0.0339  0.0777  0.4224
  130loPI   C1B 2077  16.618  11.639   9.458  0.0194 -0.2713  0.0158
  130loPI   C2B 2078  16.625  11.621   8.946 -0.1281  0.1115 -0.1688
  130loPI   C3B 2079  16.967  11.367   8.551  0.1220 -0.0440 -0.1123
  130loPI   C4B 2080  16.983  11.260   8.052  0.1935 -0.2513 -0.0079
  131loPI    C1 2081   2.568   5.741  10.146  0.1676 -0.0779 -0.2239
  131loPI    C2 2082   2.276   5.561  10.352 -0.0373  0.3160 -0.1603
  131loPI    C3 2083   2.630   5.627  10.525  0.0661 -0.0868 -0.2095
  131loPI   PO4 2084   2.507   5.666   9.900 -0.0320  0.0070 -0.4172
  131loPI   GL1 2085   2.724   5.873   9.557  0.2934  0.1028  0.0376
  131loPI   GL2 2086   2.532   5.673   9.394  0.1187  0.1907  0.1676
  131loPI   C1A 2087   2.638   6.077   9.157 -0.0857  0.0686 -0.0495
  131loPI   C2A 2088   2.663   6.356   8.710 -0.0183  0.2395 -0.2087
  131loPI   C3A 2089   2.441   6.452   8.434 -0.3188  0.0865  0.2846
  131loPI   C4A 2090   2.298   6.358   8.042  0.2145 -0.0327  0.0705
  131loPI   C5A 2091   2.161   6.169   7.639 -0.0050  0.0371 -0.0329
  131loPI   C6A 2092   1.832   5.875   7.628 -0.2275 -0.0106 -0.1770
  131loPI   C1B 2093   2.240   5.516   9.056  0.0021 -0.0929 -0.1447
  131loPI   C2B 2094   2.282   5.577   8.654  0.3901 -0.2176 -0.3852
  131loPI   C3B 2095   2.271   5.480   8.187 -0.1932  0.1125 -0.1852
  131loPI   C4B 2096   2.146   5.517   7.806  0.1689 -0.0972 -0.0569
  132loPI    C1 2097  13.269  13.900  10.339  0.1418  0.2191  0.0338
  132loPI    C2 2098  13.116  14.138  10.621  0.0175  0.0598  0.1020
  132loPI    C3 2099  13.238  13.769  10.715 -0.0853 -0.0176 -0.0643
  132loPI   PO4 2100  13.124  13.979  10.127  0.2652  0.3323 -0.0111
  132loPI   GL1 2101  13.196  14.085   9.724 -0.2085 -0.2485 -0.1208
  132loPI   GL2 2102  13.552  14.262   9.816  0.0652 -0.1318 -0.0410
  132loPI   C1A 2103  13.245  13.951   9.344  0.0085 -0.1690 -0.0267
  132loPI   C2A 2104  13.270  13.924   8.991  0.2473  0.2782  0.0377
  132loPI   C3A 2105  13.182  13.701   8.640 -0.1452  0.3565  0.0205
  132loPI   C4A 2106  13.015  13.516   8.279  0.2484  0.1426  0.1761
  132loPI   C5A 2107  13.061  13.283   7.848 -0.0672  0.1118  0.3421
  132loPI   C6A 2108  12.939  13.150   7.522  0.3656  0.1512  0.0302
  132loPI   C1B 2109  13.784  14.473   9.506  0.0434 -0.0385 -0.1978
  132loPI   C2B 2110  13.995  14.623   9.156  0.2111  0.1544  0.1733
  132loPI   C3B 2111  14.041  14.455   8.760 -0.1470 -0.2809  0.0287
  132loPI   C4B 2112  14.000  14.188   8.452 -0.1111 -0.3014  0.2250
  133loPI    C1 2113   1.059   4.265  10.743 -0.0814  0.1711  0.0339
  133loPI    C2 2114   0.867   4.405  11.065 -0.2131  0.0079  0.0275
  133loPI    C3 2115   1.111   4.090  11.098  0.0981  0.2465  0.0456
  133loPI   PO4 2116   0.961   4.270  10.559  0.0242  0.0103  0.2152
  133loPI   GL1 2117   0.896   4.016  10.202  0.0521  0.0952  0.1406
  133loPI   GL2 2118   1.187   3.958  10.206  0.3174  0.0450 -0.0260
  133loPI   C1A 2119   0.997   4.042   9.721  0.2673  0.0108 -0.2309
  133loPI   C2A 2120   0.957   3.948   9.319 -0.2567 -0.0388  0.2337
  133loPI   C3A 2121   0.922   3.952   8.862  0.2158 -0.3000  0.0242
  133loPI   C4A 2122   1.119   4.042   8.519 -0.1976  0.0317  0.0397
  133loPI   C5A 2123   1.319   4.198   8.055  0.0385 -0.0134  0.0525
  133loPI   C6A 2124   1.392   4.173   7.619  0.1331 -0.1498  0.1001
  133loPI   C1B 2125   1.482   4.041   9.836 -0.1237  0.2225 -0.0963
  133loPI   C2B 2126   1.478   3.853   9.415  0.2085 -0.2039  0.0319
  133loPI   C3B 2127   1.435   3.895   8.958 -0.1163  0.2953 -0.0513
  133loPI   C4B 2128   1.623   4.051   8.664  0.2707 -0.0101 -0.2812
  134loPI    C1 2129   0.728  12.732  10.633 -0.0374 -0.0727  0.2176
  134loPI    C2 2130   0.694  12.475  10.937 -0.2059  0.1149  0.3600
  134loPI    C3 2131   0.571  12.854  10.980 -0.1611  0.1633  0.0823
  134loPI   PO4 2132   0.965  12.572  10.468  0.0290  0.0939 -0.1952
  134loPI   GL1 2133   1.065  12.567  10.129 -0.3566 -0.1981  0.2412
  134loPI   GL2 2134   1.159  12.232  10.053 -0.0351 -0.1325 -0.0447
  134loPI   C1A 2135   1.444  12.907   9.849  0.2039 -0.1111  0.2211
  134loPI   C2A 2136   1.356  12.779   9.438  0.0292  0.0632  0.3217
  134loPI   C3A 2137   1.556  12.756   9.018 -0.0876 -0.1012 -0.2149
  134loPI   C4A 2138   1.441  12.771   8.698 -0.1316 -0.0264  0.1338
  134loPI   C5A 2139   1.503  13.112   8.331  0.1358  0.2192 -0.3014
  134loPI   C6A 2140   1.247  13.357   7.941  0.1803 -0.0131 -0.0361
  134loPI   C1B 2141   1.427  12.306   9.744 -0.3258 -0.2490 -0.0299
  134loPI   C2B 2142   1.326  12.291   9.303 -0.3022  0.4166  0.0566
  134loPI   C3B 2143   1.206  12.304   8.918  0.2121 -0.1514 -0.1321
  134loPI   C4B 2144   1.165  12.385   8.508  0.3904 -0.2713  0.1121
  135loPI    C1 2145  12.068  12.719  10.658  0.0428 -0.1566  0.3207
  135loPI    C2 2146  12.296  12.964  10.439 -0.2623 -0.2583 -0.1261
  135loPI    C3 2147  12.051  13.114  10.718 -0.1903 -0.0860 -0.1539
  135loPI   PO4 2148  11.995  12.552  10.487  0.1557 -0.1331  0.1778
  135loPI   GL1 2149  12.045  12.328  10.066 -0.1805  0.0891 -0.0499
  135loPI   GL2 2150  12.314  12.599  10.055  0.2071  0.1699 -0.2527
  135loPI   C1A 2151  12.003  12.460   9.610 -0.1116 -0.2920  0.0827
  135loPI   C2A 2152  11.863  12.538   9.204 -0.0057 -0.1257  0.3807
  135loPI   C3A 2153  11.685  12.580   8.793 -0.0963  0.0613  0.0068
  135loPI   C4A 2154  11.644  12.806   8.367  0.1648  0.2982  0.1104
  135loPI   C5A 2155  11.584  12.751   7.912  0.0063 -0.0514  0.0887
  135loPI   C6A 2156  11.473  12.409   7.629 -0.3976  0.1975 -0.0182
  135loPI   C1B 2157  12.459  12.769   9.708  0.0845  0.2265  0.1172
  135loPI   C2B 2158  12.453  12.718   9.337 -0.1552  0.1949  0.0852
  135loPI   C3B 2159  12.300  12.798   8.992 -0.0327  0.1961 -0.0270
  135loPI   C4B 2160  12.102  12.891   8.662  0.1626  0.2835 -0.2041
  136loPI    C1 2161   6.224   1.329  10.140 -0.2093 -0.1308  0.0292
  136loPI    C2 2162   6.140   1.490  10.496  0.3688 -0.0256  0.1284
  136loPI    C3 2163   6.320   1.710  10.215  0.0266 -0.1439 -0.1905
  136loPI   PO4 2164   6.303   1.072  10.156  0.1951  0.2352  0.1861
  136loPI   GL1 2165   6.295   0.869   9.839 -0.3461  0.1604 -0.1085
  136loPI   GL2 2166   6.523   0.894   9.677 -0.1964  0.1846 -0.2905
  136loPI   C1A 2167   6.100   1.092   9.439  0.2553  0.0964  0.2170
  136loPI   C2A 2168   6.061   1.070   8.921 -0.2003  0.1405 -0.0979
  136loPI   C3A 2169   6.055   0.980   8.447  0.0271 -0.0169 -0.2817
  136loPI   C4A 2170   5.907   0.917   8.058  0.0616  0.2453  0.2318
  136loPI   C5A 2171   6.027   0.840   7.628  0.1848  0.1184 -0.3632
  136loPI   C6A 2172   5.806   0.814   7.233 -0.3944 -0.0926 -0.0508
  136loPI   C1B 2173   6.499   0.983   9.194  0.1122  0.0682 -0.3968
  136loPI   C2B 2174   6.575   0.911   8.745  0.0957 -0.1245 -0.1387
  136loPI   C3B 2175   6.558   0.885   8.268  0.1237  0.0031  0.2807
  136loPI   C4B 2176   6.630   0.911   7.857 -0.0158 -0.0060  0.1749
  137loPI    C1 2177   1.097   5.303  10.220 -0.1288  0.2930 -0.1162
  137loPI    C2 2178   1.284   5.494  10.517  0.0937 -0.1529  0.0391
  137loPI    C3 2179   0.920   5.338  10.577  0.0370 -0.0359  0.0023
  137loPI   PO4 2180   1.102   5.378  10.031 -0.0540 -0.2387 -0.1047
  137loPI   GL1 2181   0.973   5.366   9.620  0.4114  0.0806  0.1027
  137loPI   GL2 2182   1.322   5.181   9.570  0.1127 -0.0595 -0.0807
  137loPI   C1A 2183   0.812   5.433   9.116  0.0746 -0.1785  0.2038
  137loPI   C2A 2184   0.674   5.233   8.715 -0.2056  0.0163 -0.0031
  137loPI   C3A 2185   0.766   5.367   8.344 -0.4370 -0.0157 -0.1806
  137loPI   C4A 2186   0.563   5.359   8.016  0.0805  0.0177 -0.0012
  137loPI   C5A 2187   0.294   5.663   7.847  0.0394 -0.0783 -0.0168
  137loPI   C6A 2188   0.079   6.040   7.881  0.0779 -0.1603  0.0558
  137loPI   C1B 2189   1.279   5.446   9.168 -0.2064 -0.1046  0.0922
  137loPI   C2B 2190   1.237   5.372   8.761  0.1656 -0.2266 -0.0316
  137loPI   C3B 2191   1.324   5.513   8.336  0.1016 -0.2465 -0.3949
  137loPI   C4B 2192   1.275   5.354   7.984 -0.0660 -0.1273 -0.0817
  138loPI    C1 2193   9.851  10.086  10.583 -0.2454 -0.1387  0.0190
  138loPI    C2 2194   9.603  10.375  10.703 -0.0930 -0.1299  0.3235
  138loPI    C3 2195   9.988  10.386  10.808  0.0180 -0.1975 -0.0594
  138loPI   PO4 2196   9.814  10.080  10.297  0.1396  0.1608 -0.1685
  138loPI   GL1 2197   9.607  10.044   9.923 -0.1094  0.1867 -0.1676
  138loPI   GL2 2198   9.479  10.319   9.709 -0.1931  0.1149 -0.0182
  138loPI   C1A 2199   9.594   9.891   9.500 -0.2189 -0.0708 -0.1587
  138loPI   C2A 2200   9.790   9.850   9.051  0.1154 -0.0311  0.1533
  138loPI   C3A 2201   9.879   9.948   8.570  0.1246  0.1099 -0.3226
  138loPI   C4A 2202   9.877   9.793   8.143 -0.0788 -0.0724  0.3525
  138loPI   C5A 2203   9.921   9.707   7.737 -0.1171 -0.1971  0.1169
  138loPI   C6A 2204   9.783   9.994   7.480 -0.2657 -0.2205  0.1992
  138loPI   C1B 2205   9.435  10.321   9.209  0.2026 -0.1229 -0.1032
  138loPI   C2B 2206   9.509  10.233   8.897  0.1098  0.3771  0.3485
  138loPI   C3B 2207   9.444  10.184   8.419  0.0261 -0.0883  0.1591
  138loPI   C4B 2208   9.525  10.193   7.959 -0.2091 -0.1395 -0.3268
  139loPI    C1 2209   2.219  17.928  11.148  0.2206  0.0059 -0.3697
  139loPI    C2 2210   2.356  17.949  11.523  0.0867  0.1802 -0.3294
  139loPI    C3 2211   2.354  17.598  11.331 -0.0169  0.0537 -0.1016
  139loPI   PO4 2212   2.278  18.015  10.925  0.3671 -0.0279  0.0416
  139loPI   GL1 2213   2.268  17.850  10.543  0.0555 -0.1302  0.5150
  139loPI   GL2 2214   2.359  17.620  10.507  0.0417 -0.1023  0.1891
  139loPI   C1A 2215   2.183  18.202  10.224  0.2254  0.1411 -0.4166
  139loPI   C2A 2216   2.118  18.286   9.737  0.1609  0.1017 -0.3114
  139loPI   C3A 2217   2.164  18.207   9.270 -0.1893 -0.0655 -0.4164
  139loPI   C4A 2218   2.200  18.174   8.966  0.3579 -0.2399 -0.0589
  139loPI   C5A 2219   2.280  18.186   8.621  0.1499  0.3187  0.1960
  139loPI   C6A 2220   2.171  18.302   8.220  0.0359  0.1075  0.4194
  139loPI   C1B 2221   2.356  17.777  10.063 -0.5097 -0.1015 -0.3255
  139loPI   C2B 2222   2.359  17.824   9.589 -0.1591  0.1687  0.0835
  139loPI   C3B 2223   2.420  17.652   9.139  0.3652 -0.2140  0.3071
  139loPI   C4B 2224   2.355  17.651   8.667  0.0463 -0.0921 -0.1161
  140loPI    C1 2225  15.035   3.640  10.561 -0.0908 -0.0205  0.0609
  140loPI    C2 2226  14.641   3.582  10.528 -0.0625 -0.2274  0.0710
  140loPI    C3 2227  14.836   3.451  10.851 -0.0213  0.0780  0.1736
  140loPI   PO4 2228  15.045   3.768  10.271  0.2336  0.0503  0.1027
  140loPI   GL1 2229  15.027   3.836   9.870 -0.1458  0.0981  0.3465
  140loPI   GL2 2230  15.297   3.899   9.633  0.1037 -0.1079  0.0240
  140loPI   C1A 2231  15.002   3.700   9.359 -0.4435 -0.0283 -0.1593
  140loPI   C2A 2232  15.045   3.691   8.966 -0.2061 -0.0297  0.3198
  140loPI   C3A 2233  14.999   3.785   8.591 -0.0808 -0.1402  0.1892
  140loPI   C4A 2234  14.881   3.752   8.251  0.0185 -0.1882  0.0092
  140loPI   C5A 2235  15.161   3.787   8.024  0.2574  0.2275  0.0729
  140loPI   C6A 2236  15.253   3.949   7.617 -0.2287 -0.1812 -0.0063
  140loPI   C1B 2237  15.488   3.710   9.272 -0.0618  0.2059 -0.0709
  140loPI   C2B 2238  15.540   3.685   8.789 -0.0946 -0.2916 -0.1230
  140loPI   C3B 2239  15.511   3.683   8.399 -0.4289 -0.0811 -0.3266
  140loPI   C4B 2240  15.816   3.701   8.078  0.0328  0.1123 -0.1551
  141loPI    C1 2241   5.255   0.302  10.441  0.1706 -0.0802  0.1024
  141loPI    C2 2242   5.161   0.007  10.693  0.1861 -0.0129  0.1875
  141loPI    C3 2243   5.037   0.380  10.767 -0.2121 -0.0710 -0.1489
  141loPI   PO4 2244   5.191   0.200  10.233  0.3820 -0.1477  0.1992
  141loPI   GL1 2245   5.020  -0.002   9.910  0.1794  0.1190  0.3843
  141loPI   GL2 2246   4.764   0.219   9.951 -0.1263  0.1733 -0.3395
  141loPI   C1A 2247   5.146  -0.341   9.678 -0.3480 -0.1338  0.2981
  141loPI   C2A 2248   5.192  -0.306   9.296 -0.0095 -0.1616  0.2395
  141loPI   C3A 2249   5.099  -0.273   8.806  0.1669  0.2720 -0.1818
  141loPI   C4A 2250   5.191  -0.276   8.385  0.0884  0.2294 -0.0512
  141loPI   C5A 2251   5.250  -0.265   7.903  0.0554  0.1881 -0.1366
  141loPI   C6A 2252   5.169  -0.311   7.437  0.1963  0.0509  0.0118
  141loPI   C1B 2253   4.887   0.295   9.493 -0.1420 -0.0975 -0.0303
  141loPI   C2B 2254   4.895   0.153   9.058  0.0227 -0.3658 -0.3850
  141loPI   C3B 2255   4.953   0.143   8.622  0.1268  0.1359 -0.0012
  141loPI   C4B 2256   4.932   0.102   8.241 -0.1270  0.0152 -0.0527
  142loPI    C1 2257   4.344   3.951  10.198 -0.1457 -0.0480  0.0983
  142loPI    C2 2258   4.341   3.572  10.325  0.2214 -0.0225  0.1963
  142loPI    C3 2259   4.284   3.871  10.585 -0.2414 -0.0117  0.0911
  142loPI   PO4 2260   4.396   3.907   9.954 -0.0729  0.0837  0.2398
  142loPI   GL1 2261   4.593   3.674   9.646 -0.1118  0.0987  0.1707
  142loPI   GL2 2262   4.529   3.426   9.880  0.0047 -0.1475  0.1253
  142loPI   C1A 2263   4.482   3.656   9.241  0.1608 -0.0970  0.0647
  142loPI   C2A 2264   4.334   3.782   8.842  0.1340 -0.0265 -0.2875
  142loPI   C3A 2265   4.194   3.876   8.394  0.1802  0.3820  0.3698
  142loPI   C4A 2266   4.372   3.899   7.987 -0.3033 -0.0903  0.0008
  142loPI   C5A 2267   4.313   3.867   7.499  0.2120 -0.0736 -0.2207
  142loPI   C6A 2268   4.008   3.710   7.309 -0.0147 -0.0591 -0.0398
  142loPI   C1B 2269   4.318   3.235   9.500  0.4168  0.0177  0.2690
  142loPI   C2B 2270   4.258   3.184   9.011 -0.0200 -0.0781 -0.2041
  142loPI   C3B 2271   4.348   3.311   8.662  0.0168  0.0120  0.0028
  142loPI   C4B 2272   4.526   3.450   8.365  0.1336  0.0061 -0.1733
  143loPI    C1 2273   3.470   5.460  10.372 -0.0203  0.0570 -0.2924
  143loPI    C2 2274   3.160   5.702  10.444  0.0184  0.0037  0.0705
  143loPI    C3 2275   3.450   5.662  10.716  0.5568  0.3648 -0.4268
  143loPI   PO4 2276   3.364   5.367   9.978 -0.2941  0.1528  0.2588
  143loPI   GL1 2277   3.401   5.195   9.572  0.0012 -0.0856 -0.0716
  143loPI   GL2 2278   3.498   4.853   9.708 -0.0976  0.0426  0.2197
  143loPI   C1A 2279   3.507   5.508   9.303 -0.0970  0.0977 -0.0496
  143loPI   C2A 2280   3.459   5.633   8.894  0.0983  0.0070 -0.1215
  143loPI   C3A 2281   3.641   5.670   8.489 -0.0123 -0.1039 -0.0625
  143loPI   C4A 2282   3.557   5.655   7.999  0.2743 -0.0991  0.1122
  143loPI   C5A 2283   3.378   5.770   7.544 -0.2063 -0.5396  0.0363
  143loPI   C6A 2284   3.424   6.085   7.211 -0.0146  0.5703  0.0010
  143loPI   C1B 2285   3.406   4.773   9.305 -0.2753  0.3682  0.1113
  143loPI   C2B 2286   3.417   4.688   8.866  0.3226  0.0946  0.1756
  143loPI   C3B 2287   3.304   4.868   8.486  0.1668 -0.3744  0.1483
  143loPI   C4B 2288   3.556   4.770   8.130 -0.0674  0.0551  0.2960
  144loPI    C1 2289  17.269   7.358  10.339 -0.0822  0.2656  0.1759
  144loPI    C2 2290  17.598   7.284  10.554  0.0804  0.2305 -0.0808
  144loPI    C3 2291  17.266   7.415  10.735  0.1451 -0.0099  0.2205
  144loPI   PO4 2292  17.234   7.510  10.118 -0.0087  0.1627  0.0214
  144loPI   GL1 2293  17.239   7.422   9.710  0.0064 -0.1732  0.0165
  144loPI   GL2 2294  17.566   7.530   9.648 -0.2340 -0.5209  0.1013
  144loPI   C1A 2295  17.071   7.260   9.383  0.0581 -0.1364  0.3646
  144loPI   C2A 2296  17.150   7.180   8.959  0.1641 -0.2504  0.1122
  144loPI   C3A 2297  17.181   7.151   8.512  0.3271  0.1512 -0.0740
  144loPI   C4A 2298  17.177   7.082   8.101  0.1379  0.0057 -0.2653
  144loPI   C5A 2299  17.478   7.092   7.803 -0.2936  0.1697 -0.0748
  144loPI   C6A 2300  17.959   7.233   7.819  0.1928 -0.2479  0.5221
  144loPI   C1B 2301  17.596   7.568   9.259 -0.3189 -0.2725 -0.2406
  144loPI   C2B 2302  17.483   7.612   8.962 -0.1025 -0.0446 -0.0507
  144loPI   C3B 2303  17.605   7.696   8.628 -0.0113 -0.1251  0.1612
  144loPI   C4B 2304  17.776   7.995   8.446  0.2385  0.1767 -0.0700
  145loPI    C1 2305   6.380   2.597  10.610  0.0095 -0.0612 -0.0746
  145loPI    C2 2306   6.718   2.464  10.779  0.0936  0.0863 -0.1245
  145loPI    C3 2307   6.367   2.412  10.964  0.1509 -0.0110 -0.0422
  145loPI   PO4 2308   6.525   2.587  10.320  0.0878  0.0410  0.0667
  145loPI   GL1 2309   6.412   2.687   9.880 -0.0892 -0.3500  0.4313
  145loPI   GL2 2310   6.542   2.439   9.778 -0.1215 -0.2505  0.1973
  145loPI   C1A 2311   6.063   2.542   9.460 -0.0551  0.2226 -0.1429
  145loPI   C2A 2312   5.965   2.456   8.992 -0.1213 -0.2144 -0.0819
  145loPI   C3A 2313   6.010   2.430   8.640  0.0855  0.2113  0.1898
  145loPI   C4A 2314   5.894   2.384   8.210 -0.1863 -0.0842 -0.1251
  145loPI   C5A 2315   6.071   2.104   7.843  0.0115  0.0526  0.1922
  145loPI   C6A 2316   6.106   1.693   7.738 -0.1006  0.0153 -0.0488
  145loPI   C1B 2317   6.417   2.274   9.373  0.0927  0.0134 -0.0388
  145loPI   C2B 2318   6.469   2.380   9.038 -0.0502 -0.0651 -0.2831
  145loPI   C3B 2319   6.475   2.358   8.612  0.1516 -0.1872 -0.2482
  145loPI   C4B 2320   6.369   2.237   8.204  0.2393 -0.0421  0.0302
  146loPI    C1 2321   1.934   6.369  10.566  0.0885  0.0431  0.0974
  146loPI    C2 2322   1.637   6.599  10.704 -0.0292 -0.0919  0.0706
  146loPI    C3 2323   1.716   6.248  10.879  0.1837 -0.0089  0.1440
  146loPI   PO4 2324   2.039   6.556  10.321 -0.3391 -0.2416  0.1265
  146loPI   GL1 2325   2.104   6.518   9.925  0.0663 -0.1487  0.1975
  146loPI   GL2 2326   1.979   6.292   9.699  0.2835 -0.0786  0.1316
  146loPI   C1A 2327   2.094   6.786   9.585 -0.0334 -0.1917  0.0634
  146loPI   C2A 2328   1.896   6.997   9.165 -0.0020  0.1463  0.2155
  146loPI   C3A 2329   1.765   7.315   8.883 -0.1237  0.0963  0.1634
  146loPI   C4A 2330   1.446   7.528   8.639 -0.1106  0.3110  0.0798
  146loPI   C5A 2331   1.410   7.524   8.142 -0.5104  0.0905  0.0136
  146loPI   C6A 2332   1.536   7.344   7.752  0.0065  0.0466  0.3025
  146loPI   C1B 2333   1.857   6.486   9.292  0.1758  0.2122 -0.0629
  146loPI   C2B 2334   1.598   6.245   9.130 -0.0447  0.0855 -0.1217
  146loPI   C3B 2335   1.536   6.375   8.744 -0.1754 -0.3197  0.2677
  146loPI   C4B 2336   1.761   6.429   8.289 -0.1348  0.2089 -0.0345
  147loPI    C1 2337   8.409   4.323   9.890 -0.2362 -0.2639 -0.0908
  147loPI    C2 2338   8.667   4.090   9.691 -0.0611 -0.0811 -0.0812
  147loPI    C3 2339   8.517   3.970  10.042 -0.0649 -0.2308 -0.1337
  147loPI   PO4 2340   8.294   4.450   9.668 -0.2185 -0.2237  0.2425
  147loPI   GL1 2341   8.333   4.548   9.277 -0.1100 -0.1906 -0.1989
  147loPI   GL2 2342   8.320   4.866   9.336 -0.0750 -0.0524  0.1641
  147loPI   C1A 2343   8.221   4.470   8.774  0.1251  0.0607 -0.0223
  147loPI   C2A 2344   8.028   4.666   8.519  0.0390 -0.3333 -0.2144
  147loPI   C3A 2345   7.995   4.653   8.075 -0.3002  0.2022 -0.2683
  147loPI   C4A 2346   8.049   4.594   7.664  0.0576  0.1435  0.1389
  147loPI   C5A 2347   8.110   4.486   7.276  0.1301  0.0360  0.2275
  147loPI   C6A 2348   8.495   4.495   7.047 -0.0905 -0.0273 -0.1201
  147loPI   C1B 2349   8.429   4.858   8.910  0.0550 -0.2589 -0.0811
  147loPI   C2B 2350   8.499   4.804   8.460  0.0661 -0.3752  0.1582
  147loPI   C3B 2351   8.649   4.690   8.078 -0.1713  0.3294 -0.1113
  147loPI   C4B 2352   8.851   4.651   7.612  0.0321 -0.1131 -0.0484
  148loPI    C1 2353   8.510  12.934  11.271 -0.0437  0.0299 -0.1135
  148loPI    C2 2354   8.613  12.597  11.460 -0.3369 -0.1065 -0.1906
  148loPI    C3 2355   8.396  12.874  11.650 -0.1374  0.0191 -0.1431
  148loPI   PO4 2356   8.444  12.892  11.069 -0.0451  0.3488 -0.0236
  148loPI   GL1 2357   8.416  12.733  10.618  0.0857  0.0586  0.2051
  148loPI   GL2 2358   8.643  12.877  10.352  0.0063 -0.0946  0.0683
  148loPI   C1A 2359   7.995  12.802  10.366 -0.0321 -0.1418  0.3035
  148loPI   C2A 2360   7.764  13.024  10.103  0.0031 -0.1060  0.2433
  148loPI   C3A 2361   7.562  13.149   9.667 -0.0554  0.0026 -0.0075
  148loPI   C4A 2362   7.506  13.217   9.228  0.1863 -0.2937  0.0242
  148loPI   C5A 2363   7.448  13.163   8.768 -0.3786 -0.1060  0.4522
  148loPI   C6A 2364   7.566  12.952   8.342  0.2693 -0.0025 -0.3333
  148loPI   C1B 2365   8.275  12.998   9.981  0.0688 -0.1844 -0.3668
  148loPI   C2B 2366   8.060  13.349   9.789 -0.0955 -0.0287 -0.0325
  148loPI   C3B 2367   8.013  13.253   9.352 -0.0428 -0.0534 -0.0649
  148loPI   C4B 2368   8.309  13.199   8.957 -0.2259 -0.0298  0.1825
  149loPI    C1 2369   5.892   6.496   9.963 -0.1852  0.0382  0.1163
  149loPI    C2 2370   5.686   6.279  10.228 -0.0119 -0.2871 -0.0090
  149loPI    C3 2371   6.078   6.216  10.181  0.0728  0.1594  0.0561
  149loPI   PO4 2372   5.707   6.614   9.842 -0.2213  0.0534 -0.2717
  149loPI   GL1 2373   5.796   6.767   9.463  0.0439 -0.0569 -0.0329
  149loPI   GL2 2374   5.616   6.476   9.283 -0.3302  0.1148 -0.0204
  149loPI   C1A 2375   5.467   6.946   9.193  0.4043 -0.1895 -0.0778
  149loPI   C2A 2376   5.476   7.109   8.844  0.3950  0.4332 -0.0467
  149loPI   C3A 2377   5.472   7.199   8.407 -0.0474  0.3934  0.2730
  149loPI   C4A 2378   5.538   7.113   7.941  0.1345 -0.0873 -0.1778
  149loPI   C5A 2379   5.412   7.254   7.540  0.1481  0.0454  0.1495
  149loPI   C6A 2380   5.116   7.279   7.318 -0.0895  0.0281 -0.0151
  149loPI   C1B 2381   5.642   6.628   8.906  0.1969 -0.3758  0.0111
  149loPI   C2B 2382   5.432   6.685   8.490 -0.1872  0.6345 -0.3939
  149loPI   C3B 2383   5.336   6.652   8.044  0.2202 -0.1122 -0.0794
  149loPI   C4B 2384   5.273   6.766   7.629 -0.2302  0.0238 -0.3067
  150loPI    C1 2385   5.853   4.676   9.880 -0.1633 -0.1498 -0.1275
  150loPI    C2 2386   6.030   4.922  10.142 -0.0618 -0.1248 -0.2189
  150loPI    C3 2387   5.636   4.950  10.075 -0.1109 -0.2130  0.0218
  150loPI   PO4 2388   6.125   4.643   9.590  0.1994  0.0641  0.2113
  150loPI   GL1 2389   6.314   4.513   9.338  0.0432 -0.1886 -0.1438
  150loPI   GL2 2390   6.660   4.610   9.344  0.0329 -0.1109  0.0162
  150loPI   C1A 2391   6.480   4.647   8.825 -0.1170 -0.2919 -0.0128
  150loPI   C2A 2392   6.308   4.889   8.426 -0.1005  0.0096 -0.1276
  150loPI   C3A 2393   6.230   5.002   8.071  0.0327 -0.0851 -0.0731
  150loPI   C4A 2394   6.308   5.080   7.623  0.2077 -0.0237 -0.1911
  150loPI   C5A 2395   6.309   5.230   7.216  0.1568 -0.0744  0.0348
  150loPI   C6A 2396   6.484   5.442   6.941 -0.0519  0.0788 -0.1180
  150loPI   C1B 2397   6.733   5.022   9.086 -0.0826  0.1369 -0.2996
  150loPI   C2B 2398   6.855   5.052   8.717  0.1745  0.1458 -0.1885
  150loPI   C3B 2399   6.789   4.935   8.330  0.0006  0.0578  0.2391
  150loPI   C4B 2400   6.645   4.758   8.005 -0.2249 -0.3246  0.1025
  151loPI    C1 2401   5.282   5.223   9.855 -0.2964  0.0323  0.0749
  151loPI    C2 2402   5.042   4.993  10.077 -0.3826  0.1732  0.1290
  151loPI    C3 2403   5.150   5.355  10.209  0.1127 -0.0101  0.2491
  151loPI   PO4 2404   5.365   4.975   9.695  0.1543 -0.1834  0.2967
  151loPI   GL1 2405   5.689   4.703   9.325  0.0082 -0.3867  0.1199
  151loPI   GL2 2406   5.738   4.462   9.152 -0.2738  0.1526 -0.1239
  151loPI   C1A 2407   5.310   4.835   9.029 -0.2937 -0.3921 -0.1536
  151loPI   C2A 2408   5.332   4.829   8.570  0.0460 -0.0068 -0.0649
  151loPI   C3A 2409   5.479   4.726   8.139 -0.0838  0.1746  0.1920
  151loPI   C4A 2410   5.796   4.839   7.855 -0.1052 -0.1341 -0.0281
  151loPI   C5A 2411   5.891   4.813   7.391 -0.1012  0.0525  0.0339
  151loPI   C6A 2412   6.018   4.988   6.944 -0.0292 -0.1185  0.1616
  151loPI   C1B 2413   5.595   4.212   8.835  0.1676 -0.0606 -0.2510
  151loPI   C2B 2414   5.437   4.173   8.414 -0.0653  0.0728 -0.1277
  151loPI   C3B 2415   5.610   4.251   8.015 -0.2653  0.1402  0.0877
  151loPI   C4B 2416   5.491   4.466   7.608 -0.0666  0.1124  0.1648
  152loPI    C1 2417  18.061  15.972  10.850  0.0335  0.2493 -0.2204
  152loPI    C2 2418  18.287  16.237  11.047  0.0920 -0.0418  0.1153
  152loPI    C3 2419  17.953  16.096  11.215  0.0690 -0.1930 -0.0534
  152loPI   PO4 2420  18.037  16.039  10.682  0.1023  0.1327  0.0861
  152loPI   GL1 2421  18.143  16.001  10.335  0.0299 -0.0080 -0.0434
  152loPI   GL2 2422  17.859  16.099  10.161  0.3239 -0.1410  0.0643
  152loPI   C1A 2423  18.303  16.203   9.912  0.2794  0.3241  0.3349
  152loPI   C2A 2424  18.390  16.218   9.510 -0.0528 -0.2319  0.0074
  152loPI   C3A 2425  18.415  16.249   9.090  0.3301 -0.2175  0.3079
  152loPI   C4A 2426  18.422  16.204   8.583 -0.1350 -0.0243 -0.2000
  152loPI   C5A 2427  18.230  16.293   8.099 -0.0906 -0.1174 -0.1743
  152loPI   C6A 2428  17.778  16.263   8.016  0.1984  0.0444  0.1958
  152loPI   C1B 2429  17.803  16.252   9.766  0.1092 -0.0238  0.0661
  152loPI   C2B 2430  17.834  16.300   9.378 -0.0397  0.0501 -0.1593
  152loPI   C3B 2431  17.968  16.312   8.885  0.0072 -0.0757 -0.0757
  152loPI   C4B 2432  17.926  16.385   8.518  0.1413  0.1280 -0.3583
  153loPI    C1 2433   9.546   2.958  10.318 -0.0954 -0.0111 -0.0673
  153loPI    C2 2434   9.289   2.761  10.553  0.0970 -0.1407  0.0372
  153loPI    C3 2435   9.680   2.757  10.637  0.1352  0.0496 -0.1245
  153loPI   PO4 2436   9.504   2.838  10.113 -0.3892 -0.1975  0.0853
  153loPI   GL1 2437   9.565   2.904   9.673 -0.3080  0.2689 -0.0434
  153loPI   GL2 2438   9.730   2.573   9.396  0.0926 -0.2241  0.0869
  153loPI   C1A 2439   9.359   2.903   9.220 -0.1531 -0.1706  0.3404
  153loPI   C2A 2440   9.530   2.811   8.847  0.0906  0.0172 -0.2433
  153loPI   C3A 2441   9.268   2.800   8.484 -0.3686  0.0627 -0.0499
  153loPI   C4A 2442   8.993   2.926   8.084  0.2752 -0.0680 -0.0699
  153loPI   C5A 2443   8.686   2.898   8.042  0.0068  0.2854 -0.3477
  153loPI   C6A 2444   8.299   3.026   7.727 -0.2251  0.3599  0.7686
  153loPI   C1B 2445   9.629   2.363   8.988  0.0078  0.2221  0.1774
  153loPI   C2B 2446   9.578   2.421   8.585 -0.0856  0.1187  0.0736
  153loPI   C3B 2447   9.509   2.167   8.292  0.1794 -0.0643  0.3197
  153loPI   C4B 2448   9.528   2.075   7.821  0.0119 -0.1254 -0.3996
  154loPI    C1 2449  16.983  13.378  10.760  0.0167  0.0797 -0.0358
  154loPI    C2 2450  16.997  13.696  10.519  0.2339  0.0866 -0.0163
  154loPI    C3 2451  16.730  13.682  10.816  0.2261  0.2523 -0.0147
  154loPI   PO4 2452  16.995  13.187  10.539 -0.1615 -0.2151 -0.0976
  154loPI   GL1 2453  17.415  13.120  10.250 -0.1400 -0.0877  0.1040
  154loPI   GL2 2454  17.694  13.294  10.262 -0.2635  0.2975  0.3670
  154loPI   C1A 2455  17.343  13.037   9.945  0.1854 -0.0149  0.2487
  154loPI   C2A 2456  17.514  12.948   9.549  0.0878 -0.1347  0.0463
  154loPI   C3A 2457  17.830  12.993   9.214 -0.3133  0.3092 -0.2087
  154loPI   C4A 2458  17.851  13.140   8.711  0.1538  0.2116  0.1132
  154loPI   C5A 2459  17.534  13.064   8.382  0.1595  0.0185 -0.0644
  154loPI   C6A 2460  17.211  12.834   8.367  0.0579  0.0515  0.0440
  154loPI   C1B 2461  17.650  13.403   9.798  0.0361  0.1802  0.1184
  154loPI   C2B 2462  17.651  13.410   9.420 -0.3426 -0.1280  0.1837
  154loPI   C3B 2463  17.311  13.616   9.293 -0.0105 -0.1783 -0.3744
  154loPI   C4B 2464  16.978  13.546   9.647 -0.2448 -0.1900  0.0370
  155loPI    C1 2465  16.693  16.580  10.559 -0.2279 -0.0788 -0.3180
  155loPI    C2 2466  16.309  16.589  10.672 -0.1041 -0.0574  0.1199
  155loPI    C3 2467  16.596  16.516  10.941  0.2038 -0.0513 -0.1983
  155loPI   PO4 2468  16.668  16.766  10.384 -0.4720  0.0225 -0.1778
  155loPI   GL1 2469  16.706  16.937  10.015  0.0162 -0.5887 -0.1594
  155loPI   GL2 2470  17.032  16.845   9.963  0.2843 -0.1150 -0.1059
  155loPI   C1A 2471  16.679  16.958   9.541  0.0594 -0.2220  0.3838
  155loPI   C2A 2472  16.720  16.971   9.144 -0.2275  0.0798 -0.0608
  155loPI   C3A 2473  16.708  16.888   8.698 -0.0227 -0.1769 -0.0565
  155loPI   C4A 2474  16.775  16.881   8.286 -0.0703  0.3163  0.1158
  155loPI   C5A 2475  16.732  16.909   7.845  0.0213 -0.0853 -0.1654
  155loPI   C6A 2476  17.017  16.845   7.499 -0.1027  0.2434 -0.2689
  155loPI   C1B 2477  17.164  16.830   9.554 -0.1436 -0.0491 -0.0774
  155loPI   C2B 2478  17.179  16.888   9.071 -0.1634  0.0101  0.2223
  155loPI   C3B 2479  17.187  16.996   8.710  0.0142  0.0572 -0.0762
  155loPI   C4B 2480  17.245  16.980   8.266  0.2049  0.0834  0.0799
  156loPI    C1 2481   1.399   3.167  10.838  0.2711 -0.1693 -0.1094
  156loPI    C2 2482   1.498   3.380  11.161 -0.1553 -0.1497  0.0148
  156loPI    C3 2483   1.433   2.987  11.194 -0.1113 -0.1637 -0.0655
  156loPI   PO4 2484   1.343   3.387  10.655  0.1145 -0.2890  0.1482
  156loPI   GL1 2485   1.392   3.448  10.237  0.0533  0.1268 -0.0743
  156loPI   GL2 2486   1.038   3.451  10.242 -0.0458  0.0652  0.2471
  156loPI   C1A 2487   1.233   3.588   9.810 -0.1582  0.4224 -0.1555
  156loPI   C2A 2488   1.086   3.466   9.375  0.0047  0.1691  0.1337
  156loPI   C3A 2489   1.115   3.450   8.888  0.3650  0.1896 -0.2266
  156loPI   C4A 2490   1.027   3.499   8.489 -0.2712 -0.0186  0.1471
  156loPI   C5A 2491   1.087   3.259   8.142  0.0505  0.0442 -0.1090
  156loPI   C6A 2492   1.325   2.958   7.828 -0.0445  0.0402 -0.2023
  156loPI   C1B 2493   0.924   3.194   9.819 -0.0561  0.2920  0.2002
  156loPI   C2B 2494   0.840   3.035   9.417 -0.1158 -0.2949  0.0483
  156loPI   C3B 2495   0.754   3.106   8.966  0.0699 -0.1625  0.0555
  156loPI   C4B 2496   0.701   2.940   8.426  0.0626  0.1307 -0.0814
  157loPI    C1 2497  13.995  10.025  10.388  0.0287  0.0717  0.0845
  157loPI    C2 2498  13.743  10.333  10.429 -0.1683 -0.0622 -0.0957
  157loPI    C3 2499  13.780  10.065  10.723 -0.1273  0.0367 -0.0100
  157loPI   PO4 2500  14.004  10.028  10.041  0.0075 -0.1729  0.0796
  157loPI   GL1 2501  14.187   9.847   9.604  0.2170 -0.1013  0.0381
  157loPI   GL2 2502  14.351  10.065   9.552  0.2320  0.2247  0.2541
  157loPI   C1A 2503  14.131   9.871   9.118 -0.1822 -0.0332  0.0522
  157loPI   C2A 2504  14.268  10.066   8.707 -0.0598  0.0490  0.1456
  157loPI   C3A 2505  14.452  10.307   8.334 -0.1025  0.0902 -0.1672
  157loPI   C4A 2506  14.469  10.310   7.927 -0.2140  0.1585  0.1192
  157loPI   C5A 2507  14.288  10.638   7.685 -0.1975 -0.2004  0.1551
  157loPI   C6A 2508  14.158  10.935   7.454 -0.4222 -0.0216  0.0860
  157loPI   C1B 2509  14.502  10.244   9.160 -0.3147 -0.1217 -0.2565
  157loPI   C2B 2510  14.788  10.306   8.736  0.0185  0.2465 -0.1192
  157loPI   C3B 2511  14.976  10.244   8.319 -0.2066  0.2616  0.0917
  157loPI   C4B 2512  14.934   9.957   7.989  0.1239 -0.0503 -0.1845
  158loPI    C1 2513   4.449  14.121  11.039 -0.1739 -0.0445 -0.0514
  158loPI    C2 2514   4.408  14.517  11.075 -0.3815 -0.0777  0.0975
  158loPI    C3 2515   4.596  14.309  11.360 -0.1471 -0.0700 -0.0488
  158loPI   PO4 2516   4.446  14.182  10.651 -0.2091  0.2868  0.1301
  158loPI   GL1 2517   4.760  14.314  10.368 -0.1739 -0.2157 -0.1847
  158loPI   GL2 2518   4.918  14.052  10.346 -0.1015 -0.0823  0.1922
  158loPI   C1A 2519   4.677  14.585   9.973  0.1759  0.1794 -0.2290
  158loPI   C2A 2520   4.696  14.539   9.604 -0.2720  0.1351 -0.1655
  158loPI   C3A 2521   4.712  14.487   9.242  0.2576 -0.0840 -0.0236
  158loPI   C4A 2522   4.618  14.448   8.861  0.0589 -0.1409  0.0100
  158loPI   C5A 2523   4.765  14.283   8.583 -0.1004 -0.2696  0.1040
  158loPI   C6A 2524   4.535  14.204   8.235  0.0759 -0.2092 -0.2012
  158loPI   C1B 2525   4.821  14.074   9.891  0.3774 -0.3385  0.3169
  158loPI   C2B 2526   4.829  14.053   9.475 -0.1030  0.4030 -0.1911
  158loPI   C3B 2527   4.820  14.052   9.039 -0.2843 -0.0284  0.0426
  158loPI   C4B 2528   5.042  13.877   8.719  0.1941 -0.0772 -0.0479
  159loPI    C1 2529  11.076  10.239  10.480 -0.1362  0.1463  0.0496
  159loPI    C2 2530  10.980  10.453  10.804  0.0543  0.0582  0.1663
  159loPI    C3 2531  11.155  10.096  10.845 -0.3401 -0.1645 -0.0242
  159loPI   PO4 2532  10.900  10.122  10.342  0.1840 -0.0765  0.0690
  159loPI   GL1 2533  11.003  10.250   9.935  0.2915 -0.0550  0.0982
  159loPI   GL2 2534  10.897  10.050   9.823  0.0190 -0.2537  0.0596
  159loPI   C1A 2535  10.917  10.573   9.669 -0.0071  0.0269  0.2667
  159loPI   C2A 2536  11.029  10.723   9.267  0.0377  0.0139  0.2839
  159loPI   C3A 2537  10.883  10.887   8.952 -0.0593 -0.0000 -0.2253
  159loPI   C4A 2538  10.697  11.046   8.588  0.0437  0.0638 -0.0638
  159loPI   C5A 2539  10.600  10.996   8.178  0.1601  0.3086  0.1746
  159loPI   C6A 2540  10.820  10.867   7.841 -0.0526  0.2658  0.0951
  159loPI   C1B 2541  10.947  10.157   9.428  0.3127  0.1711  0.2946
  159loPI   C2B 2542  11.153  10.282   9.050 -0.1132  0.2226  0.0671
  159loPI   C3B 2543  11.211  10.521   8.631  0.3827  0.3132 -0.3107
  159loPI   C4B 2544  11.123  10.927   8.316  0.3062  0.1516  0.0167
  160loPI    C1 2545  16.728  11.245  10.379 -0.1241 -0.0668 -0.0653
  160loPI    C2 2546  16.554  11.489  10.644 -0.1728  0.1159 -0.2630
  160loPI    C3 2547  16.700  11.136  10.763 -0.1948  0.1951  0.0058
  160loPI   PO4 2548  16.657  11.337  10.120  0.0339 -0.0004  0.0875
  160loPI   GL1 2549  16.910  11.364   9.792  0.0654  0.1394  0.0722
  160loPI   GL2 2550  16.946  11.137   9.596  0.1472 -0.1574 -0.1357
  160loPI   C1A 2551  17.149  11.544   9.486  0.0432 -0.0941  0.1485
  160loPI   C2A 2552  17.265  11.447   9.023  0.0708 -0.2441 -0.1282
  160loPI   C3A 2553  17.439  11.276   8.671 -0.1936 -0.1031  0.1055
  160loPI   C4A 2554  17.459  11.186   8.199 -0.2256 -0.3645 -0.2275
  160loPI   C5A 2555  17.876  11.208   8.029  0.1620 -0.0025 -0.0553
  160loPI   C6A 2556  18.106  11.448   7.707 -0.3455 -0.3474 -0.1447
  160loPI   C1B 2557  16.807  11.197   9.125 -0.0843  0.5252 -0.0268
  160loPI   C2B 2558  16.598  11.042   8.764  0.0675  0.0174  0.4277
  160loPI   C3B 2559  16.642  10.860   8.367 -0.3395 -0.0402  0.1400
  160loPI   C4B 2560  16.765  10.550   8.126 -0.1046  0.2254  0.1145
  161loPI    C1 2561  17.142  10.867  10.333 -0.0634 -0.0107 -0.0698
  161loPI    C2 2562  16.815  10.715  10.507 -0.0809 -0.0960 -0.1764
  161loPI    C3 2563  17.177  10.632  10.655 -0.1066 -0.0071 -0.0623
  161loPI   PO4 2564  17.140  10.870  10.034  0.1879 -0.2074 -0.0642
  161loPI   GL1 2565  17.359  10.818   9.746 -0.2379  0.1797 -0.0351
  161loPI   GL2 2566  17.656  10.649   9.844  0.1190  0.2120  0.0026
  161loPI   C1A 2567  17.262  10.815   9.300  0.1177  0.1874 -0.3043
  161loPI   C2A 2568  17.101  10.875   8.889  0.2705 -0.0768  0.3037
  161loPI   C3A 2569  17.121  10.843   8.467  0.0589  0.1958  0.0640
  161loPI   C4A 2570  17.188  10.774   7.956 -0.0559  0.2034  0.3860
  161loPI   C5A 2571  17.165  10.430   7.792 -0.2451  0.1131 -0.5718
  161loPI   C6A 2572  17.524  10.113   7.667  0.1928  0.0192  0.2988
  161loPI   C1B 2573  17.681  10.519   9.422  0.1262 -0.2380 -0.1523
  161loPI   C2B 2574  17.852  10.371   9.021  0.0571 -0.5718 -0.2594
  161loPI   C3B 2575  17.972  10.262   8.666  0.0868 -0.1313  0.1281
  161loPI   C4B 2576  17.958   9.895   8.514 -0.3224  0.0645  0.0881
  162loPI    C1 2577  13.654  12.178  10.271 -0.0251 -0.1742 -0.0498
  162loPI    C2 2578  13.886  11.916  10.464  0.0873 -0.0900 -0.0694
  162loPI    C3 2579  13.489  11.866  10.459  0.1157 -0.3177 -0.1620
  162loPI   PO4 2580  13.886  12.183  10.020  0.0162 -0.0088 -0.4355
  162loPI   GL1 2581  13.952  12.226   9.685  0.0669  0.1763  0.3705
  162loPI   GL2 2582  13.641  11.914   9.665  0.2372  0.0154  0.2889
  162loPI   C1A 2583  13.832  12.002   9.183 -0.0766 -0.2063 -0.0456
  162loPI   C2A 2584  13.673  12.087   8.817 -0.0348 -0.0761 -0.0076
  162loPI   C3A 2585  13.661  12.219   8.471 -0.0995 -0.0075 -0.0883
  162loPI   C4A 2586  13.553  11.995   8.095  0.0735 -0.1150  0.4011
  162loPI   C5A 2587  13.245  12.175   7.766 -0.1025  0.1176  0.1032
  162loPI   C6A 2588  12.994  12.403   7.359 -0.3639  0.0877  0.1786
  162loPI   C1B 2589  13.342  12.048   9.248  0.0678 -0.0305 -0.1203
  162loPI   C2B 2590  13.231  12.366   8.865 -0.0086 -0.1340 -0.1207
  162loPI   C3B 2591  13.178  12.322   8.412  0.3381 -0.1059  0.2957
  162loPI   C4B 2592  12.883  11.989   8.193  0.2321  0.2207  0.2291
  163loPI    C1 2593   0.714   0.231  11.040  0.0962  0.1177 -0.0918
  163loPI    C2 2594   1.097   0.204  11.153  0.0424 -0.0356  0.0591
  163loPI    C3 2595   0.809   0.232  11.429 -0.0788 -0.2419 -0.0445
  163loPI   PO4 2596   0.646   0.028  10.885 -0.1619  0.1137 -0.3148
  163loPI   GL1 2597   0.604  -0.168  10.478 -0.1608 -0.1002 -0.2139
  163loPI   GL2 2598   0.953  -0.150  10.431 -0.1212 -0.4847 -0.2078
  163loPI   C1A 2599   0.482  -0.011  10.066 -0.2603  0.1574 -0.0366
  163loPI   C2A 2600   0.574  -0.004   9.667 -0.1150 -0.1316  0.0157
  163loPI   C3A 2601   0.681  -0.069   9.220  0.1181 -0.0641  0.1908
  163loPI   C4A 2602   0.815  -0.225   8.805 -0.0935  0.0855 -0.1382
  163loPI   C5A 2603   0.803  -0.312   8.429 -0.2965 -0.1025 -0.2576
  163loPI   C6A 2604   0.830  -0.534   8.061 -0.1902  0.0298 -0.0156
  163loPI   C1B 2605   1.017  -0.126   9.964 -0.0420 -0.3311 -0.1033
  163loPI   C2B 2606   1.118  -0.050   9.589  0.2640 -0.1227  0.0995
  163loPI   C3B 2607   1.193  -0.117   9.143  0.0790  0.2949  0.0377
  163loPI   C4B 2608   1.278  -0.115   8.649  0.5008 -0.0534 -0.0820
  164loPI    C1 2609   6.143  10.269  10.592 -0.0680  0.1109 -0.1490
  164loPI    C2 2610   6.331  10.591  10.738  0.0585 -0.0180 -0.0247
  164loPI    C3 2611   6.502  10.373  10.449 -0.0140  0.0096 -0.0886
  164loPI   PO4 2612   5.905  10.373  10.478  0.0553 -0.4135  0.2735
  164loPI   GL1 2613   5.782  10.656  10.112  0.0224 -0.1797 -0.0660
  164loPI   GL2 2614   5.715  10.330   9.999  0.0070  0.3752 -0.1172
  164loPI   C1A 2615   5.951  10.725   9.668  0.3924  0.0401 -0.0124
  164loPI   C2A 2616   5.918  10.877   9.225  0.1011  0.0334 -0.1017
  164loPI   C3A 2617   5.829  10.934   8.771 -0.2865  0.4297  0.0995
  164loPI   C4A 2618   5.690  11.064   8.434  0.0238 -0.2840 -0.1622
  164loPI   C5A 2619   5.720  11.430   8.203  0.3274  0.1888 -0.4250
  164loPI   C6A 2620   5.956  11.426   7.813 -0.1871  0.0289  0.4073
  164loPI   C1B 2621   5.536  10.521   9.633 -0.0596  0.0028  0.0358
  164loPI   C2B 2622   5.413  10.572   9.177  0.1502  0.0411  0.0924
  164loPI   C3B 2623   5.285  10.764   8.722  0.2259 -0.1106 -0.3164
  164loPI   C4B 2624   5.194  11.048   8.281  0.0724  0.2906 -0.1903
  165loPI    C1 2625  12.650   1.505  10.680  0.0567 -0.0379  0.1319
  165loPI    C2 2626  12.976   1.470  10.450  0.1089  0.1937  0.1683
  165loPI    C3 2627  13.012   1.580  10.833  0.0131 -0.0862  0.2600
  165loPI   PO4 2628  12.469   1.545  10.492  0.3120  0.2160 -0.2420
  165loPI   GL1 2629  12.708   1.423   9.991 -0.0012  0.1675 -0.2530
  165loPI   GL2 2630  12.782   1.047   9.962 -0.1541  0.1985 -0.1559
  165loPI   C1A 2631  12.530   1.393   9.628  0.0103  0.1629  0.2165
  165loPI   C2A 2632  12.523   1.231   9.236 -0.1440  0.1851  0.0362
  165loPI   C3A 2633  12.653   1.224   8.868 -0.0953 -0.0028  0.0014
  165loPI   C4A 2634  12.728   1.220   8.341 -0.0502 -0.0831  0.2577
  165loPI   C5A 2635  12.734   1.143   7.999 -0.3291  0.0329  0.1049
  165loPI   C6A 2636  12.478   1.121   7.742  0.0319 -0.1479  0.1532
  165loPI   C1B 2637  12.953   1.029   9.536 -0.0435  0.0006 -0.0749
  165loPI   C2B 2638  12.937   0.961   9.179  0.2305  0.1122 -0.0066
  165loPI   C3B 2639  13.177   1.121   8.950 -0.1811 -0.2147 -0.2203
  165loPI   C4B 2640  13.070   1.099   8.643  0.0083 -0.1542  0.4336
  166loPI    C1 2641   1.204  14.512  10.924  0.2420  0.1135 -0.1430
  166loPI    C2 2642   1.597  14.545  10.994  0.2172 -0.0388  0.0799
  166loPI    C3 2643   1.355  14.402  11.278 -0.0022  0.0626 -0.0532
  166loPI   PO4 2644   1.185  14.616  10.643 -0.0666 -0.2772  0.0618
  166loPI   GL1 2645   1.209  14.842  10.245  0.5003 -0.0420  0.1183
  166loPI   GL2 2646   0.946  14.801  10.148  0.0328 -0.1392  0.1606
  166loPI   C1A 2647   1.535  14.777  10.008 -0.2080  0.0798 -0.3196
  166loPI   C2A 2648   1.735  14.617   9.618 -0.2461  0.1818  0.1514
  166loPI   C3A 2649   1.754  14.675   9.115 -0.3042  0.1747  0.1026
  166loPI   C4A 2650   2.054  14.537   8.856  0.1237 -0.1986  0.0884
  166loPI   C5A 2651   2.405  14.410   8.635  0.0728  0.0413  0.0416
  166loPI   C6A 2652   2.524  14.232   8.299  0.2596  0.4515 -0.5151
  166loPI   C1B 2653   1.123  14.649   9.701 -0.1805  0.1558  0.0471
  166loPI   C2B 2654   1.179  14.708   9.234  0.2113  0.0498 -0.3022
  166loPI   C3B 2655   1.165  14.643   8.853 -0.2070  0.1067  0.1768
  166loPI   C4B 2656   0.946  14.540   8.413  0.1225 -0.2788 -0.1162
  167loPI    C1 2657   5.628  14.491  11.101  0.0297  0.1192  0.1209
  167loPI    C2 2658   5.269  14.349  11.204  0.0570 -0.1464 -0.1366
  167loPI    C3 2659   5.599  14.206  11.380  0.0375  0.1313  0.1340
  167loPI   PO4 2660   5.625  14.465  10.874  0.1093  0.0638 -0.1420
  167loPI   GL1 2661   5.723  14.300  10.473 -0.0853  0.1620  0.0588
  167loPI   GL2 2662   5.921  14.099  10.620  0.1123 -0.1169 -0.2956
  167loPI   C1A 2663   5.751  14.198   9.910  0.4123 -0.0478 -0.0812
  167loPI   C2A 2664   5.713  14.313   9.474  0.0547  0.0246 -0.0320
  167loPI   C3A 2665   5.609  14.444   9.134 -0.0853 -0.1628 -0.2533
  167loPI   C4A 2666   5.666  14.559   8.748  0.1228  0.1710  0.1709
  167loPI   C5A 2667   5.437  14.850   8.558 -0.0971  0.1016  0.0680
  167loPI   C6A 2668   5.217  15.062   8.222  0.0578 -0.0829  0.2801
  167loPI   C1B 2669   5.884  13.857  10.283 -0.1655 -0.0216 -0.0465
  167loPI   C2B 2670   5.689  13.575   9.999 -0.0448  0.1392 -0.1809
  167loPI   C3B 2671   5.745  13.714   9.576  0.0423 -0.0061  0.0995
  167loPI   C4B 2672   5.905  13.779   9.049  0.2162  0.1018 -0.2644
  168loPI    C1 2673   5.088   5.738   9.792 -0.0640 -0.1863  0.0154
  168loPI    C2 2674   4.697   5.819   9.767 -0.0004  0.2339  0.2719
  168loPI    C3 2675   4.864   5.745  10.123  0.1737  0.1585  0.1761
  168loPI   PO4 2676   5.122   5.624   9.561  0.1032 -0.2336 -0.3974
  168loPI   GL1 2677   5.065   5.747   9.186 -0.0857 -0.1745 -0.0455
  168loPI   GL2 2678   4.760   5.740   9.275  0.0154  0.0592  0.3985
  168loPI   C1A 2679   5.014   5.791   8.772 -0.1723 -0.1179  0.2936
  168loPI   C2A 2680   5.099   5.752   8.347 -0.0376 -0.0433  0.1646
  168loPI   C3A 2681   5.068   5.889   7.892  0.0348 -0.1348 -0.1227
  168loPI   C4A 2682   4.944   6.214   7.594 -0.1753  0.1670 -0.2798
  168loPI   C5A 2683   4.506   6.341   7.337 -0.5368  0.0330  0.1320
  168loPI   C6A 2684   4.215   6.190   7.546 -0.0063  0.0886  0.2018
  168loPI   C1B 2685   4.549   5.621   8.870 -0.2087 -0.3445 -0.0860
  168loPI   C2B 2686   4.634   5.581   8.556  0.1306 -0.2423 -0.1101
  168loPI   C3B 2687   4.653   5.571   8.144 -0.1254 -0.2555  0.0583
  168loPI   C4B 2688   4.926   5.373   7.830  0.0076 -0.2592 -0.0407
  169loPI    C1 2689  10.957  17.625  10.485 -0.0079 -0.2202 -0.2860
  169loPI    C2 2690  11.079  17.995  10.395 -0.3475 -0.1245 -0.3680
  169loPI    C3 2691  11.305  17.680  10.295 -0.0173  0.0614 -0.2254
  169loPI   PO4 2692  10.745  17.664  10.415  0.1615 -0.0858  0.4339
  169loPI   GL1 2693  10.576  17.791  10.119  0.1232 -0.2477  0.0626
  169loPI   GL2 2694  10.466  17.456  10.055 -0.0662 -0.0923  0.0809
  169loPI   C1A 2695  10.558  17.727   9.641  0.1177  0.1193 -0.2612
  169loPI   C2A 2696  10.506  17.599   9.243  0.0342 -0.1128 -0.0071
  169loPI   C3A 2697  10.421  17.549   8.831  0.0702  0.2344  0.1665
  169loPI   C4A 2698  10.304  17.480   8.380 -0.0621  0.1600 -0.0698
  169loPI   C5A 2699  10.457  17.230   8.134 -0.1788 -0.0399 -0.0206
  169loPI   C6A 2700  10.546  17.177   7.698  0.2058 -0.0012 -0.0177
  169loPI   C1B 2701  10.588  17.170   9.664  0.3114 -0.3263  0.0955
  169loPI   C2B 2702  10.695  17.136   9.272  0.2502 -0.1506 -0.0519
  169loPI   C3B 2703  10.599  17.115   8.946  0.2796 -0.1220  0.1518
  169loPI   C4B 2704  10.492  16.951   8.579 -0.0793  0.0128 -0.1267
  170loPI    C1 2705   4.311   5.556  10.101 -0.0238 -0.0675  0.2341
  170loPI    C2 2706   4.170   5.270  10.343 -0.0593 -0.1825  0.0794
  170loPI    C3 2707   3.985   5.624  10.323 -0.2301 -0.2749  0.0021
  170loPI   PO4 2708   4.265   5.338   9.822  0.1340  0.1865 -0.1809
  170loPI   GL1 2709   4.204   5.632   9.543 -0.2600 -0.1186 -0.0651
  170loPI   GL2 2710   4.226   5.920   9.613  0.0038  0.0234  0.0757
  170loPI   C1A 2711   4.035   5.532   9.072 -0.2630  0.0366 -0.1113
  170loPI   C2A 2712   4.105   5.454   8.688 -0.1561 -0.1380 -0.1498
  170loPI   C3A 2713   4.164   5.482   8.305  0.1817  0.3402 -0.1403
  170loPI   C4A 2714   4.219   5.644   7.914 -0.0675 -0.0300  0.1187
  170loPI   C5A 2715   4.489   5.728   7.636  0.1075 -0.1880 -0.2026
  170loPI   C6A 2716   4.744   5.698   7.339  0.0492 -0.0877  0.0505
  170loPI   C1B 2717   4.243   5.943   9.140  0.0715  0.2335  0.0387
  170loPI   C2B 2718   4.146   5.940   8.586 -0.1607 -0.4995 -0.2833
  170loPI   C3B 2719   3.928   5.942   8.236  0.1406  0.3644 -0.2859
  170loPI   C4B 2720   3.816   6.031   7.931 -0.0106  0.1735  0.3489
  171loPI    C1 2721   4.814   3.158  10.355  0.0026 -0.0694  0.0530
  171loPI    C2 2722   4.822   3.535  10.489 -0.2157 -0.0757  0.0875
  171loPI    C3 2723   4.960   3.238  10.719  0.0793 -0.0032  0.0079
  171loPI   PO4 2724   4.825   3.182  10.137 -0.0654 -0.1336  0.0858
  171loPI   GL1 2725   4.613   2.930   9.760  0.1303  0.1289 -0.3717
  171loPI   GL2 2726   4.828   3.050   9.631 -0.4214  0.0264  0.1082
  171loPI   C1A 2727   4.462   2.599   9.445  0.0771  0.1299 -0.1686
  171loPI   C2A 2728   4.374   2.584   9.020 -0.0515  0.0749  0.1609
  171loPI   C3A 2729   4.357   2.519   8.600  0.0056 -0.1025 -0.2790
  171loPI   C4A 2730   4.417   2.396   8.267  0.0999 -0.1110 -0.1774
  171loPI   C5A 2731   4.480   2.666   7.923 -0.1656  0.0541  0.1483
  171loPI   C6A 2732   4.508   3.063   7.891 -0.1083 -0.1039  0.0469
  171loPI   C1B 2733   4.679   3.032   9.232  0.0987 -0.3796  0.2047
  171loPI   C2B 2734   4.654   2.951   8.755 -0.2360  0.1508  0.0709
  171loPI   C3B 2735   4.758   2.893   8.311  0.0920 -0.0049 -0.2480
  171loPI   C4B 2736   4.928   2.789   7.896 -0.0734  0.3977  0.0655
  172loPI    C1 2737  12.510  18.280  11.003 -0.1113 -0.1921  0.0245
  172loPI    C2 2738  12.173  18.066  11.036 -0.3067  0.1337  0.1886
  172loPI    C3 2739  12.246  18.365  11.292  0.1568  0.0038  0.2167
  172loPI   PO4 2740  12.588  18.226  10.698  0.2941 -0.0854  0.2779
  172loPI   GL1 2741  12.358  18.310  10.278 -0.0207  0.2894 -0.2300
  172loPI   GL2 2742  12.470  18.570  10.089 -0.1228 -0.1771  0.2243
  172loPI   C1A 2743  12.198  18.261   9.741  0.1191 -0.1334 -0.3064
  172loPI   C2A 2744  12.077  18.265   9.327 -0.0528 -0.2850  0.2388
  172loPI   C3A 2745  12.099  18.010   8.933 -0.1005 -0.1035  0.1664
  172loPI   C4A 2746  12.186  17.823   8.636 -0.0914  0.0543 -0.3133
  172loPI   C5A 2747  12.206  17.860   8.275  0.0172 -0.0902  0.0302
  172loPI   C6A 2748  12.045  17.488   7.883 -0.0531  0.0598  0.0140
  172loPI   C1B 2749  12.494  18.769   9.602 -0.0802 -0.1972 -0.2063
  172loPI   C2B 2750  12.376  18.718   9.227  0.2558 -0.3294  0.2135
  172loPI   C3B 2751  12.427  18.741   8.860 -0.0584 -0.2368 -0.1354
  172loPI   C4B 2752  12.230  18.818   8.377  0.1958 -0.1650  0.1679
  173loPI    C1 2753  16.494  10.210  10.401  0.1620  0.0263 -0.0464
  173loPI    C2 2754  16.421  10.242  10.793 -0.0704  0.0906 -0.0932
  173loPI    C3 2755  16.429   9.882  10.620  0.1957  0.0500 -0.0009
  173loPI   PO4 2756  16.324  10.422  10.258  0.3123  0.1131  0.4301
  173loPI   GL1 2757  16.011  10.481   9.921  0.1877 -0.2348 -0.0824
  173loPI   GL2 2758  16.354  10.542   9.672 -0.0343 -0.1668  0.0023
  173loPI   C1A 2759  15.898  10.382   9.590  0.0350 -0.1023  0.1832
  173loPI   C2A 2760  15.737  10.289   9.199  0.2538  0.1076  0.0624
  173loPI   C3A 2761  15.740  10.273   8.760  0.2533  0.1504  0.1581
  173loPI   C4A 2762  16.044  10.319   8.445 -0.0926  0.2164  0.0040
  173loPI   C5A 2763  16.276  10.576   8.125  0.0998 -0.2951 -0.3165
  173loPI   C6A 2764  16.297  10.979   7.903 -0.0484  0.1194 -0.0395
  173loPI   C1B 2765  16.412  10.299   9.314 -0.1487  0.2305  0.0052
  173loPI   C2B 2766  16.201  10.319   9.000 -0.3191 -0.1383  0.3101
  173loPI   C3B 2767  16.360  10.612   8.726  0.2692 -0.2235  0.1262
  173loPI   C4B 2768  16.178  10.991   8.436  0.1582  0.2925  0.2122
  174loPI    C1 2769   6.463   7.713  10.146 -0.1765 -0.2353  0.1891
  174loPI    C2 2770   6.641   7.984  10.380 -0.0877 -0.1934  0.0747
  174loPI    C3 2771   6.765   7.603  10.385 -0.1023 -0.1978  0.1131
  174loPI   PO4 2772   6.454   7.866   9.858 -0.1087 -0.1828 -0.0669
  174loPI   GL1 2773   6.452   8.106   9.381  0.0843 -0.2983 -0.0556
  174loPI   GL2 2774   6.728   8.182   9.327  0.3167 -0.1274  0.1074
  174loPI   C1A 2775   6.062   8.318   9.137 -0.1376  0.0107 -0.3101
  174loPI   C2A 2776   5.912   8.435   8.784  0.1710  0.2509  0.1461
  174loPI   C3A 2777   6.150   8.412   8.337  0.1712  0.1584 -0.0030
  174loPI   C4A 2778   6.257   8.511   8.084  0.2563  0.0942  0.1156
  174loPI   C5A 2779   6.539   8.489   7.738 -0.0117  0.1297  0.0444
  174loPI   C6A 2780   6.618   8.208   7.366  0.0237 -0.0807  0.2983
  174loPI   C1B 2781   6.589   7.984   8.967 -0.1037  0.1202 -0.1284
  174loPI   C2B 2782   6.885   7.869   8.766  0.3074 -0.0904  0.0333
  174loPI   C3B 2783   7.146   7.651   8.587  0.0233  0.0453  0.1211
  174loPI   C4B 2784   7.476   7.662   8.906  0.1866 -0.0051  0.0847
  175loPI    C1 2785   4.497   9.426  10.272 -0.2154  0.0155 -0.0260
  175loPI    C2 2786   4.388   9.800  10.178  0.2525  0.1417 -0.0922
  175loPI    C3 2787   4.475   9.706  10.557 -0.0532  0.0467 -0.0431
  175loPI   PO4 2788   4.625   9.338  10.035  0.0191 -0.0437 -0.0831
  175loPI   GL1 2789   4.413   9.282   9.699 -0.1091 -0.2777  0.1759
  175loPI   GL2 2790   4.153   9.328   9.491 -0.0168 -0.0507  0.0710
  175loPI   C1A 2791   4.690   9.277   9.325 -0.2310  0.0978 -0.0430
  175loPI   C2A 2792   4.846   9.276   8.973 -0.3069  0.1442 -0.0010
  175loPI   C3A 2793   4.862   9.383   8.589  0.2562 -0.1024  0.1596
  175loPI   C4A 2794   4.907   9.348   8.136  0.0042  0.1665  0.0450
  175loPI   C5A 2795   5.158   9.179   7.729  0.2673 -0.1656  0.1031
  175loPI   C6A 2796   5.396   8.802   7.578  0.2290 -0.3189  0.0606
  175loPI   C1B 2797   4.262   9.232   9.122 -0.0656  0.4679  0.3565
  175loPI   C2B 2798   4.415   9.208   8.699  0.0644 -0.2634  0.1965
  175loPI   C3B 2799   4.518   9.129   8.315 -0.2442 -0.0002 -0.1552
  175loPI   C4B 2800   4.413   9.232   7.890  0.0513  0.0611  0.2927
  176loPI    C1 2801   3.411  13.377  11.047 -0.0681 -0.0870 -0.0935
  176loPI    C2 2802   3.295  13.578  10.720 -0.0486 -0.2173 -0.1812
  176loPI    C3 2803   3.131  13.662  11.075  0.0480  0.0387 -0.1949
  176loPI   PO4 2804   3.452  13.166  10.911 -0.0309 -0.0549  0.0449
  176loPI   GL1 2805   3.516  13.198  10.485  0.1836  0.1540 -0.0192
  176loPI   GL2 2806   3.867  13.137  10.349 -0.3463  0.2482  0.1423
  176loPI   C1A 2807   3.417  13.395  10.100 -0.2210 -0.0215 -0.2145
  176loPI   C2A 2808   3.563  13.426   9.695  0.5572 -0.0471  0.0525
  176loPI   C3A 2809   3.642  13.408   9.323 -0.0771  0.1874 -0.0244
  176loPI   C4A 2810   3.647  13.218   8.863  0.3156  0.0022  0.4049
  176loPI   C5A 2811   3.827  13.420   8.508  0.1384  0.1173 -0.0856
  176loPI   C6A 2812   4.228  13.525   8.406 -0.2757  0.2697 -0.1146
  176loPI   C1B 2813   3.890  13.307  10.032  0.0890 -0.2763  0.0874
  176loPI   C2B 2814   3.956  13.149   9.586 -0.4668 -0.5255  0.0369
  176loPI   C3B 2815   4.061  13.103   9.133  0.1215 -0.2907  0.1855
  176loPI   C4B 2816   4.200  13.196   8.816  0.0254  0.1487  0.0685
  177loPI    C1 2817  11.720  15.657  10.812 -0.1455 -0.1821  0.0287
  177loPI    C2 2818  11.758  15.326  11.033 -0.1150 -0.1596  0.0574
  177loPI    C3 2819  12.084  15.515  10.898 -0.1221  0.0441  0.3180
  177loPI   PO4 2820  11.477  15.750  10.564 -0.3346  0.0521 -0.0723
  177loPI   GL1 2821  11.117  15.705  10.259  0.2313  0.4936 -0.0912
  177loPI   GL2 2822  11.201  16.029  10.251 -0.3111  0.0939 -0.0875
  177loPI   C1A 2823  11.228  15.664   9.824  0.0349 -0.3378  0.0628
  177loPI   C2A 2824  10.903  15.671   9.466 -0.1843 -0.0486  0.0118
  177loPI   C3A 2825  10.855  15.639   9.047 -0.1273  0.1098  0.1574
  177loPI   C4A 2826  10.630  15.678   8.728  0.0976  0.3001 -0.2267
  177loPI   C5A 2827  10.518  15.337   8.389  0.1044 -0.0701  0.0109
  177loPI   C6A 2828  10.679  15.115   8.104 -0.4723  0.0980 -0.0049
  177loPI   C1B 2829  11.553  16.026   9.798 -0.1772  0.0115  0.0292
  177loPI   C2B 2830  11.556  15.819   9.491 -0.0430  0.0333 -0.1171
  177loPI   C3B 2831  11.382  15.655   9.224  0.1050  0.2861 -0.0666
  177loPI   C4B 2832  11.306  15.625   8.839 -0.2196  0.1304 -0.0347
  178loPI    C1 2833  16.997   8.446  10.444 -0.2444  0.0946  0.3221
  178loPI    C2 2834  17.319   8.235  10.553 -0.1244  0.0334 -0.1304
  178loPI    C3 2835  17.064   8.370  10.831  0.1014 -0.2175  0.2062
  178loPI   PO4 2836  16.990   8.356  10.136 -0.3123  0.0429  0.0248
  178loPI   GL1 2837  17.143   8.440   9.728 -0.0298 -0.2243  0.1688
  178loPI   GL2 2838  16.850   8.420   9.581  0.3458  0.4271 -0.0889
  178loPI   C1A 2839  17.416   8.440   9.430 -0.1727  0.0613 -0.1274
  178loPI   C2A 2840  17.577   8.491   9.027 -0.1926  0.1667  0.2537
  178loPI   C3A 2841  17.676   8.456   8.518  0.1487 -0.0963  0.1449
  178loPI   C4A 2842  17.358   8.449   8.207  0.0883 -0.0332 -0.4271
  178loPI   C5A 2843  17.082   8.785   7.954  0.1015  0.0880 -0.0090
  178loPI   C6A 2844  16.707   8.865   7.678  0.0141  0.0112  0.1319
  178loPI   C1B 2845  16.803   8.268   9.201 -0.0614 -0.0414 -0.1254
  178loPI   C2B 2846  16.794   8.047   8.787  0.3248 -0.4342  0.0609
  178loPI   C3B 2847  16.781   8.049   8.387  0.0891  0.0570 -0.1040
  178loPI   C4B 2848  16.933   8.116   7.971  0.2671 -0.0337 -0.2768
  179loPI    C1 2849   6.918  15.465  11.111  0.1900  0.1762  0.1257
  179loPI    C2 2850   7.084  15.134  11.263  0.1864  0.0657 -0.1059
  179loPI    C3 2851   6.981  15.436  11.505  0.0286 -0.1730  0.1297
  179loPI   PO4 2852   6.733  15.378  10.884 -0.0334  0.1856 -0.2360
  179loPI   GL1 2853   6.745  15.212  10.480 -0.2518  0.0182  0.3303
  179loPI   GL2 2854   6.481  15.329  10.414 -0.0515  0.3241  0.0133
  179loPI   C1A 2855   6.727  15.214  10.018 -0.0969  0.2971  0.0951
  179loPI   C2A 2856   6.876  15.287   9.521 -0.0662  0.0561 -0.0217
  179loPI   C3A 2857   6.879  15.342   9.102 -0.2507  0.4608  0.1745
  179loPI   C4A 2858   6.989  15.404   8.604  0.0988  0.0041  0.2646
  179loPI   C5A 2859   6.580  15.399   8.417  0.0117  0.0996 -0.0419
  179loPI   C6A 2860   6.281  15.144   8.134 -0.5119  0.0968  0.2020
  179loPI   C1B 2861   6.292  15.324  10.035  0.1272  0.1627 -0.1500
  179loPI   C2B 2862   6.373  15.340   9.665  0.0280  0.1850 -0.3058
  179loPI   C3B 2863   6.387  15.364   9.273 -0.0354 -0.1889 -0.3100
  179loPI   C4B 2864   6.356  15.151   8.718 -0.2810  0.2037 -0.1215
  180loPI    C1 2865   6.602  16.543  10.859 -0.1466  0.0708  0.1812
  180loPI    C2 2866   6.681  16.365  11.208  0.0280 -0.1550  0.0298
  180loPI    C3 2867   6.911  16.667  11.081 -0.1383  0.0403  0.1865
  180loPI   PO4 2868   6.584  16.310  10.685 -0.1981  0.1491  0.0166
  180loPI   GL1 2869   6.446  16.066  10.404 -0.1622 -0.0796  0.2143
  180loPI   GL2 2870   6.489  15.799  10.556 -0.0923  0.0953 -0.2737
  180loPI   C1A 2871   6.481  16.186   9.989  0.1167 -0.3450 -0.3423
  180loPI   C2A 2872   6.432  16.211   9.558  0.0812 -0.0368 -0.0160
  180loPI   C3A 2873   6.419  16.143   9.068  0.1552  0.0980  0.1664
  180loPI   C4A 2874   6.527  16.235   8.662  0.2381 -0.1847 -0.2973
  180loPI   C5A 2875   6.848  16.138   8.365 -0.2457  0.2911 -0.1152
  180loPI   C6A 2876   6.958  16.275   7.997 -0.0033 -0.0455 -0.0709
  180loPI   C1B 2877   6.670  15.692  10.090 -0.0566 -0.0377 -0.2965
  180loPI   C2B 2878   6.686  15.705   9.722 -0.0084 -0.1990  0.5415
  180loPI   C3B 2879   6.720  15.809   9.294 -0.0919  0.1851 -0.2319
  180loPI   C4B 2880   6.712  15.727   8.861 -0.1732  0.0291 -0.1284
  181loPI    C1 2881   6.067   2.933  10.325 -0.3666 -0.0232 -0.0283
  181loPI    C2 2882   5.966   2.843  10.702  0.0213 -0.2949  0.0162
  181loPI    C3 2883   6.273   3.089  10.630 -0.0735 -0.2159 -0.1237
  181loPI   PO4 2884   5.925   2.936  10.181  0.0080  0.2369  0.4090
  181loPI   GL1 2885   5.815   2.764   9.859 -0.1960 -0.0317  0.0714
  181loPI   GL2 2886   6.060   3.051   9.741 -0.2670 -0.0527 -0.2043
  181loPI   C1A 2887   5.763   2.888   9.332  0.0803  0.2075 -0.0607
  181loPI   C2A 2888   5.757   2.873   8.883  0.0732 -0.0990  0.0068
  181loPI   C3A 2889   5.725   2.792   8.468 -0.1090 -0.2150  0.2952
  181loPI   C4A 2890   5.814   2.879   8.051 -0.2161  0.0729 -0.2840
  181loPI   C5A 2891   5.810   2.815   7.614 -0.0129 -0.2702 -0.3577
  181loPI   C6A 2892   5.825   2.290   7.414  0.0517  0.1757  0.1493
  181loPI   C1B 2893   6.004   3.336   9.344 -0.0960  0.0301 -0.2571
  181loPI   C2B 2894   6.041   3.269   8.891 -0.0866 -0.0101 -0.1937
  181loPI   C3B 2895   6.041   3.254   8.514  0.1003  0.1472 -0.2077
  181loPI   C4B 2896   6.149   3.290   8.175  0.1997 -0.0725  0.1912
  182loPI    C1 2897  13.817  15.342  10.307  0.1075 -0.0515  0.0619
  182loPI    C2 2898  13.997  15.302  10.662 -0.1072 -0.2352  0.1519
  182loPI    C3 2899  13.656  15.509  10.633  0.0116 -0.0558  0.0169
  182loPI   PO4 2900  13.901  15.318  10.082 -0.3440 -0.0013 -0.0743
  182loPI   GL1 2901  13.724  15.253   9.686 -0.3333 -0.3502 -0.2796
  182loPI   GL2 2902  13.965  15.002   9.727  0.0265  0.0500 -0.3509
  182loPI   C1A 2903  13.878  15.325   9.172  0.1375 -0.0991  0.1511
  182loPI   C2A 2904  14.082  15.086   8.886 -0.0140  0.0712  0.0261
  182loPI   C3A 2905  14.139  15.015   8.405  0.2545 -0.0171 -0.0593
  182loPI   C4A 2906  13.755  14.616   8.399  0.1468 -0.3185 -0.1716
  182loPI   C5A 2907  13.503  14.446   8.114 -0.0523  0.0108 -0.0012
  182loPI   C6A 2908  13.000  14.454   8.037  0.1788  0.2973  0.3055
  182loPI   C1B 2909  14.222  14.783   9.601  0.2653 -0.0716  0.0622
  182loPI   C2B 2910  14.521  14.582   9.377  0.1574 -0.2142 -0.1918
  182loPI   C3B 2911  14.933  14.594   9.235  0.0550 -0.3158 -0.2705
  182loPI   C4B 2912  15.376  14.693   9.068 -0.0141 -0.0283  0.1900
  183loPI    C1 2913   6.364   5.428  10.042  0.0360 -0.0645  0.1834
  183loPI    C2 2914   6.383   5.819   9.961  0.1231 -0.1077 -0.0104
  183loPI    C3 2915   6.719   5.604   9.992  0.0777 -0.1574  0.1496
  183loPI   PO4 2916   6.266   5.324   9.863 -0.2097  0.0492  0.1011
  183loPI   GL1 2917   6.332   5.043   9.377 -0.0012 -0.3037  0.1516
  183loPI   GL2 2918   6.082   4.991   9.216 -0.0909  0.0974  0.0938
  183loPI   C1A 2919   6.319   5.181   8.822 -0.0076  0.1911 -0.2296
  183loPI   C2A 2920   6.575   5.330   8.433 -0.2076 -0.1437 -0.0883
  183loPI   C3A 2921   6.676   5.330   7.892 -0.0242 -0.0054 -0.1411
  183loPI   C4A 2922   6.434   5.563   7.572  0.0165  0.1075  0.3248
  183loPI   C5A 2923   6.073   5.666   7.368  0.0731 -0.0367  0.1939
  183loPI   C6A 2924   5.729   5.762   7.292  0.1551  0.0522  0.1574
  183loPI   C1B 2925   6.030   4.808   8.872 -0.0321  0.1285 -0.1997
  183loPI   C2B 2926   5.879   4.565   8.631  0.1222  0.2322  0.1075
  183loPI   C3B 2927   5.939   4.550   8.198 -0.1322 -0.2811 -0.1639
  183loPI   C4B 2928   6.273   4.578   7.850  0.3630 -0.1779 -0.0071
  184loPI    C1 2929   7.066   4.709  10.002  0.0744 -0.1219 -0.1113
  184loPI    C2 2930   6.930   4.481  10.301  0.2243 -0.0128  0.0412
  184loPI    C3 2931   6.975   4.875  10.354  0.1396  0.0253 -0.1633
  184loPI   PO4 2932   7.198   4.444   9.816 -0.0847  0.0937 -0.0629
  184loPI   GL1 2933   7.126   4.396   9.409  0.1509  0.0673  0.1498
  184loPI   GL2 2934   7.364   4.631   9.368  0.2833  0.1241  0.3437
  184loPI   C1A 2935   7.227   4.176   9.075  0.0178 -0.2582 -0.3688
  184loPI   C2A 2936   7.243   4.104   8.697  0.0698  0.1197  0.0192
  184loPI   C3A 2937   7.231   4.074   8.346  0.1389 -0.0187 -0.0126
  184loPI   C4A 2938   7.061   4.063   7.979 -0.2364  0.2816  0.0215
  184loPI   C5A 2939   7.257   4.045   7.539 -0.3560 -0.2837 -0.0503
  184loPI   C6A 2940   7.591   3.914   7.391  0.0043 -0.1646  0.1006
  184loPI   C1B 2941   7.069   4.667   9.001 -0.1026  0.1339  0.0044
  184loPI   C2B 2942   7.086   4.612   8.628  0.1112  0.4672 -0.1415
  184loPI   C3B 2943   7.092   4.608   8.204 -0.1279 -0.0512  0.0058
  184loPI   C4B 2944   7.031   4.479   7.776 -0.3752  0.0132  0.3001
  185loPI    C1 2945   6.624   6.422   9.883 -0.0829  0.0427 -0.0435
  185loPI    C2 2946   6.614   6.264  10.251 -0.0728  0.0608 -0.0356
  185loPI    C3 2947   6.850   6.578  10.173 -0.0134  0.0060 -0.0776
  185loPI   PO4 2948   6.336   6.361   9.799 -0.2674  0.3339  0.0237
  185loPI   GL1 2949   6.123   6.367   9.432 -0.0835 -0.1506  0.0370
  185loPI   GL2 2950   5.937   6.174   9.555 -0.1089  0.2244  0.0409
  185loPI   C1A 2951   6.122   6.617   9.055  0.0246  0.1218 -0.0430
  185loPI   C2A 2952   6.032   6.637   8.578  0.0520  0.2673  0.4504
  185loPI   C3A 2953   5.897   6.807   8.239 -0.1178  0.4015 -0.4059
  185loPI   C4A 2954   5.936   6.823   7.875 -0.0998  0.2709  0.2873
  185loPI   C5A 2955   6.222   6.910   7.639 -0.2029  0.0616 -0.1606
  185loPI   C6A 2956   6.529   7.043   7.223 -0.1370  0.2267  0.2693
  185loPI   C1B 2957   5.826   6.094   9.127  0.2525 -0.0705 -0.0641
  185loPI   C2B 2958   5.828   6.175   8.777  0.1356  0.4272 -0.1230
  185loPI   C3B 2959   5.852   6.169   8.329  0.2035  0.1546  0.1942
  185loPI   C4B 2960   5.843   6.340   8.063  0.0702 -0.1763  0.2418
  186loPI    C1 2961  16.321  11.007  10.413  0.1470 -0.0618 -0.1124
  186loPI    C2 2962  16.265  10.703  10.667  0.4520  0.1164  0.1758
  186loPI    C3 2963  16.176  11.077  10.780  0.2430  0.1575 -0.1144
  186loPI   PO4 2964  16.130  10.896  10.157  0.0092  0.0465 -0.2721
  186loPI   GL1 2965  15.838  11.210   9.841 -0.1128 -0.3404 -0.0349
  186loPI   GL2 2966  15.925  11.452   9.565  0.4391 -0.1342 -0.0088
  186loPI   C1A 2967  15.786  10.866   9.552  0.2078 -0.0756  0.1726
  186loPI   C2A 2968  15.552  10.729   9.259 -0.0817 -0.0413 -0.1224
  186loPI   C3A 2969  15.360  10.861   8.937 -0.1516 -0.0185  0.0487
  186loPI   C4A 2970  15.290  10.995   8.488 -0.3430 -0.4532 -0.2837
  186loPI   C5A 2971  15.286  11.187   8.045  0.0053  0.0188  0.3118
  186loPI   C6A 2972  14.940  11.335   7.648  0.2010 -0.0021  0.0580
  186loPI   C1B 2973  16.139  11.454   9.146 -0.3791  0.1692 -0.4902
  186loPI   C2B 2974  16.237  11.493   8.722  0.0187 -0.0114  0.2544
  186loPI   C3B 2975  16.454  11.376   8.385 -0.1696 -0.2905  0.0585
  186loPI   C4B 2976  16.184  11.432   8.010 -0.4097  0.0348  0.3695
  187loPI    C1 2977  10.445   8.757  10.234  0.4040 -0.2473 -0.0432
  187loPI    C2 2978  10.161   8.628  10.485  0.0915 -0.0057 -0.2656
  187loPI    C3 2979  10.545   8.544  10.558 -0.0365 -0.3698  0.0193
  187loPI   PO4 2980  10.388   8.735   9.956 -0.2476 -0.4442  0.1203
  187loPI   GL1 2981  10.077   8.716   9.728  0.0490 -0.2555  0.0955
  187loPI   GL2 2982   9.897   8.916   9.525  0.0806  0.1563 -0.0942
  187loPI   C1A 2983  10.214   8.705   9.192 -0.0018 -0.0505  0.1461
  187loPI   C2A 2984  10.233   8.880   8.792 -0.2182 -0.1130  0.0502
  187loPI   C3A 2985  10.338   8.938   8.408 -0.0020 -0.0489 -0.1309
  187loPI   C4A 2986  10.248   9.304   8.139 -0.1527  0.1982  0.0359
  187loPI   C5A 2987  10.476   9.476   7.681  0.0074 -0.1954 -0.1760
  187loPI   C6A 2988  10.722   9.204   7.400  0.1262  0.1891  0.0983
  187loPI   C1B 2989   9.838   9.010   9.140  0.3080  0.2488 -0.1412
  187loPI   C2B 2990   9.719   8.929   8.701  0.1506 -0.1650  0.1479
  187loPI   C3B 2991   9.872   8.813   8.325  0.0082 -0.0047 -0.2692
  187loPI   C4B 2992   9.607   8.723   7.989  0.0542 -0.0954  0.4881
  188loPI    C1 2993  14.347  12.534  10.265  0.1528 -0.0325  0.1179
  188loPI    C2 2994  14.037  12.416  10.488 -0.1376  0.1463 -0.1823
  188loPI    C3 2995  14.320  12.154  10.386 -0.2499 -0.0476 -0.0035
  188loPI   PO4 2996  14.269  12.816  10.213 -0.1156 -0.1020  0.1117
  188loPI   GL1 2997  14.088  13.042   9.890  0.0877  0.2103  0.1379
  188loPI   GL2 2998  14.030  12.723   9.787  0.2056  0.0385  0.3917
  188loPI   C1A 2999  14.382  13.279   9.563  0.1186 -0.1580  0.2008
  188loPI   C2A 3000  14.387  13.171   9.006  0.0862  0.0551 -0.0690
  188loPI   C3A 3001  14.777  13.315   8.731 -0.2521  0.0536  0.0078
  188loPI   C4A 3002  15.101  13.264   8.330  0.0828  0.0751  0.2412
  188loPI   C5A 3003  15.462  13.537   8.008 -0.2655 -0.0115  0.2350
  188loPI   C6A 3004  15.778  13.863   8.174  0.0766  0.1136  0.1759
  188loPI   C1B 3005  14.189  12.696   9.359  0.1475  0.2195 -0.3072
  188loPI   C2B 3006  14.400  12.662   8.992  0.0405  0.0865  0.0295
  188loPI   C3B 3007  14.426  12.919   8.590 -0.3067  0.0795 -0.0663
  188loPI   C4B 3008  14.462  12.707   8.217 -0.2497  0.0064 -0.0133
  189loPI    C1 3009  17.753  10.931  10.746 -0.2494  0.0927 -0.1535
  189loPI    C2 3010  17.488  10.949  11.045 -0.0875  0.0139 -0.0034
  189loPI    C3 3011  17.874  11.024  11.116 -0.0342 -0.0915 -0.1756
  189loPI   PO4 3012  17.626  11.085  10.573  0.0323 -0.2717  0.0211
  189loPI   GL1 3013  17.601  11.124  10.094  0.0018 -0.0547  0.3019
  189loPI   GL2 3014  17.489  11.338   9.858  0.1308 -0.0709 -0.0923
  189loPI   C1A 3015  17.791  11.017   9.582 -0.3925 -0.1892  0.2297
  189loPI   C2A 3016  17.653  11.162   9.155  0.1155  0.3370  0.0192
  189loPI   C3A 3017  17.637  10.853   8.898 -0.0202 -0.1758 -0.0782
  189loPI   C4A 3018  17.723  10.797   8.388 -0.1801 -0.2220 -0.1670
  189loPI   C5A 3019  17.680  10.798   7.945 -0.0099 -0.1443 -0.1723
  189loPI   C6A 3020  17.965  10.553   7.631  0.1147 -0.2518  0.5355
  189loPI   C1B 3021  17.634  11.597   9.429 -0.1176 -0.0567 -0.0602
  189loPI   C2B 3022  17.795  11.644   8.984  0.0789  0.0096 -0.3731
  189loPI   C3B 3023  17.865  11.480   8.486 -0.0079 -0.0192 -0.2140
  189loPI   C4B 3024  17.935  11.696   8.076 -0.1594  0.0842 -0.1864
  190loPI    C1 3025   9.424   0.380  10.296  0.1118 -0.0636 -0.1391
  190loPI    C2 3026   9.282   0.060  10.103  0.1829 -0.2593  0.1281
  190loPI    C3 3027   9.303   0.060  10.503  0.0069  0.1535  0.1418
  190loPI   PO4 3028   9.364   0.575  10.176 -0.2098  0.0970 -0.0408
  190loPI   GL1 3029   9.524   0.511   9.757  0.3727 -0.1628 -0.0296
  190loPI   GL2 3030   9.780   0.559   9.891  0.1478 -0.0997  0.2704
  190loPI   C1A 3031   9.422   0.512   9.438  0.0245 -0.0417 -0.2654
  190loPI   C2A 3032   9.531   0.476   8.975 -0.3043 -0.2412  0.0735
  190loPI   C3A 3033   9.717   0.367   8.623  0.2119  0.2659 -0.4304
  190loPI   C4A 3034   9.646   0.467   8.203  0.1854  0.0132  0.1229
  190loPI   C5A 3035   9.454   0.474   7.784  0.3401  0.1363  0.0450
  190loPI   C6A 3036   9.223   0.288   7.610 -0.0871  0.3122 -0.2471
  190loPI   C1B 3037   9.926   0.715   9.479 -0.0673 -0.0580 -0.1808
  190loPI   C2B 3038   9.945   0.774   8.929  0.2445 -0.0358 -0.1258
  190loPI   C3B 3039   9.999   0.878   8.503  0.1025  0.1955  0.3027
  190loPI   C4B 3040  10.008   0.828   8.054  0.0749 -0.6529 -0.2986
  191loPI    C1 3041   5.968  11.364  10.948 -0.1307 -0.0780  0.1752
  191loPI    C2 3042   5.744  11.240  11.256 -0.3112  0.1835  0.1523
  191loPI    C3 3043   5.891  11.613  11.252  0.2148 -0.0142  0.2148
  191loPI   PO4 3044   5.887  11.334  10.755 -0.1708  0.0261  0.0143
  191loPI   GL1 3045   5.902  11.439  10.353  0.0094 -0.2337 -0.0216
  191loPI   GL2 3046   6.168  11.386  10.229 -0.0462  0.0382  0.3448
  191loPI   C1A 3047   6.035  11.823  10.136  0.2655  0.0316 -0.0372
  191loPI   C2A 3048   5.995  12.085   9.801  0.2022 -0.0151 -0.2177
  191loPI   C3A 3049   5.946  12.085   9.369  0.0331 -0.1623  0.0109
  191loPI   C4A 3050   5.881  11.825   9.085 -0.0223  0.0356 -0.1424
  191loPI   C5A 3051   5.833  11.405   8.842 -0.0795 -0.0885 -0.3623
  191loPI   C6A 3052   6.233  11.192   8.672 -0.3185  0.0200  0.0250
  191loPI   C1B 3053   6.005  11.442   9.836 -0.2673  0.5694  0.1379
  191loPI   C2B 3054   5.747  11.657   9.729 -0.0387 -0.1537  0.3264
  191loPI   C3B 3055   5.461  11.589   9.387 -0.0157  0.0514  0.0435
  191loPI   C4B 3056   5.270  11.759   8.942  0.1095  0.0831  0.3170
  192loPI    C1 3057   7.077   2.857  10.294  0.1241 -0.2233 -0.0277
  192loPI    C2 3058   6.876   2.886  10.639  0.0179 -0.0085 -0.1057
  192loPI    C3 3059   7.213   3.095  10.585  0.0333 -0.0402 -0.1332
  192loPI   PO4 3060   6.895   2.918   9.897 -0.0610 -0.0968 -0.0658
  192loPI   GL1 3061   6.868   2.843   9.473 -0.0287 -0.1558 -0.5236
  192loPI   GL2 3062   6.594   2.983   9.521  0.2526 -0.1839  0.0224
  192loPI   C1A 3063   6.736   2.786   9.005  0.0578  0.0062 -0.2653
  192loPI   C2A 3064   6.797   2.862   8.554  0.0491  0.0737  0.1023
  192loPI   C3A 3065   6.754   2.680   8.125 -0.2392  0.1262  0.3297
  192loPI   C4A 3066   6.847   2.633   7.738 -0.2250  0.3355 -0.3029
  192loPI   C5A 3067   7.170   2.732   7.667 -0.1617 -0.0755 -0.2681
  192loPI   C6A 3068   7.642   2.728   7.765 -0.2365 -0.0153 -0.1641
  192loPI   C1B 3069   6.261   2.913   9.222  0.1548 -0.0718  0.1052
  192loPI   C2B 3070   6.255   2.827   8.769 -0.0878 -0.0905 -0.0177
  192loPI   C3B 3071   6.229   2.791   8.311  0.1596 -0.2238  0.0100
  192loPI   C4B 3072   6.301   2.628   7.816  0.0667  0.2320 -0.1324
  193loPI    C1 3073  12.035   7.277  10.113  0.0078  0.0326 -0.1037
  193loPI    C2 3074  11.973   6.954  10.340  0.0716  0.0570 -0.0512
  193loPI    C3 3075  12.342   7.038  10.209  0.1277  0.3231  0.2624
  193loPI   PO4 3076  11.890   7.244   9.919 -0.0550 -0.1219  0.1840
  193loPI   GL1 3077  11.933   7.369   9.420 -0.1132  0.0341  0.0039
  193loPI   GL2 3078  11.965   6.994   9.401 -0.3183 -0.0223 -0.1413
  193loPI   C1A 3079  11.722   7.510   9.137  0.0406  0.0814 -0.1531
  193loPI   C2A 3080  11.607   7.437   8.711  0.0646 -0.3739  0.0068
  193loPI   C3A 3081  11.622   7.441   8.218  0.1504 -0.0524 -0.1542
  193loPI   C4A 3082  11.556   7.523   7.745 -0.0007 -0.0877  0.0920
  193loPI   C5A 3083  11.773   7.818   7.420 -0.3092 -0.4402 -0.4224
  193loPI   C6A 3084  11.849   7.789   7.033  0.2421 -0.0270  0.1007
  193loPI   C1B 3085  11.926   7.085   9.006 -0.2389  0.1287 -0.0633
  193loPI   C2B 3086  11.949   7.027   8.525 -0.0128  0.0416  0.0231
  193loPI   C3B 3087  11.818   7.008   8.094  0.2345  0.0595 -0.3357
  193loPI   C4B 3088  11.731   6.742   7.858 -0.1192  0.0603 -0.0879
  194loPI    C1 3089  16.538   0.930  10.424  0.1242 -0.0147 -0.0582
  194loPI    C2 3090  16.437   0.570  10.566 -0.1240  0.0267 -0.1237
  194loPI    C3 3091  16.341   0.900  10.771 -0.1194  0.0676 -0.1871
  194loPI   PO4 3092  16.799   0.954  10.362  0.0991 -0.0377  0.1362
  194loPI   GL1 3093  16.984   0.957   9.963 -0.1065  0.1801 -0.1244
  194loPI   GL2 3094  16.981   0.557  10.100 -0.1208 -0.0560  0.1217
  194loPI   C1A 3095  17.096   0.984   9.529  0.2450  0.1816 -0.1414
  194loPI   C2A 3096  17.119   1.070   9.105 -0.1454  0.2868 -0.0601
  194loPI   C3A 3097  17.157   1.151   8.756 -0.1712 -0.1890 -0.0507
  194loPI   C4A 3098  17.049   1.342   8.407 -0.3628  0.0218  0.1090
  194loPI   C5A 3099  16.784   1.441   8.117 -0.1120  0.2702  0.0522
  194loPI   C6A 3100  16.583   1.177   7.836  0.2433  0.1282 -0.1817
  194loPI   C1B 3101  17.228   0.554   9.700 -0.1442  0.0126  0.0513
  194loPI   C2B 3102  17.282   0.566   9.223  0.3739 -0.3574  0.2841
  194loPI   C3B 3103  17.392   0.720   8.834  0.0129 -0.3603 -0.1549
  194loPI   C4B 3104  17.373   0.676   8.373 -0.1281 -0.3441  0.2419
  195loPI    C1 3105   4.332  17.573  11.037  0.0907  0.1588 -0.0301
  195loPI    C2 3106   4.327  17.836  11.338  0.3924  0.2336 -0.0873
  195loPI    C3 3107   4.580  17.526  11.347  0.1000 -0.0096 -0.0620
  195loPI   PO4 3108   4.238  17.432  10.952 -0.1895 -0.1716  0.1162
  195loPI   GL1 3109   4.070  17.290  10.537  0.2934  0.1036 -0.0286
  195loPI   GL2 3110   3.882  17.006  10.490 -0.2068  0.0730 -0.2132
  195loPI   C1A 3111   4.300  17.249  10.193 -0.3338 -0.0604  0.0438
  195loPI   C2A 3112   4.506  17.247   9.916  0.1704 -0.0646  0.0272
  195loPI   C3A 3113   4.582  17.360   9.543  0.1918  0.4607  0.0890
  195loPI   C4A 3114   4.516  17.364   9.187  0.5171 -0.2841 -0.1573
  195loPI   C5A 3115   4.450  17.341   8.692 -0.0258 -0.3793 -0.0427
  195loPI   C6A 3116   4.603  17.204   8.384 -0.2759  0.1635  0.0014
  195loPI   C1B 3117   3.728  16.699  10.097  0.1267  0.0348  0.0111
  195loPI   C2B 3118   3.834  16.510   9.763  0.3044 -0.1827 -0.0210
  195loPI   C3B 3119   3.872  16.580   9.308 -0.4351 -0.2448  0.0671
  195loPI   C4B 3120   3.895  16.483   8.937 -0.1638  0.0945 -0.5212
  196loPI    C1 3121   6.174  13.181  10.760 -0.3544  0.2523 -0.0603
  196loPI    C2 3122   6.277  13.273  11.135 -0.0904 -0.0355 -0.0589
  196loPI    C3 3123   6.249  13.561  10.860  0.1363  0.1244  0.0825
  196loPI   PO4 3124   6.268  13.033  10.645  0.0015 -0.0728 -0.2622
  196loPI   GL1 3125   6.408  12.898  10.250  0.1340  0.2224 -0.1589
  196loPI   GL2 3126   6.333  12.657  10.105 -0.1456  0.2819  0.2305
  196loPI   C1A 3127   6.551  13.018   9.801  0.0830  0.0497 -0.0519
  196loPI   C2A 3128   6.522  12.963   9.422 -0.2911 -0.3549  0.1213
  196loPI   C3A 3129   6.557  13.060   8.894 -0.1062 -0.1700  0.1383
  196loPI   C4A 3130   6.529  13.142   8.544  0.0494 -0.0384  0.0511
  196loPI   C5A 3131   6.537  13.333   8.010  0.0818 -0.0064 -0.3159
  196loPI   C6A 3132   6.647  13.475   7.577 -0.1281  0.2185 -0.2799
  196loPI   C1B 3133   6.299  12.508   9.628  0.0841  0.2880 -0.0717
  196loPI   C2B 3134   6.399  12.338   9.298  0.0784 -0.0003  0.1630
  196loPI   C3B 3135   6.251  12.144   8.936 -0.3707 -0.0789  0.0029
  196loPI   C4B 3136   5.935  12.271   8.661 -0.0645  0.3511  0.0072
  197loPI    C1 3137  17.123  17.240  10.590 -0.2668  0.1780  0.1421
  197loPI    C2 3138  16.959  17.339  10.941 -0.0849  0.1430  0.2380
  197loPI    C3 3139  17.166  17.611  10.734 -0.3837  0.2287  0.0471
  197loPI   PO4 3140  16.986  17.185  10.430  0.1140 -0.0770 -0.0763
  197loPI   GL1 3141  17.068  17.448  10.147  0.2625  0.0372  0.0616
  197loPI   GL2 3142  17.273  17.668  10.270 -0.0821  0.0436 -0.0020
  197loPI   C1A 3143  16.948  17.301   9.771 -0.1027  0.0720  0.1177
  197loPI   C2A 3144  17.029  17.366   9.371 -0.2636  0.0354 -0.0106
  197loPI   C3A 3145  17.110  17.390   9.015 -0.0140 -0.1704 -0.1686
  197loPI   C4A 3146  17.157  17.483   8.564 -0.0111  0.3787  0.2795
  197loPI   C5A 3147  17.336  17.556   8.119 -0.2008  0.3667  0.2198
  197loPI   C6A 3148  17.773  17.693   8.041  0.1750  0.0870  0.0199
  197loPI   C1B 3149  17.271  17.712   9.827  0.1736 -0.3768 -0.1757
  197loPI   C2B 3150  17.414  17.730   9.402 -0.0350  0.0031  0.1721
  197loPI   C3B 3151  17.458  17.753   8.956 -0.0772  0.2509 -0.2168
  197loPI   C4B 3152  17.503  17.904   8.539  0.1563  0.3223  0.1212
  198loPI    C1 3153  15.261   7.103  10.036 -0.0778 -0.0841 -0.1806
  198loPI    C2 3154  15.204   7.367  10.331  0.1802  0.0246 -0.2247
  198loPI    C3 3155  15.228   6.977  10.414 -0.0541  0.0263 -0.1411
  198loPI   PO4 3156  15.489   7.299   9.938 -0.1248 -0.0889 -0.0537
  198loPI   GL1 3157  15.480   7.270   9.522 -0.2059  0.0304  0.1314
  198loPI   GL2 3158  15.333   7.549   9.519 -0.2554  0.0637  0.2363
  198loPI   C1A 3159  15.375   7.245   9.087 -0.2083  0.0480  0.0769
  198loPI   C2A 3160  15.414   7.244   8.563 -0.0007  0.2198  0.0761
  198loPI   C3A 3161  15.385   7.137   8.111 -0.1835 -0.0539 -0.0449
  198loPI   C4A 3162  15.424   6.935   7.771  0.0772  0.0047  0.3039
  198loPI   C5A 3163  15.347   6.915   7.402 -0.0798 -0.0211  0.0146
  198loPI   C6A 3164  15.356   6.983   6.964 -0.1537 -0.0428  0.0536
  198loPI   C1B 3165  15.454   7.771   9.085 -0.0572 -0.3238 -0.4059
  198loPI   C2B 3166  15.510   7.745   8.684 -0.0316 -0.1474  0.0854
  198loPI   C3B 3167  15.576   7.658   8.234  0.0631 -0.1854  0.1162
  198loPI   C4B 3168  15.616   7.521   7.848  0.0887  0.0937 -0.0976
  199loPI    C1 3169   4.451  13.159  10.853  0.1591 -0.0837 -0.0737
  199loPI    C2 3170   4.425  12.769  10.936  0.0581 -0.0945 -0.1538
  199loPI    C3 3171   4.769  12.964  10.997  0.1183 -0.2030 -0.1437
  199loPI   PO4 3172   4.293  13.147  10.630 -0.1384  0.0306  0.1104
  199loPI   GL1 3173   4.366  13.056  10.230  0.0024  0.1448 -0.1279
  199loPI   GL2 3174   4.580  13.180  10.086  0.0074  0.0494  0.0784
  199loPI   C1A 3175   4.127  12.782   9.947 -0.1834 -0.0143 -0.0276
  199loPI   C2A 3176   3.806  12.650   9.686 -0.1382 -0.0286  0.0600
  199loPI   C3A 3177   3.797  12.688   9.314  0.1384  0.0570  0.2471
  199loPI   C4A 3178   3.861  12.757   8.854  0.1457 -0.0255 -0.2164
  199loPI   C5A 3179   3.812  12.918   8.438  0.1878  0.0651 -0.1813
  199loPI   C6A 3180   3.788  13.095   7.961 -0.1822  0.1567 -0.0330
  199loPI   C1B 3181   4.320  13.390   9.793 -0.1491  0.2766  0.0099
  199loPI   C2B 3182   4.325  13.478   9.359  0.0522 -0.0146 -0.1115
  199loPI   C3B 3183   4.544  13.677   9.067 -0.1923  0.0424  0.0517
  199loPI   C4B 3184   4.732  13.530   8.692  0.0644  0.1937 -0.1310
  200loPI    C1 3185   7.370   3.298  10.128 -0.1581 -0.1977 -0.0562
  200loPI    C2 3186   7.060   3.527  10.235 -0.0728 -0.0335 -0.1571
  200loPI    C3 3187   7.432   3.634  10.336 -0.0385 -0.1693 -0.1369
  200loPI   PO4 3188   7.372   3.229   9.878 -0.0636 -0.1155  0.0398
  200loPI   GL1 3189   7.422   2.919   9.544 -0.1824  0.0378 -0.0632
  200loPI   GL2 3190   7.212   3.178   9.386  0.2659 -0.0408 -0.2536
  200loPI   C1A 3191   7.404   2.732   9.142 -0.0307 -0.1231 -0.3977
  200loPI   C2A 3192   7.371   2.757   8.747  0.1038 -0.0914  0.0330
  200loPI   C3A 3193   7.254   2.715   8.343  0.3841  0.2618 -0.1897
  200loPI   C4A 3194   7.215   2.427   8.063  0.3215 -0.0987 -0.1114
  200loPI   C5A 3195   6.862   2.105   7.874 -0.1733 -0.0735  0.0104
  200loPI   C6A 3196   6.535   2.144   7.681  0.0176  0.0538  0.2687
  200loPI   C1B 3197   7.130   3.155   8.936 -0.2032 -0.1084 -0.0489
  200loPI   C2B 3198   7.140   3.183   8.464  0.1266  0.0892  0.0416
  200loPI   C3B 3199   7.015   3.099   7.995  0.0916 -0.1095  0.0522
  200loPI   C4B 3200   6.903   3.187   7.519  0.3194  0.1733 -0.2826
  201loPI    C1 3201  15.567   8.253  10.398 -0.1351 -0.0808  0.0780
  201loPI    C2 3202  15.571   8.613  10.572 -0.3137 -0.0462  0.0127
  201loPI    C3 3203  15.871   8.357  10.637  0.0736  0.3025 -0.3391
  201loPI   PO4 3204  15.388   8.344  10.176  0.2178 -0.0765  0.1144
  201loPI   GL1 3205  15.308   8.298   9.807 -0.1204  0.1218  0.2593
  201loPI   GL2 3206  15.005   8.548   9.856 -0.1027  0.0936 -0.1157
  201loPI   C1A 3207  15.452   8.310   9.298  0.4526  0.2101 -0.1032
  201loPI   C2A 3208  15.504   8.231   8.814 -0.0854 -0.0068 -0.0379
  201loPI   C3A 3209  15.383   8.545   8.473 -0.0601 -0.0184  0.4257
  201loPI   C4A 3210  15.288   8.918   8.266 -0.1514  0.3223 -0.1112
  201loPI   C5A 3211  15.522   9.320   8.211  0.1618  0.3545  0.1465
  201loPI   C6A 3212  15.311   9.588   7.925  0.0300  0.1900 -0.2090
  201loPI   C1B 3213  14.995   8.519   9.432 -0.0693 -0.0765 -0.0760
  201loPI   C2B 3214  15.010   8.500   9.087  0.0941 -0.5604 -0.2425
  201loPI   C3B 3215  14.898   8.478   8.674 -0.1180 -0.0936  0.0215
  201loPI   C4B 3216  14.962   8.427   8.183 -0.0433 -0.1211 -0.0933
  202loPI    C1 3217  14.986  11.062  10.343 -0.1932  0.2762  0.1989
  202loPI    C2 3218  14.661  10.833  10.297 -0.0177  0.1003 -0.2167
  202loPI    C3 3219  14.781  10.938  10.663 -0.2545 -0.2510 -0.0330
  202loPI   PO4 3220  15.200  10.924  10.247 -0.3805 -0.1487 -0.0851
  202loPI   GL1 3221  15.366  10.972   9.846 -0.2028  0.2307  0.0400
  202loPI   GL2 3222  15.386  11.208   9.701 -0.0779  0.0714 -0.0149
  202loPI   C1A 3223  15.104  10.957   9.382  0.2262  0.0485 -0.2744
  202loPI   C2A 3224  15.013  11.222   8.978  0.0293 -0.2136  0.3078
  202loPI   C3A 3225  14.872  11.356   8.620  0.2838 -0.2655 -0.1538
  202loPI   C4A 3226  14.774  11.273   8.130  0.0698 -0.1343 -0.1823
  202loPI   C5A 3227  14.541  11.027   7.838  0.0587  0.1268 -0.0872
  202loPI   C6A 3228  14.682  10.866   7.488 -0.0209  0.2698  0.1261
  202loPI   C1B 3229  15.582  11.208   9.277 -0.0080 -0.1787  0.3216
  202loPI   C2B 3230  15.677  11.258   8.872  0.0872  0.0561 -0.0177
  202loPI   C3B 3231  15.696  11.236   8.383 -0.0178 -0.0045 -0.1716
  202loPI   C4B 3232  15.798  11.054   7.946 -0.1185 -0.0888 -0.0508
  203loPI    C1 3233  15.682   4.663  10.523 -0.1594 -0.0811  0.2282
  203loPI    C2 3234  15.692   5.022  10.347  0.2944 -0.1239  0.1559
  203loPI    C3 3235  15.675   4.996  10.745 -0.0521 -0.0265  0.1506
  203loPI   PO4 3236  15.553   4.484  10.306  0.0691 -0.4112 -0.3538
  203loPI   GL1 3237  15.564   4.355   9.845  0.0965 -0.1442 -0.0351
  203loPI   GL2 3238  15.789   4.052   9.792 -0.0193 -0.1584 -0.0659
  203loPI   C1A 3239  15.543   4.595   9.484 -0.1383 -0.2282 -0.0480
  203loPI   C2A 3240  15.622   4.624   9.026  0.1511  0.0855  0.3182
  203loPI   C3A 3241  15.733   4.670   8.604 -0.2038  0.1415 -0.0391
  203loPI   C4A 3242  15.733   4.506   8.204  0.0281 -0.2178 -0.1537
  203loPI   C5A 3243  15.612   4.245   7.939 -0.2806  0.1987 -0.0931
  203loPI   C6A 3244  15.763   3.919   7.622  0.1510  0.1125 -0.0716
  203loPI   C1B 3245  15.755   4.135   9.402  0.0945  0.3847  0.0566
  203loPI   C2B 3246  15.827   4.111   8.986 -0.2756 -0.2863 -0.3569
  203loPI   C3B 3247  15.983   4.195   8.585 -0.0143  0.3321 -0.0256
  203loPI   C4B 3248  16.065   4.118   8.163  0.2900  0.0270  0.0662
  204loPI    C1 3249  13.738   5.392  10.276  0.0641 -0.1181  0.0564
  204loPI    C2 3250  13.994   5.281   9.988 -0.0017 -0.0855 -0.0152
  204loPI    C3 3251  13.715   5.025  10.117 -0.0087 -0.0805 -0.0205
  204loPI   PO4 3252  13.771   5.668  10.178 -0.1430 -0.3773 -0.0505
  204loPI   GL1 3253  13.789   5.746   9.681 -0.2474  0.2124 -0.3344
  204loPI   GL2 3254  13.468   5.620   9.495  0.1538  0.0507 -0.0772
  204loPI   C1A 3255  13.780   5.823   9.242 -0.2127  0.1843 -0.0119
  204loPI   C2A 3256  13.841   5.870   8.895  0.0645 -0.2353 -0.2360
  204loPI   C3A 3257  13.911   5.973   8.492 -0.1812 -0.4309  0.1098
  204loPI   C4A 3258  13.848   5.885   8.106  0.2826 -0.3119  0.1195
  204loPI   C5A 3259  14.011   5.824   7.756 -0.4771 -0.0259 -0.2915
  204loPI   C6A 3260  14.358   5.855   7.456  0.1065 -0.3569  0.1289
  204loPI   C1B 3261  13.242   5.455   9.304 -0.0890 -0.2120 -0.1835
  204loPI   C2B 3262  13.215   5.238   9.038  0.1946  0.0486 -0.0584
  204loPI   C3B 3263  13.087   5.178   8.676  0.0877 -0.1672 -0.2660
  204loPI   C4B 3264  13.090   5.304   8.214  0.2655  0.0997 -0.0628
  205loPI    C1 3265  16.754   6.841  10.273 -0.0824  0.1714 -0.1021
  205loPI    C2 3266  17.135   6.939  10.197  0.0167  0.0143  0.1785
  205loPI    C3 3267  16.961   7.060  10.536 -0.2514  0.2584 -0.0405
  205loPI   PO4 3268  16.677   6.699   9.999  0.0483  0.1766  0.4471
  205loPI   GL1 3269  16.888   6.868   9.636  0.0290  0.0060 -0.0017
  205loPI   GL2 3270  16.684   6.783   9.441 -0.0954 -0.2511  0.0677
  205loPI   C1A 3271  17.223   6.775   9.260  0.0535  0.0606  0.6031
  205loPI   C2A 3272  17.325   6.662   8.784  0.0559 -0.1639  0.0602
  205loPI   C3A 3273  17.348   6.616   8.320 -0.2625 -0.1942 -0.3522
  205loPI   C4A 3274  17.318   6.620   7.886 -0.0768  0.2331 -0.2780
  205loPI   C5A 3275  17.312   6.702   7.423  0.0850  0.1742 -0.0268
  205loPI   C6A 3276  17.088   6.605   7.060 -0.2599 -0.1970  0.1144
  205loPI   C1B 3277  16.719   6.784   9.016  0.1185 -0.1676 -0.1589
  205loPI   C2B 3278  16.847   6.672   8.603 -0.1455 -0.2494  0.1491
  205loPI   C3B 3279  16.839   6.587   8.158 -0.0377  0.3048  0.1952
  205loPI   C4B 3280  16.904   6.507   7.678  0.1191  0.3345 -0.3268
  206loPI    C1 3281   4.553  15.154  11.035 -0.0161  0.0476  0.0805
  206loPI    C2 3282   4.330  15.334  11.315  0.1824  0.0119  0.2644
  206loPI    C3 3283   4.256  14.954  11.215  0.0785  0.0406  0.2308
  206loPI   PO4 3284   4.546  15.240  10.842 -0.1175  0.0495  0.2737
  206loPI   GL1 3285   4.479  15.134  10.379 -0.0064  0.0919  0.1915
  206loPI   GL2 3286   4.403  15.408  10.374  0.1112 -0.1271 -0.4248
  206loPI   C1A 3287   4.558  15.030  10.022  0.0534  0.1626  0.0901
  206loPI   C2A 3288   4.503  15.077   9.588  0.1298 -0.1156 -0.1987
  206loPI   C3A 3289   4.493  15.010   9.102 -0.3043 -0.1131 -0.0743
  206loPI   C4A 3290   4.414  15.195   8.724  0.0583  0.0423 -0.1243
  206loPI   C5A 3291   4.563  15.316   8.378  0.0722 -0.2561  0.1235
  206loPI   C6A 3292   4.863  15.461   7.999  0.1505  0.2930 -0.2447
  206loPI   C1B 3293   4.258  15.607   9.901 -0.2282 -0.1254 -0.1730
  206loPI   C2B 3294   4.288  15.484   9.535  0.0158  0.3505  0.3302
  206loPI   C3B 3295   4.360  15.670   8.998  0.0545 -0.0237  0.1336
  206loPI   C4B 3296   4.322  15.694   8.604  0.2109  0.0258 -0.0155
  207loPI    C1 3297  14.319  10.495  10.384 -0.0130  0.0248  0.0350
  207loPI    C2 3298  14.289  10.233  10.685 -0.2682 -0.0909 -0.0879
  207loPI    C3 3299  14.263  10.625  10.758  0.1430 -0.0940  0.1006
  207loPI   PO4 3300  14.163  10.471  10.166 -0.0507 -0.2342 -0.1104
  207loPI   GL1 3301  14.063  10.523   9.723 -0.1418  0.1455 -0.0738
  207loPI   GL2 3302  14.373  10.702   9.554 -0.0852  0.2063 -0.2972
  207loPI   C1A 3303  13.940  10.409   9.319  0.1751 -0.0894  0.1528
  207loPI   C2A 3304  13.927  10.455   8.893 -0.3212 -0.1959 -0.0129
  207loPI   C3A 3305  13.964  10.408   8.497  0.0364 -0.0706 -0.3497
  207loPI   C4A 3306  13.974  10.350   8.064  0.0796 -0.1767 -0.4098
  207loPI   C5A 3307  13.985  10.241   7.605  0.1552 -0.0452  0.1467
  207loPI   C6A 3308  14.131  10.476   7.191 -0.0010  0.2703 -0.1139
  207loPI   C1B 3309  14.362  10.713   9.107  0.0102  0.1436 -0.3518
  207loPI   C2B 3310  14.338  10.709   8.668 -0.0008 -0.0584 -0.0440
  207loPI   C3B 3311  14.265  10.814   8.239  0.0329  0.0730  0.1739
  207loPI   C4B 3312  14.009  11.110   7.895 -0.2082 -0.0270  0.1214
  208loPI    C1 3313  17.788  10.019  10.494 -0.2817  0.0309  0.1444
  208loPI    C2 3314  18.168   9.955  10.601 -0.2022 -0.0440 -0.1722
  208loPI    C3 3315  17.892  10.029  10.880  0.0389 -0.0134  0.0627
  208loPI   PO4 3316  17.775  10.052  10.324 -0.2450 -0.4456 -0.2261
  208loPI   GL1 3317  17.545  10.163  10.000  0.0205 -0.0852  0.1047
  208loPI   GL2 3318  17.400  10.078   9.707 -0.1416  0.0398  0.4360
  208loPI   C1A 3319  17.882  10.126   9.676  0.1868  0.4873 -0.1133
  208loPI   C2A 3320  17.974   9.808   9.374  0.1876  0.1135  0.0914
  208loPI   C3A 3321  18.156   9.663   8.970 -0.0659 -0.0147  0.0444
  208loPI   C4A 3322  18.125   9.462   8.607 -0.0842  0.0142  0.0659
  208loPI   C5A 3323  18.071   9.525   8.096  0.1687 -0.1463  0.0090
  208loPI   C6A 3324  18.285   9.737   7.777  0.0823 -0.2179 -0.0154
  208loPI   C1B 3325  17.459  10.007   9.260  0.3741 -0.0896  0.0723
  208loPI   C2B 3326  17.519  10.045   8.848 -0.1107  0.0048 -0.0275
  208loPI   C3B 3327  17.483   9.966   8.416 -0.1213  0.1415  0.0707
  208loPI   C4B 3328  17.678   9.809   8.156 -0.1144  0.0176 -0.2763
  209loPI    C1 3329   7.990   9.678  10.256 -0.3225  0.1216 -0.1998
  209loPI    C2 3330   7.905   9.857  10.604  0.1894 -0.0132  0.0044
  209loPI    C3 3331   7.658   9.579  10.456  0.0626 -0.0934  0.3576
  209loPI   PO4 3332   8.051   9.847  10.061 -0.1785 -0.2452  0.0293
  209loPI   GL1 3333   7.850   9.970   9.676 -0.0949  0.0988 -0.0341
  209loPI   GL2 3334   7.502  10.138   9.702  0.1145 -0.1458 -0.3087
  209loPI   C1A 3335   8.086  10.226   9.458 -0.0275  0.0336  0.2410
  209loPI   C2A 3336   7.962  10.446   9.026 -0.0521 -0.1556 -0.3029
  209loPI   C3A 3337   8.101  10.589   8.625 -0.4184 -0.0373 -0.3640
  209loPI   C4A 3338   8.056  10.754   8.222  0.2314  0.2932 -0.2237
  209loPI   C5A 3339   7.641  10.625   7.898 -0.2417 -0.0884 -0.2377
  209loPI   C6A 3340   7.538  10.677   7.610 -0.1137 -0.4598 -0.1379
  209loPI   C1B 3341   7.640  10.146   9.288 -0.2064 -0.1591 -0.0301
  209loPI   C2B 3342   7.492  10.329   8.768 -0.3360 -0.0673  0.4311
  209loPI   C3B 3343   7.510  10.513   8.458 -0.1437 -0.1223  0.2496
  209loPI   C4B 3344   7.588  10.996   8.273 -0.0305  0.1083 -0.0265
  210loPI    C1 3345   2.422  16.243  11.154 -0.2289 -0.0759  0.0274
  210loPI    C2 3346   2.255  16.197  11.514 -0.0663 -0.0204  0.1107
  210loPI    C3 3347   2.438  15.888  11.338  0.1628  0.0434  0.2334
  210loPI   PO4 3348   2.230  16.376  10.934  0.2196  0.1783 -0.1541
  210loPI   GL1 3349   2.048  16.272  10.550  0.1591 -0.1803 -0.0503
  210loPI   GL2 3350   2.280  16.480  10.402  0.0202  0.3586 -0.0684
  210loPI   C1A 3351   1.884  16.381  10.063  0.1458  0.1588  0.0110
  210loPI   C2A 3352   1.924  16.389   9.694 -0.1948  0.3289  0.0011
  210loPI   C3A 3353   1.981  16.366   9.256  0.0062 -0.0311  0.2075
  210loPI   C4A 3354   1.906  16.383   8.789  0.1862  0.0260 -0.1741
  210loPI   C5A 3355   1.813  16.444   8.379 -0.0686  0.5048  0.0590
  210loPI   C6A 3356   1.895  16.288   7.971  0.2847  0.2380  0.0100
  210loPI   C1B 3357   2.236  16.728  10.012  0.0093 -0.1042 -0.2442
  210loPI   C2B 3358   2.236  16.758   9.572 -0.0033 -0.0003 -0.1775
  210loPI   C3B 3359   2.312  16.761   9.129 -0.1663  0.2904  0.1631
  210loPI   C4B 3360   2.224  16.771   8.662  0.0740 -0.1280  0.1854
  211loPI    C1 3361  12.180   2.484  10.390  0.2461 -0.2224  0.1749
  211loPI    C2 3362  12.279   2.301  10.048  0.1073 -0.4481  0.2533
  211loPI    C3 3363  12.551   2.519  10.245  0.0987 -0.0377 -0.1705
  211loPI   PO4 3364  12.017   2.649  10.274 -0.3152 -0.2757 -0.1506
  211loPI   GL1 3365  11.931   2.563   9.853  0.0853  0.0431 -0.2542
  211loPI   GL2 3366  11.635   2.407   9.893  0.1564  0.3573 -0.1882
  211loPI   C1A 3367  11.943   2.690   9.478 -0.0591  0.1319  0.1761
  211loPI   C2A 3368  11.979   2.674   9.026 -0.0584  0.0218  0.1124
  211loPI   C3A 3369  11.858   2.515   8.617 -0.3244 -0.0188 -0.1476
  211loPI   C4A 3370  11.814   2.400   8.132 -0.0854  0.0150 -0.0975
  211loPI   C5A 3371  11.760   2.066   7.918 -0.0168  0.1979 -0.0404
  211loPI   C6A 3372  11.695   1.604   7.894 -0.2760  0.0253  0.3249
  211loPI   C1B 3373  11.536   2.091   9.644 -0.0542  0.1781 -0.3674
  211loPI   C2B 3374  11.393   1.929   9.207  0.3956 -0.2005  0.1381
  211loPI   C3B 3375  11.431   1.927   8.812  0.0380  0.1053  0.0436
  211loPI   C4B 3376  11.416   1.849   8.291 -0.0977  0.1882  0.2511
  212loPI    C1 3377   5.665   2.060  10.454  0.1277  0.1787 -0.0637
  212loPI    C2 3378   6.063   2.038  10.424  0.1625  0.1516  0.3604
  212loPI    C3 3379   5.895   2.306  10.669 -0.0815  0.1522  0.1958
  212loPI   PO4 3380   5.575   2.164  10.186 -0.2665  0.0228  0.2876
  212loPI   GL1 3381   5.808   2.243   9.809  0.0622 -0.2327  0.2899
  212loPI   GL2 3382   6.134   2.032   9.866 -0.3156 -0.0618 -0.1694
  212loPI   C1A 3383   5.635   2.016   9.367 -0.0959 -0.1854 -0.2567
  212loPI   C2A 3384   5.611   2.019   8.963  0.1586 -0.4873 -0.0936
  212loPI   C3A 3385   5.720   2.011   8.524 -0.1142 -0.2736  0.0474
  212loPI   C4A 3386   5.653   1.926   8.131 -0.3450  0.0100 -0.0276
  212loPI   C5A 3387   5.483   2.203   7.860 -0.0665  0.3025  0.3060
  212loPI   C6A 3388   5.397   2.613   7.895  0.1091 -0.2071 -0.5483
  212loPI   C1B 3389   6.219   1.876   9.441  0.0878  0.1351 -0.1470
  212loPI   C2B 3390   6.140   1.962   9.119 -0.0991  0.0736 -0.0463
  212loPI   C3B 3391   6.147   1.970   8.776  0.2329 -0.2431  0.0874
  212loPI   C4B 3392   6.147   1.807   8.296 -0.4482  0.0142 -0.2017
  213loPI    C1 3393   8.600  13.433  11.180  0.2273  0.0609 -0.0591
  213loPI    C2 3394   8.712  13.282  11.533  0.1178  0.2085  0.0401
  213loPI    C3 3395   8.605  13.667  11.504 -0.2900  0.0925 -0.0650
  213loPI   PO4 3396   8.821  13.374  11.023  0.1677 -0.0372  0.0290
  213loPI   GL1 3397   8.975  13.621  10.601 -0.0118 -0.0404 -0.3509
  213loPI   GL2 3398   9.007  13.275  10.460 -0.2519 -0.2369  0.1284
  213loPI   C1A 3399   8.840  13.841  10.286 -0.0996  0.0012  0.5264
  213loPI   C2A 3400   8.617  14.060   9.946  0.2728  0.1135 -0.1000
  213loPI   C3A 3401   8.634  14.063   9.537 -0.0098  0.0242 -0.1390
  213loPI   C4A 3402   8.871  13.945   9.198  0.0082 -0.1259  0.2414
  213loPI   C5A 3403   8.921  13.567   8.890  0.0166  0.3915 -0.2706
  213loPI   C6A 3404   8.789  13.375   8.565 -0.0235  0.0700  0.0398
  213loPI   C1B 3405   9.196  13.388  10.104  0.0681 -0.1639  0.1056
  213loPI   C2B 3406   9.343  13.171  10.021 -0.0813 -0.1898  0.1749
  213loPI   C3B 3407   9.632  13.174   9.796  0.1175  0.1795  0.3369
  213loPI   C4B 3408   9.970  13.376   9.557 -0.1622 -0.0364 -0.1299
  214loPI    C1 3409  14.238  18.187  10.551  0.1627 -0.0235  0.0427
  214loPI    C2 3410  14.594  18.328  10.666  0.1096  0.0426  0.1275
  214loPI    C3 3411  14.407  18.053  10.888  0.0223  0.1453  0.1819
  214loPI   PO4 3412  14.158  18.386  10.373 -0.1199 -0.1571  0.1240
  214loPI   GL1 3413  14.297  18.464   9.997  0.0533 -0.2117 -0.0353
  214loPI   GL2 3414  14.029  18.396   9.847 -0.0413  0.0535  0.0940
  214loPI   C1A 3415  14.524  18.793   9.747  0.1278  0.2012 -0.1174
  214loPI   C2A 3416  14.467  19.011   9.366 -0.0049 -0.0510 -0.4142
  214loPI   C3A 3417  14.458  19.066   8.990  0.1284  0.0156 -0.1112
  214loPI   C4A 3418  14.452  18.961   8.552 -0.1769  0.8023  0.0670
  214loPI   C5A 3419  14.390  18.814   8.138  0.1074 -0.0857  0.0771
  214loPI   C6A 3420  14.626  18.530   7.884  0.2302 -0.2066 -0.1895
  214loPI   C1B 3421  14.100  18.631   9.479 -0.0652  0.0584 -0.3551
  214loPI   C2B 3422  14.108  18.672   9.021 -0.1167 -0.0929  0.0736
  214loPI   C3B 3423  13.942  18.523   8.599  0.0416 -0.1224  0.0718
  214loPI   C4B 3424  14.050  18.397   8.086 -0.0260 -0.0886  0.0504
  215loPI    C1 3425   3.950  16.469  11.110 -0.0908 -0.0455 -0.2032
  215loPI    C2 3426   3.668  16.697  11.277 -0.1920 -0.3776  0.0921
  215loPI    C3 3427   4.054  16.789  11.325 -0.2334 -0.2289  0.1465
  215loPI   PO4 3428   3.875  16.441  10.787  0.2372 -0.1375 -0.1593
  215loPI   GL1 3429   3.572  16.317  10.493 -0.0091  0.0529  0.0496
  215loPI   GL2 3430   3.227  16.352  10.506 -0.1245  0.1737  0.1749
  215loPI   C1A 3431   3.590  16.172  10.061 -0.1681 -0.0048 -0.0588
  215loPI   C2A 3432   3.510  16.162   9.590  0.0244  0.2871  0.0058
  215loPI   C3A 3433   3.521  16.112   9.252  0.2401 -0.2081  0.1926
  215loPI   C4A 3434   3.553  16.104   8.795  0.3524 -0.2340  0.0227
  215loPI   C5A 3435   3.640  16.397   8.467  0.0288 -0.0580 -0.0195
  215loPI   C6A 3436   3.745  16.838   8.260 -0.0777  0.0561  0.1361
  215loPI   C1B 3437   3.033  16.320  10.156  0.1240 -0.1521 -0.0793
  215loPI   C2B 3438   2.920  16.281   9.689 -0.0173  0.2393 -0.0417
  215loPI   C3B 3439   2.974  16.125   9.323 -0.0400 -0.2647  0.1009
  215loPI   C4B 3440   2.943  16.138   8.839 -0.0459 -0.0505 -0.0136
  216loPI    C1 3441  12.493  10.228  10.360  0.0481 -0.0143 -0.0205
  216loPI    C2 3442  12.740  10.068  10.630  0.1107  0.3846  0.1650
  216loPI    C3 3443  12.361  10.147  10.729 -0.0370 -0.0233 -0.0528
  216loPI   PO4 3444  12.397  10.079  10.121 -0.0688  0.3723  0.0988
  216loPI   GL1 3445  12.297  10.074   9.711  0.0296 -0.0227  0.0968
  216loPI   GL2 3446  12.568  10.192   9.407 -0.0038  0.0495 -0.0252
  216loPI   C1A 3447  12.028  10.243   9.383  0.0758  0.3501  0.1820
  216loPI   C2A 3448  12.100  10.590   9.037  0.0432  0.0595 -0.0581
  216loPI   C3A 3449  11.978  10.530   8.651  0.1254  0.1010  0.2036
  216loPI   C4A 3450  12.036  10.375   8.186  0.2488 -0.1541  0.1571
  216loPI   C5A 3451  11.758  10.519   7.904 -0.0980  0.0427  0.0928
  216loPI   C6A 3452  11.497  10.486   7.567  0.0332 -0.1373  0.1585
  216loPI   C1B 3453  12.586  10.116   8.965  0.2192  0.0597  0.1331
  216loPI   C2B 3454  12.618  10.149   8.525  0.2110 -0.0258  0.2120
  216loPI   C3B 3455  12.713  10.169   8.093 -0.0022  0.1334 -0.1293
  216loPI   C4B 3456  12.646  10.281   7.635  0.0900 -0.2741 -0.0580
  217loPI    C1 3457  13.855   1.723  10.500 -0.2512 -0.0838 -0.2106
  217loPI    C2 3458  13.877   1.924  10.845  0.0366  0.0001 -0.2749
  217loPI    C3 3459  13.567   1.681  10.774 -0.0297 -0.0105  0.0372
  217loPI   PO4 3460  13.887   1.879  10.355 -0.0632  0.0108 -0.0908
  217loPI   GL1 3461  13.727   1.722  10.018  0.0769  0.1110 -0.1775
  217loPI   GL2 3462  13.755   2.132   9.945  0.2177  0.1260  0.4227
  217loPI   C1A 3463  13.646   1.577   9.601  0.3987  0.3653 -0.3140
  217loPI   C2A 3464  13.519   1.595   9.168 -0.0505  0.2668  0.0260
  217loPI   C3A 3465  13.461   1.508   8.752  0.3473  0.2461 -0.1585
  217loPI   C4A 3466  13.355   1.347   8.321  0.1554  0.0932 -0.0584
  217loPI   C5A 3467  13.203   1.082   8.045  0.0965 -0.0683  0.1261
  217loPI   C6A 3468  13.011   0.740   7.738  0.0346  0.1869  0.1087
  217loPI   C1B 3469  13.809   2.091   9.501  0.0961 -0.0459 -0.0115
  217loPI   C2B 3470  13.873   1.986   9.046  0.2239  0.1881 -0.0003
  217loPI   C3B 3471  13.745   1.933   8.553 -0.1638  0.4698 -0.0711
  217loPI   C4B 3472  13.851   1.891   8.094  0.0983  0.0053  0.0348
  218loPI    C1 3473  16.269  17.741  10.515  0.1136  0.0816 -0.0377
  218loPI    C2 3474  16.552  17.585  10.750  0.0588  0.3039  0.1811
  218loPI    C3 3475  16.167  17.544  10.848  0.0332  0.3502  0.1005
  218loPI   PO4 3476  16.348  17.768  10.268 -0.1070 -0.1916  0.2468
  218loPI   GL1 3477  16.607  17.671   9.965 -0.1962 -0.0489 -0.1370
  218loPI   GL2 3478  16.330  17.827   9.741  0.1019 -0.1866  0.1663
  218loPI   C1A 3479  16.788  17.760   9.565  0.0699  0.3502  0.0858
  218loPI   C2A 3480  16.895  17.823   9.228  0.1272 -0.0063  0.0315
  218loPI   C3A 3481  16.971  17.901   8.836  0.1161 -0.1128 -0.1502
  218loPI   C4A 3482  16.979  17.931   8.364  0.0809  0.1494 -0.1690
  218loPI   C5A 3483  17.064  17.912   7.976  0.2115  0.0319 -0.2449
  218loPI   C6A 3484  17.382  17.974   7.850 -0.1668 -0.1607  0.1265
  218loPI   C1B 3485  16.379  17.849   9.283  0.1305 -0.2092  0.3479
  218loPI   C2B 3486  16.394  17.911   8.870 -0.2846  0.0553  0.2455
  218loPI   C3B 3487  16.459  17.904   8.501  0.2615 -0.2018  0.0339
  218loPI   C4B 3488  16.555  17.886   8.061 -0.1886  0.1872 -0.0321
  219loPI    C1 3489   1.599  10.642  10.100  0.0284  0.1606 -0.0761
  219loPI    C2 3490   1.423  10.888  10.361 -0.0221  0.0259  0.0177
  219loPI    C3 3491   1.715  11.024  10.124 -0.1504  0.2131 -0.0352
  219loPI   PO4 3492   1.328  10.499  10.042 -0.1743 -0.1902 -0.1391
  219loPI   GL1 3493   1.159  10.407   9.670  0.2909  0.0258 -0.0033
  219loPI   GL2 3494   0.844  10.593   9.589  0.1193  0.0437  0.2811
  219loPI   C1A 3495   1.329  10.396   9.328 -0.0081 -0.1228  0.1214
  219loPI   C2A 3496   1.258  10.577   8.841 -0.3477 -0.0977 -0.3805
  219loPI   C3A 3497   1.224  10.953   8.559 -0.1946 -0.1598  0.1823
  219loPI   C4A 3498   1.068  10.932   8.109 -0.0391  0.1111  0.0762
  219loPI   C5A 3499   0.941  11.026   7.727 -0.0093 -0.0261 -0.1346
  219loPI   C6A 3500   1.075  11.246   7.312  0.3163 -0.0666  0.0732
  219loPI   C1B 3501   1.109  10.878   9.409  0.0948 -0.2507 -0.0060
  219loPI   C2B 3502   1.628  10.786   9.563  0.2498  0.1414  0.3237
  219loPI   C3B 3503   1.874  10.705   9.284  0.3581  0.0542  0.1440
  219loPI   C4B 3504   1.854  10.758   8.937 -0.0551  0.2840  0.3973
  220loPI    C1 3505  16.563   4.106  10.615  0.0938  0.0957 -0.0592
  220loPI    C2 3506  16.361   3.868  10.865 -0.2776  0.1206 -0.3258
  220loPI    C3 3507  16.585   4.167  11.010 -0.0001 -0.2341 -0.0002
  220loPI   PO4 3508  16.701   3.844  10.396  0.2159  0.1488  0.1334
  220loPI   GL1 3509  16.519   3.874   9.991  0.0308  0.1035 -0.1208
  220loPI   GL2 3510  16.617   3.615   9.897 -0.2718  0.2202  0.0861
  220loPI   C1A 3511  16.390   4.035   9.636 -0.1351 -0.0001 -0.0301
  220loPI   C2A 3512  16.443   4.114   9.145  0.2016 -0.0208 -0.1203
  220loPI   C3A 3513  16.475   4.023   8.671 -0.3444 -0.0415  0.2143
  220loPI   C4A 3514  16.544   4.007   8.298 -0.1267  0.1197 -0.0891
  220loPI   C5A 3515  16.377   3.872   7.866  0.3907 -0.3154  0.3890
  220loPI   C6A 3516  16.545   3.547   7.652 -0.2130  0.5341 -0.0506
  220loPI   C1B 3517  16.744   3.622   9.509 -0.0575  0.2765 -0.0181
  220loPI   C2B 3518  16.689   3.656   9.141  0.0600  0.0793  0.0563
  220loPI   C3B 3519  16.603   3.546   8.664 -0.1238 -0.2263 -0.1549
  220loPI   C4B 3520  16.572   3.488   8.194  0.0146 -0.1884  0.2341
  221loPI    C1 3521  12.583  15.542  10.054  0.2489 -0.0839  0.0769
  221loPI    C2 3522  12.448  15.505  10.428  0.0004  0.0286  0.0004
  221loPI    C3 3523  12.319  15.256  10.144  0.0957  0.0206 -0.0363
  221loPI   PO4 3524  12.876  15.513  10.110  0.1451 -0.0275  0.2291
  221loPI   GL1 3525  13.076  15.763   9.843  0.0231  0.1494  0.2641
  221loPI   GL2 3526  13.354  15.558   9.701  0.0052  0.0440  0.1492
  221loPI   C1A 3527  13.179  15.867   9.400 -0.0512  0.2439  0.2158
  221loPI   C2A 3528  13.277  16.097   9.009  0.0796  0.1309 -0.2263
  221loPI   C3A 3529  13.321  16.318   8.742  0.3324  0.0525 -0.1146
  221loPI   C4A 3530  13.570  16.310   8.391 -0.0232 -0.0729 -0.1085
  221loPI   C5A 3531  13.556  16.575   8.110 -0.0424  0.1538  0.0769
  221loPI   C6A 3532  13.573  16.645   7.735  0.0572  0.0190  0.0343
  221loPI   C1B 3533  13.333  15.374   9.419 -0.0267 -0.1690 -0.0322
  221loPI   C2B 3534  13.400  15.488   8.982 -0.0542  0.1752 -0.1865
  221loPI   C3B 3535  13.673  15.457   8.602  0.1992  0.1555  0.0575
  221loPI   C4B 3536  13.767  15.570   8.211  0.2989 -0.0166  0.2178
  222loPI    C1 3537   8.219  10.590  10.449 -0.1161  0.1771 -0.0252
  222loPI    C2 3538   8.562  10.480  10.276 -0.1991  0.0186 -0.0912
  222loPI    C3 3539   8.303  10.202  10.400 -0.3452  0.1388 -0.1249
  222loPI   PO4 3540   8.021  10.686  10.240 -0.0508 -0.2086  0.1291
  222loPI   GL1 3541   7.821  11.035  10.120 -0.1755  0.0850 -0.0384
  222loPI   GL2 3542   7.525  11.153  10.053 -0.0880 -0.3207  0.1959
  222loPI   C1A 3543   8.074  11.113   9.731 -0.2603 -0.2466 -0.2701
  222loPI   C2A 3544   8.121  11.263   9.294 -0.3362  0.1309 -0.1755
  222loPI   C3A 3545   8.283  11.377   8.843  0.1941  0.0806  0.3177
  222loPI   C4A 3546   8.429  11.157   8.481 -0.3171 -0.1363  0.0993
  222loPI   C5A 3547   8.740  11.057   8.225 -0.1749 -0.0665  0.1145
  222loPI   C6A 3548   9.203  11.041   8.162 -0.4625 -0.0567  0.0560
  222loPI   C1B 3549   7.290  11.442   9.838 -0.0394 -0.0812 -0.0955
  222loPI   C2B 3550   7.172  11.537   9.317 -0.0641 -0.1218  0.0575
  222loPI   C3B 3551   7.041  11.702   8.942  0.0297  0.1092 -0.1011
  222loPI   C4B 3552   7.174  11.877   8.531 -0.1466 -0.0497  0.0645
  223loPI    C1 3553   2.031  14.140  11.133  0.0973  0.1190 -0.0298
  223loPI    C2 3554   1.709  14.008  11.330  0.0525 -0.0132 -0.1896
  223loPI    C3 3555   1.902  14.334  11.458 -0.1904  0.1122 -0.1371
  223loPI   PO4 3556   1.905  14.159  10.869  0.0007 -0.0684 -0.2213
  223loPI   GL1 3557   1.888  14.315  10.528 -0.0833  0.2909 -0.1075
  223loPI   GL2 3558   1.526  14.265  10.475  0.1150 -0.0966 -0.0222
  223loPI   C1A 3559   2.121  14.531  10.307 -0.2387 -0.1534 -0.0239
  223loPI   C2A 3560   2.157  14.547   9.867  0.0209 -0.1513  0.1372
  223loPI   C3A 3561   2.340  14.523   9.446  0.0798  0.0042  0.1434
  223loPI   C4A 3562   2.481  14.196   9.071  0.2451  0.1421 -0.0873
  223loPI   C5A 3563   2.413  13.929   8.689  0.0666  0.0001 -0.0267
  223loPI   C6A 3564   2.559  13.542   8.496 -0.2488  0.0566 -0.0175
  223loPI   C1B 3565   1.688  14.301  10.039  0.0329  0.2478 -0.1294
  223loPI   C2B 3566   1.842  14.144   9.676  0.4309 -0.0350 -0.1215
  223loPI   C3B 3567   1.902  14.148   9.193 -0.2124  0.1207  0.0697
  223loPI   C4B 3568   1.799  14.086   8.770 -0.1446  0.1209 -0.2892
  224loPI    C1 3569   4.964  18.023  10.607 -0.0866  0.0197  0.1685
  224loPI    C2 3570   4.908  17.633  10.678 -0.1034 -0.0426 -0.1717
  224loPI    C3 3571   4.766  17.906  10.934 -0.2401 -0.2543 -0.0190
  224loPI   PO4 3572   5.135  18.033  10.337 -0.1446  0.0542 -0.1012
  224loPI   GL1 3573   5.441  17.800  10.128 -0.1346  0.1801  0.0315
  224loPI   GL2 3574   5.545  18.007  10.011 -0.1426  0.1798  0.0831
  224loPI   C1A 3575   5.243  17.679   9.751  0.0400  0.1351  0.3937
  224loPI   C2A 3576   5.362  17.697   9.292  0.0757  0.1086  0.0758
  224loPI   C3A 3577   5.300  17.696   8.885 -0.0845  0.0938 -0.1430
  224loPI   C4A 3578   5.441  17.700   8.431 -0.2310 -0.1651 -0.2648
  224loPI   C5A 3579   5.411  17.718   8.001  0.3292 -0.1297  0.1435
  224loPI   C6A 3580   5.509  17.815   7.636 -0.0132  0.0635 -0.2252
  224loPI   C1B 3581   5.638  18.072   9.556 -0.0597  0.1411  0.0401
  224loPI   C2B 3582   5.706  18.134   9.093  0.1774  0.1001 -0.2638
  224loPI   C3B 3583   5.559  18.091   8.729  0.0231  0.3556 -0.1943
  224loPI   C4B 3584   5.694  18.072   8.199  0.0550 -0.0090  0.0981
  225loPI    C1 3585   1.829  15.948  10.758  0.2407  0.1613 -0.0120
  225loPI    C2 3586   1.957  16.001  11.133 -0.2425  0.1483  0.1622
  225loPI    C3 3587   1.572  15.921  11.063 -0.1002 -0.1585 -0.3180
  225loPI   PO4 3588   1.998  15.686  10.619 -0.2124  0.0957 -0.3453
  225loPI   GL1 3589   2.273  15.496  10.334 -0.1970 -0.2317 -0.0304
  225loPI   GL2 3590   2.142  15.898  10.218  0.1212 -0.2372  0.1056
  225loPI   C1A 3591   2.435  15.390   9.940  0.0371  0.3784 -0.0829
  225loPI   C2A 3592   2.388  15.308   9.517  0.0244  0.3306  0.1467
  225loPI   C3A 3593   2.373  15.322   9.146  0.5061 -0.4413  0.2446
  225loPI   C4A 3594   2.389  15.520   8.768  0.1283  0.0441  0.0971
  225loPI   C5A 3595   2.433  15.484   8.355  0.0417 -0.1060  0.0407
  225loPI   C6A 3596   2.339  15.580   7.902  0.1685  0.0194 -0.0291
  225loPI   C1B 3597   2.246  15.881   9.699  0.0476 -0.1110  0.1128
  225loPI   C2B 3598   2.235  15.894   9.243 -0.0354 -0.2776 -0.0924
  225loPI   C3B 3599   2.016  15.902   8.910  0.0335  0.0338 -0.0655
  225loPI   C4B 3600   1.968  15.936   8.430  0.0558 -0.3315 -0.0450
  226loPI    C1 3601   1.920   4.568  10.600  0.0109  0.0357  0.0689
  226loPI    C2 3602   2.137   4.256  10.726  0.0483  0.0852  0.1269
  226loPI    C3 3603   1.762   4.305  10.857  0.0649  0.1007  0.1689
  226loPI   PO4 3604   1.871   4.557  10.264  0.2250  0.2296 -0.0569
  226loPI   GL1 3605   1.973   4.296   9.782 -0.3954  0.2405 -0.1189
  226loPI   GL2 3606   2.279   4.298   9.638  0.0608  0.0779 -0.1961
  226loPI   C1A 3607   1.806   4.273   9.410 -0.2129 -0.0616  0.1110
  226loPI   C2A 3608   1.793   4.380   8.998 -0.1985 -0.0610  0.0325
  226loPI   C3A 3609   1.846   4.621   8.595  0.2313 -0.0581  0.2484
  226loPI   C4A 3610   1.810   4.507   8.163 -0.0659  0.1429  0.0741
  226loPI   C5A 3611   1.863   4.384   7.672  0.0263 -0.2636  0.1283
  226loPI   C6A 3612   1.864   4.033   7.466  0.0951 -0.0332 -0.0021
  226loPI   C1B 3613   2.338   4.270   9.238 -0.3133 -0.3507  0.2145
  226loPI   C2B 3614   2.437   4.274   8.844 -0.0912  0.1074 -0.0525
  226loPI   C3B 3615   2.705   4.239   8.425 -0.1485 -0.0828  0.1258
  226loPI   C4B 3616   2.752   4.157   8.040  0.1744 -0.1320  0.0199
  227loPI    C1 3617  12.317  13.649  10.574  0.1481 -0.1546 -0.1785
  227loPI    C2 3618  12.400  13.541  10.950 -0.3225 -0.0832 -0.0471
  227loPI    C3 3619  12.570  13.868  10.793 -0.0959 -0.1336  0.0885
  227loPI   PO4 3620  12.304  13.467  10.449 -0.1754  0.1518 -0.1949
  227loPI   GL1 3621  12.471  13.283  10.074  0.1390  0.0746  0.1597
  227loPI   GL2 3622  12.325  13.547   9.986 -0.0651 -0.2655 -0.2837
  227loPI   C1A 3623  12.421  13.226   9.633  0.2295  0.1685  0.0801
  227loPI   C2A 3624  12.372  13.279   9.252 -0.1300 -0.2676 -0.0537
  227loPI   C3A 3625  12.192  13.399   8.932  0.1844 -0.0958 -0.0946
  227loPI   C4A 3626  12.021  13.769   8.539 -0.0653  0.1545 -0.3489
  227loPI   C5A 3627  12.150  14.112   8.270  0.3267  0.1701  0.0185
  227loPI   C6A 3628  12.596  14.373   8.405 -0.0427 -0.0248  0.1237
  227loPI   C1B 3629  12.320  13.685   9.627  0.2067 -0.1040  0.0307
  227loPI   C2B 3630  12.186  13.903   9.404  0.0176 -0.2202 -0.0158
  227loPI   C3B 3631  12.257  13.872   9.032 -0.3221 -0.2226 -0.0139
  227loPI   C4B 3632  12.228  14.152   8.756  0.2864 -0.1631  0.1530
  228loPI    C1 3633   0.232   0.492  10.905  0.0251  0.0727 -0.3310
  228loPI    C2 3634   0.263   0.243  11.216  0.0905  0.3066 -0.1477
  228loPI    C3 3635  -0.094   0.386  11.109  0.0418  0.0743 -0.3034
  228loPI   PO4 3636   0.344   0.477  10.770  0.4121  0.1155  0.0245
  228loPI   GL1 3637   0.574   0.326  10.522  0.2438 -0.0767 -0.1497
  228loPI   GL2 3638   0.679   0.731  10.369  0.0995 -0.0818  0.1128
  228loPI   C1A 3639   0.900   0.325  10.227 -0.3132  0.0306  0.3384
  228loPI   C2A 3640   0.834   0.420   9.741 -0.1892 -0.0807  0.2712
  228loPI   C3A 3641   0.883   0.364   9.313  0.0535  0.1250  0.1197
  228loPI   C4A 3642   0.916   0.301   8.914 -0.2237 -0.2709  0.0999
  228loPI   C5A 3643   0.921   0.173   8.507 -0.2673 -0.2375  0.0907
  228loPI   C6A 3644   0.947  -0.037   8.082  0.1113  0.1798  0.1251
  228loPI   C1B 3645   0.638   0.857   9.935 -0.3378 -0.5157  0.2018
  228loPI   C2B 3646   0.672   0.815   9.505  0.1932 -0.1712 -0.0559
  228loPI   C3B 3647   0.717   0.904   9.160 -0.1430 -0.2229 -0.2160
  228loPI   C4B 3648   0.729   0.882   8.800 -0.1494  0.1649  0.1826
  229loPI    C1 3649   1.868  10.288  10.399 -0.0350 -0.1022  0.1768
  229loPI    C2 3650   1.901  10.477  10.750  0.1681  0.2956 -0.0490
  229loPI    C3 3651   1.992  10.668  10.410  0.3757 -0.2106 -0.2900
  229loPI   PO4 3652   1.907  10.084  10.367 -0.0638 -0.0342 -0.2623
  229loPI   GL1 3653   1.825   9.888   9.945 -0.2696 -0.1636 -0.0869
  229loPI   GL2 3654   1.819  10.281   9.867 -0.0517  0.0695 -0.4232
  229loPI   C1A 3655   1.916   9.820   9.544 -0.1048  0.2318  0.0952
  229loPI   C2A 3656   1.897   9.764   9.112 -0.2880 -0.0968  0.1687
  229loPI   C3A 3657   1.937   9.796   8.707  0.1012 -0.0763  0.1534
  229loPI   C4A 3658   1.970   9.862   8.319  0.1563 -0.2232 -0.0431
  229loPI   C5A 3659   1.837   9.792   7.963  0.5711 -0.2004 -0.1276
  229loPI   C6A 3660   1.701   9.506   7.667  0.0216 -0.1118  0.1015
  229loPI   C1B 3661   1.763  10.236   9.437  0.0892 -0.3803  0.1986
  229loPI   C2B 3662   1.723  10.193   8.963  0.0810 -0.2021 -0.2229
  229loPI   C3B 3663   1.665  10.358   8.489  0.2974 -0.4904 -0.2089
  229loPI   C4B 3664   1.352  10.447   8.268  0.0229 -0.2279  0.0688
  230loPI    C1 3665   1.445   6.238  10.395 -0.0421 -0.0902 -0.0414
  230loPI    C2 3666   1.099   6.040  10.357 -0.1239 -0.0027  0.2258
  230loPI    C3 3667   1.212   6.179  10.715  0.0696  0.1862  0.0938
  230loPI   PO4 3668   1.622   6.274  10.052  0.0837  0.1298  0.0138
  230loPI   GL1 3669   1.509   6.176   9.611 -0.2243  0.2968  0.1817
  230loPI   GL2 3670   1.198   6.372   9.738 -0.1131 -0.0402 -0.1629
  230loPI   C1A 3671   1.503   5.758   9.502 -0.1008 -0.0625 -0.2842
  230loPI   C2A 3672   1.732   5.626   9.273 -0.0201 -0.0661  0.3085
  230loPI   C3A 3673   1.727   5.531   9.001 -0.0448 -0.1719 -0.3104
  230loPI   C4A 3674   1.807   5.586   8.569 -0.0108 -0.3061 -0.0697
  230loPI   C5A 3675   1.764   5.417   8.169 -0.0713 -0.2517  0.0799
  230loPI   C6A 3676   1.662   5.435   7.693 -0.0174  0.0312  0.2386
  230loPI   C1B 3677   1.159   6.408   9.318  0.2101 -0.2343 -0.1661
  230loPI   C2B 3678   0.962   6.428   8.915 -0.1234 -0.1999  0.0722
  230loPI   C3B 3679   1.024   6.297   8.482 -0.0835  0.0754 -0.1461
  230loPI   C4B 3680   0.973   6.204   8.102 -0.2241 -0.0939 -0.0716
  231loPI    C1 3681   4.075   6.592  10.313 -0.0010 -0.3168 -0.0924
  231loPI    C2 3682   4.444   6.446  10.364  0.0169 -0.2501 -0.0292
  231loPI    C3 3683   4.156   6.359  10.627  0.0096 -0.2301 -0.0305
  231loPI   PO4 3684   4.081   6.600  10.026 -0.2962  0.0326 -0.2117
  231loPI   GL1 3685   4.246   6.674   9.597 -0.0820  0.1585 -0.1883
  231loPI   GL2 3686   4.173   7.059   9.662 -0.2854  0.0960  0.0900
  231loPI   C1A 3687   4.097   6.455   9.249 -0.4609 -0.0880 -0.0943
  231loPI   C2A 3688   4.130   6.453   8.927 -0.1180  0.2096  0.1472
  231loPI   C3A 3689   4.113   6.466   8.480 -0.0091 -0.3123  0.2477
  231loPI   C4A 3690   4.210   6.443   8.121  0.1298  0.2065  0.2245
  231loPI   C5A 3691   3.926   6.551   7.802 -0.1899  0.2056 -0.1155
  231loPI   C6A 3692   3.797   6.388   7.368 -0.2784  0.2018  0.1232
  231loPI   C1B 3693   4.069   6.999   9.157  0.0018  0.1461  0.1216
  231loPI   C2B 3694   4.075   6.945   8.684  0.0534 -0.0778  0.1888
  231loPI   C3B 3695   3.943   7.176   8.285 -0.2570 -0.2053 -0.0293
  231loPI   C4B 3696   3.879   7.366   7.875  0.4166 -0.0165  0.2560
  232loPI    C1 3697   7.878  13.854  11.082 -0.0295 -0.2374  0.0099
  232loPI    C2 3698   8.069  14.193  11.175 -0.3042 -0.0412 -0.1272
  232loPI    C3 3699   8.276  13.855  11.121 -0.0106  0.1395 -0.1528
  232loPI   PO4 3700   7.618  13.998  10.987  0.3154  0.1098  0.1222
  232loPI   GL1 3701   7.347  14.230  10.575 -0.3031  0.1649  0.0912
  232loPI   GL2 3702   7.517  14.497  10.470  0.0828 -0.0700  0.2633
  232loPI   C1A 3703   7.413  14.086  10.198  0.1168 -0.1657  0.1681
  232loPI   C2A 3704   7.519  14.108   9.721 -0.0696  0.0484 -0.1844
  232loPI   C3A 3705   7.746  14.305   9.448 -0.2664 -0.1154 -0.0950
  232loPI   C4A 3706   7.820  14.120   9.014 -0.0620  0.2004  0.0316
  232loPI   C5A 3707   7.870  13.949   8.628  0.0011 -0.0692 -0.0506
  232loPI   C6A 3708   8.229  13.793   8.383  0.2259  0.2219  0.0215
  232loPI   C1B 3709   7.470  14.626  10.005  0.0326 -0.1533  0.0681
  232loPI   C2B 3710   7.481  14.740   9.530  0.1149  0.0906 -0.0971
  232loPI   C3B 3711   7.502  14.591   9.098 -0.1840 -0.0830  0.0040
  232loPI   C4B 3712   7.627  14.439   8.669 -0.0409  0.0761  0.1512
  233loPI    C1 3713   2.779  12.007  10.972  0.0799  0.0734  0.0347
  233loPI    C2 3714   2.514  11.917  11.258  0.2508 -0.1706  0.1192
  233loPI    C3 3715   2.883  12.033  11.358  0.1558  0.2483  0.0037
  233loPI   PO4 3716   2.838  11.824  10.840 -0.2391 -0.1299 -0.0246
  233loPI   GL1 3717   2.741  11.714  10.539  0.1890  0.0722 -0.0654
  233loPI   GL2 3718   3.042  11.692  10.399  0.0568  0.2105 -0.0434
  233loPI   C1A 3719   2.734  11.286  10.182  0.2412 -0.2102 -0.4624
  233loPI   C2A 3720   2.742  11.157   9.743 -0.2523 -0.3919 -0.1260
  233loPI   C3A 3721   2.498  11.330   9.388 -0.1416  0.0681  0.2574
  233loPI   C4A 3722   2.481  11.390   8.956 -0.1800 -0.2200 -0.0232
  233loPI   C5A 3723   2.290  11.335   8.484  0.2511  0.0326  0.0197
  233loPI   C6A 3724   2.616  11.339   8.166 -0.2026  0.2643 -0.1269
  233loPI   C1B 3725   3.178  11.519  10.158 -0.0877 -0.2725  0.3375
  233loPI   C2B 3726   3.216  11.248   9.929 -0.0676  0.0604 -0.2730
  233loPI   C3B 3727   3.166  11.096   9.519  0.3410 -0.2809  0.0594
  233loPI   C4B 3728   2.838  10.973   9.189 -0.0156 -0.0920 -0.1209
  234loPI    C1 3729  12.176   6.313   9.971  0.2129  0.1092 -0.0232
  234loPI    C2 3730  12.117   6.039  10.256  0.4465  0.1936  0.1100
  234loPI    C3 3731  11.896   6.373  10.251  0.2575  0.0692  0.0302
  234loPI   PO4 3732  12.187   6.244   9.779  0.1839 -0.0926 -0.0428
  234loPI   GL1 3733  12.580   6.268   9.569  0.1069 -0.1608  0.1794
  234loPI   GL2 3734  12.372   5.997   9.339  0.0067  0.1637  0.0837
  234loPI   C1A 3735  12.911   6.322   9.260 -0.1024 -0.0492  0.2021
  234loPI   C2A 3736  13.133   6.543   8.861 -0.3304 -0.0469 -0.4724
  234loPI   C3A 3737  13.250   6.693   8.430 -0.0146  0.0273  0.2040
  234loPI   C4A 3738  13.065   6.432   8.139  0.0463 -0.0535  0.3425
  234loPI   C5A 3739  13.211   6.238   7.880 -0.0302 -0.4367 -0.0427
  234loPI   C6A 3740  13.555   6.098   7.723  0.0191 -0.0685 -0.1419
  234loPI   C1B 3741  12.527   6.159   9.013  0.0468  0.1455 -0.1272
  234loPI   C2B 3742  12.725   6.149   8.680 -0.1329 -0.4807  0.1676
  234loPI   C3B 3743  13.177   6.130   8.609 -0.2493 -0.0476  0.2008
  234loPI   C4B 3744  13.415   5.973   8.342  0.2053  0.0939 -0.2149
  235loPI    C1 3745   4.373   0.342  10.713 -0.0605 -0.0600 -0.1417
  235loPI    C2 3746   4.561   0.684  10.800  0.0154 -0.1420  0.0222
  235loPI    C3 3747   4.611   0.364  11.034 -0.3265 -0.1668  0.0665
  235loPI   PO4 3748   4.307   0.255  10.535 -0.1542  0.4318  0.0120
  235loPI   GL1 3749   4.234   0.321  10.156 -0.1400 -0.2397  0.1531
  235loPI   GL2 3750   4.142   0.638  10.067 -0.3865 -0.1561  0.4306
  235loPI   C1A 3751   4.342   0.293   9.673  0.3825  0.1929 -0.3816
  235loPI   C2A 3752   4.328   0.399   9.368 -0.1999 -0.0693  0.0629
  235loPI   C3A 3753   4.404   0.288   8.955 -0.0573  0.0224 -0.0450
  235loPI   C4A 3754   4.405   0.136   8.504 -0.1268 -0.2241 -0.0921
  235loPI   C5A 3755   4.289  -0.211   8.149 -0.2252  0.1079 -0.1599
  235loPI   C6A 3756   3.988  -0.486   8.051 -0.4057 -0.2759  0.1585
  235loPI   C1B 3757   3.885   0.451   9.751 -0.0542  0.0504 -0.2623
  235loPI   C2B 3758   3.728   0.356   9.333  0.0404  0.0589  0.0593
  235loPI   C3B 3759   3.823   0.231   8.963 -0.3750 -0.2337 -0.1173
  235loPI   C4B 3760   3.939   0.248   8.570  0.0747 -0.0512 -0.4650
  236loPI    C1 3761  17.347   3.476  10.670  0.3656 -0.0949  0.0881
  236loPI    C2 3762  17.071   3.756  10.746 -0.0231 -0.4521  0.0277
  236loPI    C3 3763  17.345   3.664  11.023  0.0856 -0.0439  0.0616
  236loPI   PO4 3764  17.173   3.251  10.582  0.1675  0.2254  0.2310
  236loPI   GL1 3765  17.052   3.043  10.207  0.1004  0.1021 -0.1881
  236loPI   GL2 3766  16.958   3.352  10.154 -0.1992  0.1989 -0.1932
  236loPI   C1A 3767  16.875   2.835  10.022 -0.1131 -0.0005 -0.1350
  236loPI   C2A 3768  16.988   2.632   9.710  0.2698 -0.0553 -0.1104
  236loPI   C3A 3769  17.029   2.548   9.317  0.1967  0.3257 -0.0011
  236loPI   C4A 3770  16.998   2.551   8.865 -0.0461 -0.0327 -0.1110
  236loPI   C5A 3771  17.079   2.714   8.442  0.0881 -0.0577 -0.1654
  236loPI   C6A 3772  17.000   2.503   8.073 -0.0204 -0.4572 -0.2431
  236loPI   C1B 3773  16.824   3.176   9.674  0.0887  0.1993  0.0170
  236loPI   C2B 3774  16.873   3.079   9.235  0.1721 -0.1277  0.0997
  236loPI   C3B 3775  16.796   2.985   8.789  0.1146 -0.0895 -0.2334
  236loPI   C4B 3776  16.704   3.098   8.438 -0.2763  0.1631 -0.1383
  237loPI    C1 3777   7.967   4.060  10.021  0.1918  0.1960 -0.1076
  237loPI    C2 3778   7.598   4.215  10.016  0.1861  0.1912  0.0843
  237loPI    C3 3779   7.748   4.068  10.356  0.2474 -0.0910 -0.0619
  237loPI   PO4 3780   7.998   4.063   9.690  0.0540  0.3400 -0.0678
  237loPI   GL1 3781   8.318   4.032   9.336 -0.2935  0.1071 -0.1471
  237loPI   GL2 3782   8.365   3.750   9.421  0.2178  0.0006  0.0375
  237loPI   C1A 3783   8.362   3.958   8.854 -0.1698 -0.0728 -0.0530
  237loPI   C2A 3784   8.448   3.671   8.557 -0.0340 -0.1092  0.1782
  237loPI   C3A 3785   8.340   3.760   8.139  0.0552 -0.0777 -0.3066
  237loPI   C4A 3786   8.359   3.670   7.736 -0.1960 -0.0138  0.2022
  237loPI   C5A 3787   8.428   3.402   7.379 -0.0028  0.0287  0.3352
  237loPI   C6A 3788   8.554   2.933   7.237 -0.0298 -0.1131  0.0657
  237loPI   C1B 3789   8.585   3.580   9.134 -0.6831 -0.1735  0.0743
  237loPI   C2B 3790   8.743   3.364   8.826  0.0333 -0.2099  0.2626
  237loPI   C3B 3791   8.666   3.174   8.437 -0.0091  0.1482  0.2095
  237loPI   C4B 3792   8.397   3.284   8.104  0.0136  0.2250  0.1215
  238loPI    C1 3793  17.370   6.769  10.648 -0.0294  0.2017  0.0734
  238loPI    C2 3794  17.292   6.379  10.688 -0.2896  0.2316 -0.1105
  238loPI    C3 3795  17.367   6.602  11.011 -0.1498  0.0335 -0.0034
  238loPI   PO4 3796  17.631   6.808  10.447  0.0659  0.0378 -0.1131
  238loPI   GL1 3797  17.642   6.685   9.985 -0.0265 -0.1238 -0.0412
  238loPI   GL2 3798  17.803   6.380   9.873  0.2376 -0.4571  0.2023
  238loPI   C1A 3799  17.507   6.893   9.637 -0.1181 -0.1673 -0.0734
  238loPI   C2A 3800  17.644   7.080   9.264 -0.0169  0.0243  0.1006
  238loPI   C3A 3801  17.634   7.136   8.849  0.0787  0.0565  0.1797
  238loPI   C4A 3802  17.677   7.127   8.378 -0.0449 -0.1081  0.0929
  238loPI   C5A 3803  17.786   6.793   8.027  0.0913  0.1051  0.1235
  238loPI   C6A 3804  18.098   6.671   7.707 -0.1337  0.1263 -0.0236
  238loPI   C1B 3805  17.842   6.454   9.454 -0.1737  0.2477 -0.1719
  238loPI   C2B 3806  17.695   6.629   9.104 -0.0741 -0.2285  0.1114
  238loPI   C3B 3807  17.877   6.713   8.681 -0.0793  0.2031  0.2224
  238loPI   C4B 3808  18.111   6.897   8.394  0.1253  0.2320 -0.1635
  239loPI    C1 3809   8.970   9.503  10.003  0.1076 -0.1269 -0.3599
  239loPI    C2 3810   9.295   9.688   9.861  0.0006  0.0876 -0.3291
  239loPI    C3 3811   9.193   9.729  10.246 -0.0772  0.0410 -0.3443
  239loPI   PO4 3812   8.744   9.505   9.823 -0.1401  0.2315  0.2132
  239loPI   GL1 3813   8.656   9.793   9.609  0.1355 -0.1703  0.0740
  239loPI   GL2 3814   8.311   9.798   9.581  0.2119  0.0719  0.1051
  239loPI   C1A 3815   8.620   9.798   9.171 -0.0250 -0.0082 -0.0449
  239loPI   C2A 3816   8.521   9.789   8.736 -0.1484  0.1386  0.0163
  239loPI   C3A 3817   8.455   9.680   8.334 -0.0231  0.3694  0.0384
  239loPI   C4A 3818   8.383   9.876   7.943 -0.1317 -0.1464  0.1596
  239loPI   C5A 3819   8.064   9.926   7.700  0.0096 -0.3150 -0.0770
  239loPI   C6A 3820   7.689   9.948   7.504  0.0927  0.1232 -0.2478
  239loPI   C1B 3821   8.161   9.871   9.119 -0.0357  0.0932 -0.3429
  239loPI   C2B 3822   7.885  10.029   8.837  0.0773 -0.3793  0.2857
  239loPI   C3B 3823   7.901  10.188   8.404 -0.1795  0.1315 -0.1982
  239loPI   C4B 3824   8.018  10.272   8.032 -0.5875 -0.1916  0.1623
  240loPI    C1 3825  16.278  13.713  10.449  0.0957  0.0196  0.1514
  240loPI    C2 3826  16.099  13.967  10.701  0.2570  0.0963  0.1901
  240loPI    C3 3827  16.229  13.612  10.833 -0.0126 -0.0292  0.1250
  240loPI   PO4 3828  16.435  13.788  10.335  0.1548 -0.2151  0.0301
  240loPI   GL1 3829  16.313  13.938   9.885 -0.1509  0.3086  0.0995
  240loPI   GL2 3830  16.191  13.748   9.708 -0.1987  0.0947  0.2922
  240loPI   C1A 3831  16.688  14.047   9.712 -0.0234  0.3787 -0.1132
  240loPI   C2A 3832  16.877  13.935   9.377  0.1024 -0.0182  0.3007
  240loPI   C3A 3833  16.867  13.826   8.998  0.1284 -0.1608  0.0119
  240loPI   C4A 3834  17.019  13.913   8.682 -0.1766 -0.0924  0.2008
  240loPI   C5A 3835  17.399  14.050   8.451  0.0630  0.1014 -0.2121
  240loPI   C6A 3836  17.579  13.940   8.095  0.3840  0.0354 -0.2103
  240loPI   C1B 3837  16.524  13.478   9.641  0.1388  0.0396  0.1529
  240loPI   C2B 3838  16.694  13.430   9.241 -0.2728  0.2387  0.2786
  240loPI   C3B 3839  17.090  13.336   8.962  0.0385 -0.2315 -0.1582
  240loPI   C4B 3840  17.246  13.419   8.672  0.2795  0.0880 -0.0382
  241loPI    C1 3841   0.142   9.009  10.618 -0.0358  0.0210 -0.1800
  241loPI    C2 3842   0.387   8.967  10.931  0.1630  0.1059 -0.3220
  241loPI    C3 3843   0.047   9.174  10.970  0.0683 -0.0858 -0.1010
  241loPI   PO4 3844   0.267   9.140  10.353  0.1657 -0.1300  0.0805
  241loPI   GL1 3845   0.326   9.321   9.975  0.0561  0.0544  0.0999
  241loPI   GL2 3846   0.465   9.624   9.995 -0.0548  0.0392  0.1708
  241loPI   C1A 3847   0.103   9.254   9.588 -0.1961 -0.2231  0.0555
  241loPI   C2A 3848   0.138   9.370   9.137 -0.0237 -0.0997 -0.1122
  241loPI   C3A 3849   0.095   9.343   8.725 -0.0909 -0.0624  0.1942
  241loPI   C4A 3850   0.068   9.326   8.303  0.0479 -0.3124  0.0774
  241loPI   C5A 3851   0.119   9.282   7.816  0.2980 -0.0758  0.0659
  241loPI   C6A 3852   0.250   9.535   7.531 -0.0667 -0.2120 -0.0551
  241loPI   C1B 3853   0.562   9.651   9.630  0.1584 -0.4305 -0.2161
  241loPI   C2B 3854   0.585   9.650   9.140  0.2429  0.0362  0.1025
  241loPI   C3B 3855   0.670   9.655   8.784 -0.3197  0.0515 -0.1150
  241loPI   C4B 3856   0.464   9.644   8.505 -0.4244  0.2137  0.0582
  242loPI    C1 3857   6.629   5.006   9.965 -0.1323 -0.0344 -0.1982
  242loPI    C2 3858   6.519   4.623   9.933 -0.1471 -0.0411 -0.0738
  242loPI    C3 3859   6.488   4.811  10.285  0.0400  0.0188 -0.0884
  242loPI   PO4 3860   6.685   5.049   9.763  0.0139 -0.4764 -0.4837
  242loPI   GL1 3861   6.711   5.370   9.465 -0.0486 -0.2677 -0.0273
  242loPI   GL2 3862   6.578   5.621   9.429  0.2577  0.2597  0.0825
  242loPI   C1A 3863   6.642   5.467   8.989  0.1747 -0.0810  0.0943
  242loPI   C2A 3864   6.747   5.743   8.643  0.0079 -0.2713  0.0345
  242loPI   C3A 3865   6.679   5.740   8.209 -0.5199 -0.1774 -0.0269
  242loPI   C4A 3866   6.561   5.950   7.861  0.2030  0.1845 -0.1954
  242loPI   C5A 3867   6.319   6.052   7.592  0.1298  0.3193 -0.0495
  242loPI   C6A 3868   5.896   6.101   7.639 -0.0129 -0.3661 -0.0503
  242loPI   C1B 3869   6.444   5.968   9.142 -0.1099 -0.0521  0.2046
  242loPI   C2B 3870   6.276   6.243   8.765 -0.1853  0.1207 -0.0551
  242loPI   C3B 3871   6.318   6.310   8.348  0.0703 -0.1484 -0.3489
  242loPI   C4B 3872   6.363   6.633   8.067 -0.1428  0.3090  0.1781
  243loPI    C1 3873   4.899   6.409  10.027  0.0924  0.1382 -0.0498
  243loPI    C2 3874   5.246   6.468  10.216 -0.0528  0.1369  0.2221
  243loPI    C3 3875   4.952   6.266  10.397 -0.1375 -0.0072 -0.0707
  243loPI   PO4 3876   4.949   6.265   9.767  0.2635  0.0953  0.1697
  243loPI   GL1 3877   5.155   6.166   9.443  0.4005  0.1461 -0.0895
  243loPI   GL2 3878   5.084   6.506   9.321 -0.0174 -0.0607 -0.0028
  243loPI   C1A 3879   5.295   6.141   9.074 -0.0256  0.2852  0.2941
  243loPI   C2A 3880   5.299   6.227   8.614  0.0158  0.2483 -0.0267
  243loPI   C3A 3881   5.352   6.150   8.190  0.2141  0.0354  0.1506
  243loPI   C4A 3882   5.425   6.281   7.754 -0.1282 -0.0976  0.1405
  243loPI   C5A 3883   5.317   6.111   7.312  0.1920  0.2350  0.0646
  243loPI   C6A 3884   4.953   6.091   7.150  0.1040  0.0333  0.1152
  243loPI   C1B 3885   5.128   6.575   8.909 -0.2869  0.0304  0.0283
  243loPI   C2B 3886   4.953   6.593   8.521  0.2323  0.4190 -0.1996
  243loPI   C3B 3887   4.851   6.432   8.142 -0.0176  0.2485 -0.0534
  243loPI   C4B 3888   4.628   6.543   7.797 -0.0525 -0.1030  0.1136
  244loPI    C1 3889   3.898   3.384  10.456  0.0098 -0.1063 -0.1007
  244loPI    C2 3890   3.556   3.421  10.660 -0.0923  0.0608 -0.2979
  244loPI    C3 3891   3.897   3.562  10.814 -0.1259 -0.0298 -0.1382
  244loPI   PO4 3892   3.793   3.160  10.248 -0.3043  0.3162 -0.1571
  244loPI   GL1 3893   3.768   2.913   9.879 -0.4121 -0.2305  0.1893
  244loPI   GL2 3894   4.082   2.806   9.841  0.0955  0.0543 -0.0233
  244loPI   C1A 3895   3.773   3.211   9.505 -0.3170  0.0108  0.2088
  244loPI   C2A 3896   3.734   3.290   9.064  0.0219 -0.0616  0.0988
  244loPI   C3A 3897   3.827   3.377   8.624 -0.1528  0.2074 -0.1468
  244loPI   C4A 3898   4.023   3.408   8.292 -0.2372  0.1219 -0.0183
  244loPI   C5A 3899   4.206   3.430   7.880  0.1801  0.2862  0.0294
  244loPI   C6A 3900   4.631   3.518   7.712  0.0291 -0.1489  0.2096
  244loPI   C1B 3901   4.030   2.799   9.342  0.0590 -0.4067  0.0292
  244loPI   C2B 3902   3.851   2.711   9.012 -0.1593 -0.0816  0.3875
  244loPI   C3B 3903   4.035   2.872   8.649  0.0848 -0.0662  0.2596
  244loPI   C4B 3904   4.295   2.978   8.310  0.3207 -0.0053 -0.0558
  245loPI    C1 3905  14.254   2.664  10.338 -0.4027  0.0890  0.1402
  245loPI    C2 3906  14.525   2.511  10.589 -0.1687  0.0052 -0.1579
  245loPI    C3 3907  14.202   2.696  10.733  0.0235  0.0694  0.2029
  245loPI   PO4 3908  14.218   2.470  10.085  0.3647  0.0341  0.2198
  245loPI   GL1 3909  14.205   2.434   9.728  0.1799 -0.1548 -0.2811
  245loPI   GL2 3910  13.906   2.632   9.681 -0.1611  0.0702 -0.2374
  245loPI   C1A 3911  14.476   2.434   9.450  0.0025 -0.2279 -0.1686
  245loPI   C2A 3912  14.597   2.342   8.996 -0.3883  0.0745 -0.0945
  245loPI   C3A 3913  14.603   2.362   8.586  0.0019 -0.2844  0.1139
  245loPI   C4A 3914  14.519   2.408   8.067 -0.1930 -0.1016 -0.3521
  245loPI   C5A 3915  14.360   2.485   7.683 -0.0588 -0.4187 -0.2744
  245loPI   C6A 3916  13.850   2.316   7.573 -0.0797  0.0105  0.0776
  245loPI   C1B 3917  13.990   2.537   9.317 -0.1710 -0.0397 -0.0788
  245loPI   C2B 3918  14.043   2.424   8.868 -0.3415 -0.0642 -0.0939
  245loPI   C3B 3919  14.154   2.356   8.481 -0.0247  0.1876  0.2856
  245loPI   C4B 3920  14.024   2.407   8.024  0.0906 -0.0676 -0.0645
  246loPI    C1 3921  14.509   9.338  10.438 -0.1769  0.2466  0.1298
  246loPI    C2 3922  14.316   9.023  10.285  0.1265  0.0119  0.2205
  246loPI    C3 3923  14.138   9.252  10.560 -0.1370 -0.0132  0.0745
  246loPI   PO4 3924  14.759   9.387  10.167 -0.1392  0.0000 -0.1766
  246loPI   GL1 3925  14.910   9.267   9.787  0.1789  0.2795 -0.1103
  246loPI   GL2 3926  15.165   9.385   9.547  0.0807  0.1190 -0.1970
  246loPI   C1A 3927  14.711   8.963   9.507  0.0272  0.0034  0.0029
  246loPI   C2A 3928  14.732   9.020   9.079  0.0370  0.0638 -0.1988
  246loPI   C3A 3929  14.694   9.172   8.644 -0.1198  0.0190 -0.0237
  246loPI   C4A 3930  14.707   8.856   8.228  0.0215  0.0451 -0.0284
  246loPI   C5A 3931  14.924   8.948   7.919 -0.2959 -0.0722  0.0868
  246loPI   C6A 3932  15.334   9.089   7.749  0.0377 -0.1740  0.1680
  246loPI   C1B 3933  15.137   9.752   9.417 -0.1821 -0.0431  0.3698
  246loPI   C2B 3934  14.966   9.970   9.150  0.0473 -0.0218 -0.0478
  246loPI   C3B 3935  14.765   9.797   8.753  0.0519 -0.0874  0.2362
  246loPI   C4B 3936  14.626   9.835   8.322  0.3001 -0.0581  0.1952
  247loPI    C1 3937   9.092   8.559   9.784  0.1399  0.0491 -0.0152
  247loPI    C2 3938   8.708   8.580   9.674  0.0704 -0.1721  0.1756
  247loPI    C3 3939   8.817   8.687  10.044  0.2299  0.1104  0.0502
  247loPI   PO4 3940   9.180   8.483   9.615 -0.2924  0.3856  0.0874
  247loPI   GL1 3941   9.112   8.443   9.220  0.2478  0.0812  0.2853
  247loPI   GL2 3942   8.922   8.785   9.266  0.0052  0.3385  0.0335
  247loPI   C1A 3943   9.380   8.613   8.965  0.1577 -0.0845 -0.0106
  247loPI   C2A 3944   9.372   8.530   8.659 -0.3308  0.0681  0.3949
  247loPI   C3A 3945   9.358   8.336   8.220 -0.0174  0.2476 -0.0323
  247loPI   C4A 3946   9.302   8.309   7.800  0.0841 -0.0566 -0.2129
  247loPI   C5A 3947   9.305   8.639   7.563 -0.0984 -0.2302  0.0460
  247loPI   C6A 3948   9.138   8.882   7.189  0.2479 -0.0810  0.1293
  247loPI   C1B 3949   8.947   8.913   8.772  0.0672 -0.1244 -0.0106
  247loPI   C2B 3950   8.836   8.906   8.386 -0.0498  0.0890  0.0759
  247loPI   C3B 3951   8.661   9.254   8.096 -0.0483  0.0388  0.1543
  247loPI   C4B 3952   8.304   9.399   7.819 -0.4185 -0.2952  0.0815
  248loPI    C1 3953  14.542   1.065  10.349 -0.0208  0.0689 -0.1047
  248loPI    C2 3954  14.373   1.104  10.709  0.2591  0.0515  0.0309
  248loPI    C3 3955  14.279   0.792  10.477 -0.2629  0.2979 -0.1048
  248loPI   PO4 3956  14.506   1.287  10.238 -0.0937  0.0934 -0.0530
  248loPI   GL1 3957  14.652   1.453   9.809  0.0470  0.6681  0.0293
  248loPI   GL2 3958  14.889   1.245   9.653  0.0913 -0.1804  0.4487
  248loPI   C1A 3959  14.485   1.455   9.359  0.2303 -0.1660 -0.2290
  248loPI   C2A 3960  14.558   1.508   8.900  0.2039 -0.0237  0.0462
  248loPI   C3A 3961  14.428   1.482   8.416  0.2522  0.0145  0.0380
  248loPI   C4A 3962  14.428   1.475   8.003  0.4655  0.0967 -0.2254
  248loPI   C5A 3963  14.598   1.639   7.678 -0.3283  0.1479 -0.2776
  248loPI   C6A 3964  15.010   1.683   7.448  0.2952 -0.0297  0.1584
  248loPI   C1B 3965  15.087   1.487   9.310 -0.0749 -0.2756 -0.2596
  248loPI   C2B 3966  15.091   1.487   8.954 -0.1440 -0.5193 -0.2001
  248loPI   C3B 3967  15.064   1.397   8.500  0.0223  0.2089  0.2229
  248loPI   C4B 3968  15.100   1.607   8.151  0.1553  0.0300 -0.1257
  249loPI    C1 3969   9.602  17.951  10.577  0.1051  0.1968 -0.1164
  249loPI    C2 3970   9.988  17.912  10.675  0.0997  0.1374 -0.1184
  249loPI    C3 3971   9.705  17.765  10.916  0.0877 -0.0420 -0.2402
  249loPI   PO4 3972   9.612  18.151  10.371  0.0185  0.0873 -0.1819
  249loPI   GL1 3973   9.684  18.294   9.977 -0.1224  0.1551  0.0402
  249loPI   GL2 3974   9.909  18.081   9.784  0.1949 -0.1090 -0.1088
  249loPI   C1A 3975   9.455  18.458   9.580 -0.2317  0.0446 -0.2029
  249loPI   C2A 3976   9.430  18.441   9.187 -0.2046 -0.0059 -0.0936
  249loPI   C3A 3977   9.383  18.499   8.760 -0.2472 -0.1807 -0.2693
  249loPI   C4A 3978   9.475  18.479   8.292  0.0251  0.1028  0.0884
  249loPI   C5A 3979   9.336  18.277   7.915  0.2772 -0.3631  0.0889
  249loPI   C6A 3980   9.620  18.486   7.754  0.1818 -0.0280  0.2790
  249loPI   C1B 3981   9.684  18.026   9.383  0.0768 -0.0173  0.0770
  249loPI   C2B 3982   9.612  18.016   8.983 -0.5551  0.0572 -0.2017
  249loPI   C3B 3983   9.607  17.987   8.521  0.1082  0.1753 -0.1271
  249loPI   C4B 3984   9.621  17.964   8.139 -0.2347  0.0276 -0.0733
  250loPI    C1 3985  14.369  11.236  10.137  0.0691 -0.0151 -0.0633
  250loPI    C2 3986  14.294  11.242   9.744  0.1836 -0.0190 -0.0855
  250loPI    C3 3987  14.183  10.927   9.964 -0.1297  0.1028 -0.0639
  250loPI   PO4 3988  14.584  11.336  10.118 -0.1333 -0.0136  0.1277
  250loPI   GL1 3989  14.868  11.318   9.767  0.0562 -0.0237 -0.0915
  250loPI   GL2 3990  14.732  10.987   9.804 -0.4047  0.1213 -0.1794
  250loPI   C1A 3991  14.976  11.481   9.398  0.4190  0.0108  0.2749
  250loPI   C2A 3992  15.285  11.562   9.131  0.2057  0.1475 -0.1254
  250loPI   C3A 3993  15.337  11.696   8.802 -0.2898  0.1441  0.1086
  250loPI   C4A 3994  15.290  11.532   8.454 -0.2230  0.2741 -0.1380
  250loPI   C5A 3995  15.247  11.686   8.020 -0.0729  0.0907  0.1970
  250loPI   C6A 3996  15.470  11.508   7.670 -0.3273 -0.0793 -0.1141
  250loPI   C1B 3997  14.637  11.029   9.334 -0.0446 -0.0794 -0.1969
  250loPI   C2B 3998  14.516  11.167   8.943  0.1247  0.1611  0.0485
  250loPI   C3B 3999  14.288  11.243   8.638 -0.3184 -0.0898 -0.0559
  250loPI   C4B 4000  14.010  11.416   8.325  0.0647 -0.0842  0.0922
  251loPI    C1 4001  17.269  12.098  10.658 -0.1328  0.1547  0.0678
  251loPI    C2 4002  17.553  11.917  10.872  0.0778  0.0257 -0.3129
  251loPI    C3 4003  17.186  11.961  11.025  0.2775  0.1290  0.1548
  251loPI   PO4 4004  17.438  12.244  10.434 -0.0715 -0.1702 -0.1667
  251loPI   GL1 4005  17.856  12.240  10.220  0.0375  0.1692 -0.0245
  251loPI   GL2 4006  17.962  11.877  10.070  0.0362 -0.1333  0.0243
  251loPI   C1A 4007  17.752  12.290   9.841 -0.0825  0.1158 -0.0893
  251loPI   C2A 4008  17.711  12.499   9.447  0.0711  0.1542  0.0042
  251loPI   C3A 4009  17.652  12.502   9.054 -0.0083 -0.1796  0.2024
  251loPI   C4A 4010  17.650  12.589   8.586 -0.0458 -0.1393 -0.2645
  251loPI   C5A 4011  17.834  12.578   8.161 -0.0863 -0.1115  0.0693
  251loPI   C6A 4012  18.103  12.171   8.004 -0.3490  0.0271  0.1556
  251loPI   C1B 4013  18.017  11.873   9.642 -0.1668 -0.1813 -0.1563
  251loPI   C2B 4014  17.977  12.031   9.224  0.2782 -0.0697  0.3517
  251loPI   C3B 4015  17.916  12.146   8.817 -0.1083 -0.0258 -0.0090
  251loPI   C4B 4016  17.735  12.012   8.421 -0.2679  0.0654 -0.1772
  252loPI    C1 4017   9.717   4.598   9.752  0.3872  0.1599 -0.0821
  252loPI    C2 4018   9.648   4.206   9.715  0.1444  0.2078 -0.1545
  252loPI    C3 4019   9.776   4.354  10.064 -0.0408  0.1023 -0.0403
  252loPI   PO4 4020   9.701   4.662   9.375  0.1387  0.1350 -0.0528
  252loPI   GL1 4021   9.394   4.480   9.132  0.1213  0.2080 -0.0172
  252loPI   GL2 4022   9.581   4.476   8.914 -0.1707 -0.2502 -0.2144
  252loPI   C1A 4023   9.150   4.283   8.840 -0.0169  0.2902  0.2971
  252loPI   C2A 4024   9.110   4.129   8.377  0.0793 -0.1123  0.0591
  252loPI   C3A 4025   8.795   4.070   8.159 -0.2501  0.3930  0.1946
  252loPI   C4A 4026   8.766   3.967   7.755 -0.3920  0.0576 -0.3036
  252loPI   C5A 4027   8.800   4.088   7.297  0.0052 -0.1850 -0.2351
  252loPI   C6A 4028   8.970   4.243   7.040  0.3103 -0.1414 -0.0831
  252loPI   C1B 4029   9.663   4.398   8.518  0.3264 -0.0822  0.1692
  252loPI   C2B 4030   9.835   4.320   8.101  0.1261 -0.0583  0.3913
  252loPI   C3B 4031   9.950   4.331   7.642 -0.2801  0.0473  0.0012
  252loPI   C4B 4032   9.749   4.592   7.320  0.0147  0.0263  0.0976
  253loPI    C1 4033   4.848  10.494  10.542  0.2141  0.0661  0.0248
  253loPI    C2 4034   4.853  10.639  10.914  0.2040  0.0422  0.0343
  253loPI    C3 4035   4.709  10.273  10.845  0.1720  0.0610  0.0018
  253loPI   PO4 4036   4.710  10.632  10.409  0.2056 -0.0949  0.3875
  253loPI   GL1 4037   4.578  10.531   9.992  0.1947 -0.0095  0.0632
  253loPI   GL2 4038   4.395  10.354   9.956  0.1803 -0.1092  0.3842
  253loPI   C1A 4039   4.691  10.599   9.598  0.0074  0.2253  0.2084
  253loPI   C2A 4040   4.429  10.721   9.252 -0.0003 -0.1665 -0.1751
  253loPI   C3A 4041   4.384  10.729   8.745  0.0524  0.3325 -0.0274
  253loPI   C4A 4042   4.373  10.526   8.295 -0.0977  0.3486 -0.1872
  253loPI   C5A 4043   4.306  10.568   7.788  0.0547  0.1026  0.0707
  253loPI   C6A 4044   4.542  10.400   7.508  0.0760 -0.1593  0.2132
  253loPI   C1B 4045   4.339  10.320   9.484  0.1210 -0.0249 -0.1088
  253loPI   C2B 4046   4.363  10.216   9.056  0.0037 -0.0813 -0.2097
  253loPI   C3B 4047   4.458  10.121   8.622  0.0624 -0.2642 -0.0727
  253loPI   C4B 4048   4.745  10.150   8.217 -0.2398 -0.1310 -0.3585
  254loPI    C1 4049   1.974  15.219  10.992 -0.2294  0.1184  0.0642
  254loPI    C2 4050   1.854  15.534  11.207 -0.0350  0.2963 -0.0832
  254loPI    C3 4051   2.244  15.466  11.153 -0.0742  0.0057 -0.0208
  254loPI   PO4 4052   1.786  15.228  10.783  0.0516 -0.0747  0.2199
  254loPI   GL1 4053   1.634  15.267  10.334 -0.2871 -0.1652 -0.1890
  254loPI   GL2 4054   1.454  15.280  10.192 -0.0488  0.2457  0.1358
  254loPI   C1A 4055   1.909  15.515  10.007 -0.1809 -0.0105  0.2970
  254loPI   C2A 4056   1.879  15.448   9.540 -0.1375 -0.1130  0.1643
  254loPI   C3A 4057   1.750  15.505   9.095 -0.1439 -0.2388  0.3172
  254loPI   C4A 4058   1.894  15.471   8.639  0.1395  0.0373 -0.0555
  254loPI   C5A 4059   1.765  15.091   8.398  0.0871 -0.1619 -0.1652
  254loPI   C6A 4060   1.649  14.723   8.549  0.2965 -0.3402  0.1163
  254loPI   C1B 4061   1.512  15.224   9.779  0.2704 -0.1101 -0.4018
  254loPI   C2B 4062   1.546  15.110   9.327  0.0591  0.1372 -0.0764
  254loPI   C3B 4063   1.472  15.100   8.879 -0.3178  0.4227  0.0068
  254loPI   C4B 4064   1.224  14.990   8.352 -0.1760 -0.1660 -0.1644
  255loPI    C1 4065  11.671  17.312  10.948  0.0493 -0.1553  0.0179
  255loPI    C2 4066  11.737  16.920  10.905  0.1110 -0.1535  0.0939
  255loPI    C3 4067  11.858  17.108  11.237  0.0165 -0.0846  0.0895
  255loPI   PO4 4068  11.684  17.337  10.640 -0.1966 -0.0292  0.5331
  255loPI   GL1 4069  11.657  17.381  10.193  0.0606  0.2185 -0.1012
  255loPI   GL2 4070  12.018  17.422  10.200  0.1378  0.0064 -0.4524
  255loPI   C1A 4071  11.542  17.562   9.819  0.1282 -0.0969 -0.2004
  255loPI   C2A 4072  11.550  17.483   9.413 -0.1747  0.2816  0.0819
  255loPI   C3A 4073  11.343  17.486   9.029 -0.0793  0.2123 -0.4001
  255loPI   C4A 4074  11.351  17.391   8.658 -0.0502 -0.0223  0.0014
  255loPI   C5A 4075  11.385  17.362   8.298 -0.1464  0.1272  0.1472
  255loPI   C6A 4076  11.486  17.278   7.902 -0.3263  0.0721 -0.2403
  255loPI   C1B 4077  12.001  17.449   9.797  0.1601 -0.2298 -0.1893
  255loPI   C2B 4078  12.038  17.325   9.451  0.0645 -0.1676 -0.0213
  255loPI   C3B 4079  12.047  17.442   9.022  0.1057 -0.1732  0.0082
  255loPI   C4B 4080  11.876  17.404   8.773 -0.1994 -0.0313  0.2090
  256loPI    C1 4081  13.789  13.104  10.261  0.3579  0.1854 -0.2421
  256loPI    C2 4082  13.735  13.413  10.509 -0.0457  0.0473 -0.1499
  256loPI    C3 4083  13.955  13.100  10.625 -0.0383  0.0865 -0.0575
  256loPI   PO4 4084  13.640  13.128  10.121 -0.0471 -0.0438 -0.4841
  256loPI   GL1 4085  13.623  13.028   9.735  0.0564 -0.1881 -0.4032
  256loPI   GL2 4086  13.339  12.873   9.817  0.1011 -0.2247  0.2830
  256loPI   C1A 4087  13.836  13.137   9.449 -0.3479  0.0359 -0.0496
  256loPI   C2A 4088  13.909  13.149   9.155  0.3241  0.0010  0.1153
  256loPI   C3A 4089  13.930  13.072   8.693 -0.1397 -0.2216 -0.0119
  256loPI   C4A 4090  14.035  13.060   8.250  0.2218 -0.2286 -0.0391
  256loPI   C5A 4091  14.019  12.745   8.010 -0.0762  0.2364  0.1403
  256loPI   C6A 4092  13.974  12.309   8.074  0.3363 -0.3715 -0.1030
  256loPI   C1B 4093  13.340  13.115   9.335 -0.1995 -0.2792  0.2696
  256loPI   C2B 4094  13.169  13.263   8.899  0.0734  0.5866 -0.3067
  256loPI   C3B 4095  13.199  13.101   8.485 -0.0044  0.1862 -0.2261
  256loPI   C4B 4096  13.161  12.860   8.210 -0.0740  0.0704 -0.1428
  257loPI    C1 4097   7.138   9.298  10.194 -0.0445  0.1629  0.1504
  257loPI    C2 4098   7.272   9.090  10.508 -0.2662 -0.0657  0.0968
  257loPI    C3 4099   7.187   9.479  10.548 -0.0651 -0.0364  0.2566
  257loPI   PO4 4100   6.884   9.030  10.106 -0.0129  0.0192  0.0193
  257loPI   GL1 4101   7.059   9.073   9.736 -0.0468  0.1640  0.4210
  257loPI   GL2 4102   7.297   9.208   9.583  0.0377 -0.3532  0.2065
  257loPI   C1A 4103   6.980   8.954   9.300 -0.1470  0.0877  0.3576
  257loPI   C2A 4104   6.760   9.046   8.982  0.1287 -0.2522 -0.2566
  257loPI   C3A 4105   6.687   8.842   8.583  0.1315 -0.0352 -0.2888
  257loPI   C4A 4106   6.565   8.908   8.102 -0.1295  0.0298 -0.1225
  257loPI   C5A 4107   6.495   9.007   7.712  0.2952 -0.0660  0.2710
  257loPI   C6A 4108   6.349   9.168   7.310  0.0637 -0.1075  0.1253
  257loPI   C1B 4109   7.374   9.309   9.157  0.1783  0.0140 -0.0548
  257loPI   C2B 4110   7.090   9.356   8.806 -0.0944 -0.1127 -0.1907
  257loPI   C3B 4111   6.930   9.498   8.536  0.1743 -0.1584 -0.4258
  257loPI   C4B 4112   6.772   9.385   7.967 -0.0188 -0.1647  0.3311
  258loPI    C1 4113  16.591   1.936  10.584 -0.0555 -0.1547  0.0570
  258loPI    C2 4114  16.777   2.067  10.913 -0.2106  0.0577  0.0619
  258loPI    C3 4115  16.452   2.257  10.778 -0.1010  0.0214 -0.2606
  258loPI   PO4 4116  16.763   1.846  10.385  0.2168  0.0382 -0.3410
  258loPI   GL1 4117  16.656   1.868  10.015 -0.1089 -0.3209  0.1591
  258loPI   GL2 4118  16.474   2.104  10.113 -0.2794  0.3794  0.1109
  258loPI   C1A 4119  16.766   1.765   9.590  0.0329  0.1249 -0.1538
  258loPI   C2A 4120  16.883   1.765   9.183  0.4466  0.3243 -0.0602
  258loPI   C3A 4121  16.966   1.722   8.742  0.2531 -0.2090  0.0015
  258loPI   C4A 4122  17.074   1.838   8.292 -0.3341 -0.0853  0.0394
  258loPI   C5A 4123  17.175   2.070   7.900  0.1748  0.1589 -0.0074
  258loPI   C6A 4124  16.942   2.093   7.649 -0.0563 -0.1260  0.1276
  258loPI   C1B 4125  16.576   2.253   9.658  0.0445  0.0468  0.4086
  258loPI   C2B 4126  16.655   2.235   9.269 -0.0369 -0.0625  0.0284
  258loPI   C3B 4127  16.734   2.161   8.834  0.2164  0.0799 -0.2028
  258loPI   C4B 4128  16.847   2.293   8.483  0.0329 -0.2970  0.1043
  259loPI    C1 4129  14.692   4.136  10.527  0.1449  0.2362  0.1578
  259loPI    C2 4130  14.426   4.322  10.761  0.0001  0.2406 -0.0081
  259loPI    C3 4131  14.548   3.952  10.851 -0.1408  0.1988  0.0123
  259loPI   PO4 4132  14.609   4.267  10.244  0.2680  0.0480  0.0113
  259loPI   GL1 4133  14.652   4.172   9.736 -0.1263 -0.0762 -0.3697
  259loPI   GL2 4134  14.499   4.530   9.820 -0.0876  0.2169  0.0169
  259loPI   C1A 4135  14.638   4.001   9.375  0.1474 -0.0095 -0.2001
  259loPI   C2A 4136  14.626   3.991   8.970 -0.2813  0.2159  0.0199
  259loPI   C3A 4137  14.477   3.931   8.606 -0.0218  0.3168  0.5643
  259loPI   C4A 4138  14.429   3.690   8.274 -0.0187 -0.1369 -0.0389
  259loPI   C5A 4139  14.255   3.661   7.842 -0.1500 -0.1217  0.2095
  259loPI   C6A 4140  13.956   3.950   7.519 -0.1295 -0.3385 -0.1913
  259loPI   C1B 4141  14.624   4.541   9.450  0.0342  0.0929 -0.2311
  259loPI   C2B 4142  14.703   4.529   9.027  0.2000 -0.0987  0.0803
  259loPI   C3B 4143  14.813   4.279   8.545 -0.1470  0.2762  0.1099
  259loPI   C4B 4144  14.567   4.148   8.119 -0.2898  0.2360 -0.0709
  260loPI    C1 4145  13.036   0.600  10.503  0.0872  0.0967  0.0828
  260loPI    C2 4146  13.339   0.393  10.345 -0.0145 -0.1370  0.1905
  260loPI    C3 4147  13.252   0.356  10.734 -0.2299 -0.1332  0.1440
  260loPI   PO4 4148  12.829   0.569  10.317  0.2009  0.2600 -0.0735
  260loPI   GL1 4149  12.884   0.558   9.938  0.1885  0.4356  0.3210
  260loPI   GL2 4150  12.926   0.216   9.913  0.1482  0.0601 -0.2442
  260loPI   C1A 4151  12.865   0.553   9.493 -0.1413 -0.1174  0.0614
  260loPI   C2A 4152  12.861   0.447   9.121 -0.1147 -0.0024 -0.2096
  260loPI   C3A 4153  12.959   0.255   8.789  0.0202  0.1175 -0.3051
  260loPI   C4A 4154  12.738   0.181   8.401  0.1129  0.0719  0.0248
  260loPI   C5A 4155  12.642   0.195   7.913  0.0076  0.1554 -0.3340
  260loPI   C6A 4156  12.528   0.096   7.451 -0.0393  0.3774 -0.0424
  260loPI   C1B 4157  13.177   0.168   9.587 -0.3149  0.1218 -0.0364
  260loPI   C2B 4158  13.201   0.054   9.216 -0.0324  0.1825  0.1040
  260loPI   C3B 4159  13.175  -0.193   8.840  0.1353 -0.1114 -0.0592
  260loPI   C4B 4160  12.955  -0.378   8.455 -0.4256  0.0440  0.0611
  261loPI    C1 4161   3.828  14.450  10.978  0.2808  0.0853  0.0235
  261loPI    C2 4162   4.014  14.165  11.188  0.0646 -0.1755 -0.1318
  261loPI    C3 4163   3.980  14.534  11.338  0.0056 -0.3291  0.2442
  261loPI   PO4 4164   3.951  14.442  10.749  0.0151 -0.2678 -0.1149
  261loPI   GL1 4165   4.070  14.575  10.404 -0.0106 -0.2441  0.0142
  261loPI   GL2 4166   4.112  14.874  10.640  0.0274 -0.0249  0.1226
  261loPI   C1A 4167   4.114  14.624   9.920 -0.1111 -0.1120 -0.3768
  261loPI   C2A 4168   4.098  14.595   9.444  0.0007 -0.0309  0.0962
  261loPI   C3A 4169   4.116  14.656   8.975 -0.1977  0.0425 -0.4014
  261loPI   C4A 4170   4.136  14.489   8.421  0.1743  0.2024  0.1736
  261loPI   C5A 4171   4.437  14.743   8.155  0.0999  0.2450  0.0732
  261loPI   C6A 4172   4.519  15.090   7.908 -0.1266 -0.0322  0.1855
  261loPI   C1B 4173   3.991  15.046  10.250 -0.1345 -0.0427 -0.0501
  261loPI   C2B 4174   3.997  15.221   9.928  0.0726  0.3676  0.2770
  261loPI   C3B 4175   3.965  15.056   9.611 -0.1228 -0.1667 -0.0192
  261loPI   C4B 4176   4.068  15.064   9.291  0.1994  0.0902  0.0373
  262loPI    C1 4177   3.056   5.149  10.507  0.0478  0.2203  0.0085
  262loPI    C2 4178   3.003   5.377  10.831 -0.1178  0.2500 -0.0386
  262loPI    C3 4179   3.318   5.133  10.809 -0.1005  0.2545  0.1406
  262loPI   PO4 4180   2.906   5.326  10.193 -0.0252 -0.2712 -0.0830
  262loPI   GL1 4181   2.888   5.383   9.749 -0.1724 -0.0872  0.2516
  262loPI   GL2 4182   2.919   5.112   9.774  0.1791 -0.3424 -0.0664
  262loPI   C1A 4183   3.019   5.583   9.265 -0.0612  0.0830  0.1347
  262loPI   C2A 4184   2.845   5.657   8.887 -0.1161 -0.3493  0.2059
  262loPI   C3A 4185   2.732   5.857   8.680 -0.2913  0.2294 -0.0385
  262loPI   C4A 4186   2.491   5.979   8.273  0.3466 -0.1161 -0.1172
  262loPI   C5A 4187   2.546   5.831   7.827  0.2655 -0.5434  0.2061
  262loPI   C6A 4188   2.375   5.771   7.431 -0.1250 -0.0528  0.0457
  262loPI   C1B 4189   3.019   5.034   9.306 -0.0988 -0.3567 -0.0988
  262loPI   C2B 4190   3.192   5.163   8.930 -0.1144  0.2606  0.0535
  262loPI   C3B 4191   3.168   5.381   8.548 -0.2356  0.1379  0.3264
  262loPI   C4B 4192   3.327   5.269   8.172 -0.0649  0.0848  0.2032
  263loPI    C1 4193   5.479   3.637  10.343 -0.1896 -0.0799  0.0804
  263loPI    C2 4194   5.774   3.407  10.486  0.0817  0.0893 -0.1933
  263loPI    C3 4195   5.543   3.615  10.737  0.1978 -0.0407  0.0242
  263loPI   PO4 4196   5.283   3.516  10.172 -0.1001  0.1087 -0.0980
  263loPI   GL1 4197   5.183   3.376   9.862 -0.4516 -0.0701  0.0155
  263loPI   GL2 4198   5.042   3.567   9.642  0.0204 -0.1926 -0.1209
  263loPI   C1A 4199   5.523   3.486   9.527 -0.1087  0.0805 -0.1040
  263loPI   C2A 4200   5.588   3.417   9.092 -0.3271  0.3654 -0.3168
  263loPI   C3A 4201   5.552   3.340   8.588  0.1734  0.1640 -0.0794
  263loPI   C4A 4202   5.630   3.333   8.158  0.2100 -0.1457  0.1886
  263loPI   C5A 4203   5.908   3.312   7.746 -0.2890 -0.0080  0.2748
  263loPI   C6A 4204   6.150   3.245   7.437  0.1213 -0.1505  0.3550
  263loPI   C1B 4205   4.966   3.481   9.271 -0.2628 -0.3089 -0.3150
  263loPI   C2B 4206   4.879   3.447   8.900 -0.4443  0.0747  0.1118
  263loPI   C3B 4207   4.970   3.278   8.489 -0.1434 -0.2228  0.1435
  263loPI   C4B 4208   5.031   3.338   7.994 -0.1862  0.1197  0.2239
  264loPI    C1 4209  11.192  17.106  10.660  0.0514  0.1805  0.4476
  264loPI    C2 4210  11.273  16.753  10.829 -0.1033 -0.2685 -0.3617
  264loPI    C3 4211  10.900  16.896  10.834 -0.0646 -0.1712 -0.1420
  264loPI   PO4 4212  11.238  17.071  10.269 -0.0665  0.2536  0.1813
  264loPI   GL1 4213  11.050  17.377   9.947  0.1203 -0.3050 -0.2200
  264loPI   GL2 4214  11.079  17.658   9.797 -0.3628 -0.0806  0.1560
  264loPI   C1A 4215  11.080  17.116   9.605  0.0759 -0.1466  0.2371
  264loPI   C2A 4216  11.164  17.037   9.098 -0.1101  0.2501  0.0236
  264loPI   C3A 4217  11.084  16.971   8.752 -0.0282  0.2674  0.0949
  264loPI   C4A 4218  10.971  16.882   8.331 -0.1039  0.0169 -0.2068
  264loPI   C5A 4219  10.681  16.784   8.043  0.3024 -0.0369  0.0863
  264loPI   C6A 4220  10.540  16.347   7.990  0.1430 -0.0730  0.4953
  264loPI   C1B 4221  10.992  17.552   9.394 -0.1175  0.1001  0.0353
  264loPI   C2B 4222  10.886  17.546   8.950  0.2934 -0.1923  0.0419
  264loPI   C3B 4223  10.860  17.368   8.500 -0.1183 -0.1666  0.1333
  264loPI   C4B 4224  10.980  17.231   8.040  0.1774 -0.0628  0.2123
  265loPI    C1 4225   2.782  11.220  10.733 -0.2342  0.4341  0.0796
  265loPI    C2 4226   3.154  11.356  10.788 -0.0466 -0.0386  0.0295
  265loPI    C3 4227   3.059  11.165  10.450 -0.3303  0.0536  0.0542
  265loPI   PO4 4228   2.529  11.395  10.794  0.0511  0.1092  0.1223
  265loPI   GL1 4229   2.296  11.515  10.411 -0.1768  0.0519  0.2153
  265loPI   GL2 4230   1.954  11.671  10.291  0.1460  0.1822  0.1858
  265loPI   C1A 4231   2.298  11.531   9.889  0.2189  0.1997 -0.0157
  265loPI   C2A 4232   2.129  11.638   9.489  0.0196 -0.0285 -0.2000
  265loPI   C3A 4233   2.012  11.718   9.003 -0.0258  0.0064  0.2855
  265loPI   C4A 4234   2.292  11.866   8.600  0.3010  0.0743  0.0932
  265loPI   C5A 4235   2.190  12.305   8.437 -0.2389  0.0477 -0.4768
  265loPI   C6A 4236   2.334  12.708   8.244 -0.0814 -0.0843 -0.1158
  265loPI   C1B 4237   1.807  11.432  10.011  0.3310 -0.0616 -0.1489
  265loPI   C2B 4238   1.539  11.367   9.713 -0.0427  0.2787  0.0459
  265loPI   C3B 4239   1.580  11.218   9.341  0.2101  0.2789  0.4322
  265loPI   C4B 4240   1.427  11.042   9.054 -0.1797 -0.0650  0.1081
  266loPI    C1 4241  10.632   4.546   9.943 -0.1504  0.1670  0.0651
  266loPI    C2 4242  10.440   4.197   9.907  0.0232  0.0711  0.0568
  266loPI    C3 4243  10.592   4.305  10.261  0.1438  0.0450  0.0134
  266loPI   PO4 4244  10.615   4.638   9.701  0.2784 -0.3991  0.0751
  266loPI   GL1 4245  10.705   4.977   9.384  0.2699  0.1860  0.0366
  266loPI   GL2 4246  11.022   4.819   9.361  0.1272  0.0417 -0.1269
  266loPI   C1A 4247  10.601   4.892   8.959 -0.0890 -0.2817  0.3015
  266loPI   C2A 4248  10.727   4.870   8.558  0.2435 -0.1349 -0.1191
  266loPI   C3A 4249  10.702   4.829   8.225  0.0422  0.2427 -0.1359
  266loPI   C4A 4250  10.898   4.863   7.854  0.1857  0.0752 -0.0354
  266loPI   C5A 4251  10.891   5.159   7.556 -0.0123  0.0608  0.3572
  266loPI   C6A 4252  11.107   5.465   7.364 -0.0418  0.1884  0.2075
  266loPI   C1B 4253  11.159   4.776   8.944  0.1920 -0.1206  0.3331
  266loPI   C2B 4254  11.229   4.801   8.596 -0.0382 -0.0529  0.0169
  266loPI   C3B 4255  11.319   4.769   8.229  0.0119  0.0706  0.3693
  266loPI   C4B 4256  11.353   4.761   7.808  0.0728 -0.0243 -0.0226
  267loPI    C1 4257   6.975   1.772  10.270 -0.0071  0.0543 -0.1306
  267loPI    C2 4258   6.896   1.709  10.657 -0.1872  0.2698 -0.1303
  267loPI    C3 4259   7.273   1.694  10.525 -0.0977  0.4324  0.0994
  267loPI   PO4 4260   6.800   1.571  10.163 -0.3397  0.1369  0.0335
  267loPI   GL1 4261   6.776   1.362   9.715 -0.3066 -0.1408  0.0988
  267loPI   GL2 4262   6.535   1.420   9.692  0.0648  0.0585  0.0559
  267loPI   C1A 4263   6.840   1.371   9.231 -0.1698 -0.5279  0.0613
  267loPI   C2A 4264   6.857   1.290   8.873 -0.1344  0.0229 -0.4190
  267loPI   C3A 4265   6.877   1.293   8.527 -0.1965 -0.1002  0.5009
  267loPI   C4A 4266   6.854   1.270   8.117  0.2515 -0.0747 -0.0388
  267loPI   C5A 4267   6.942   1.381   7.681  0.5114  0.1114 -0.1112
  267loPI   C6A 4268   7.150   1.401   7.311  0.0012  0.1520  0.0444
  267loPI   C1B 4269   6.309   1.444   9.196 -0.3000 -0.0903 -0.2408
  267loPI   C2B 4270   6.395   1.380   8.713 -0.3876 -0.1582  0.0742
  267loPI   C3B 4271   6.355   1.332   8.294  0.0943 -0.1679  0.3176
  267loPI   C4B 4272   6.238   1.272   7.887  0.0508 -0.0364 -0.0145
  268loPI    C1 4273   9.919  11.834  10.853 -0.1179  0.1443 -0.1377
  268loPI    C2 4274   9.763  11.797  11.219  0.0410  0.0384 -0.0794
  268loPI    C3 4275  10.136  11.674  11.148 -0.0172 -0.0169 -0.2973
  268loPI   PO4 4276   9.821  11.836  10.665  0.2947 -0.0817 -0.0323
  268loPI   GL1 4277   9.725  11.890  10.287 -0.0741  0.3057  0.3556
  268loPI   GL2 4278   9.905  11.991  10.107 -0.0055 -0.2131 -0.1701
  268loPI   C1A 4279   9.572  11.618   9.980  0.1388 -0.1991  0.3071
  268loPI   C2A 4280   9.603  11.593   9.528  0.2101 -0.1110  0.1833
  268loPI   C3A 4281   9.542  11.600   9.127  0.0096  0.0647 -0.1973
  268loPI   C4A 4282   9.467  11.684   8.714  0.2059  0.1266 -0.0052
  268loPI   C5A 4283   9.459  11.424   8.333 -0.3062 -0.1610  0.1328
  268loPI   C6A 4284   9.665  11.162   8.341  0.0560  0.2191  0.4592
  268loPI   C1B 4285   9.730  12.098   9.695  0.0285 -0.1892 -0.0776
  268loPI   C2B 4286   9.950  12.321   9.313 -0.2461  0.0703  0.0314
  268loPI   C3B 4287  10.149  12.432   8.868  0.0824 -0.2016 -0.0417
  268loPI   C4B 4288  10.172  12.476   8.423 -0.2208  0.0255  0.0982
  269loPI    C1 4289  10.055   7.800  10.142  0.0710 -0.1128 -0.0069
  269loPI    C2 4290   9.666   7.753  10.224  0.0506 -0.1225 -0.1082
  269loPI    C3 4291   9.882   8.023  10.426  0.0269 -0.2238  0.0541
  269loPI   PO4 4292  10.096   7.821   9.917 -0.2710 -0.3550 -0.1876
  269loPI   GL1 4293   9.969   7.847   9.575 -0.2032  0.1134 -0.0780
  269loPI   GL2 4294   9.884   8.195   9.728  0.0025 -0.0505  0.3328
  269loPI   C1A 4295  10.320   7.857   9.313 -0.0432  0.1484 -0.1748
  269loPI   C2A 4296  10.333   7.878   8.919  0.3400 -0.1367 -0.0313
  269loPI   C3A 4297  10.243   7.936   8.452  0.1780 -0.0691 -0.0074
  269loPI   C4A 4298  10.296   7.988   8.061 -0.3406 -0.2284 -0.0248
  269loPI   C5A 4299  10.461   8.093   7.622 -0.2264  0.0226 -0.0904
  269loPI   C6A 4300  10.643   7.972   7.228  0.1973 -0.1215 -0.1405
  269loPI   C1B 4301  10.272   8.309   9.415 -0.2900  0.1007 -0.2051
  269loPI   C2B 4302  10.543   8.347   9.101 -0.1898 -0.0627 -0.0076
  269loPI   C3B 4303  10.587   8.422   8.720 -0.1460 -0.1061 -0.1094
  269loPI   C4B 4304  10.687   8.445   8.245 -0.1027  0.0177  0.3101
  270loPI    C1 4305   9.787   5.154   9.898 -0.0935  0.1093  0.1783
  270loPI    C2 4306  10.098   5.383   9.794  0.0538 -0.1162  0.1146
  270loPI    C3 4307  10.070   5.242  10.167  0.2241 -0.3968  0.0250
  270loPI   PO4 4308   9.704   5.104   9.606 -0.2559  0.1628 -0.3883
  270loPI   GL1 4309   9.980   5.329   9.266 -0.0641 -0.2056  0.0837
  270loPI   GL2 4310  10.005   5.011   9.162  0.0848  0.0249  0.0602
  270loPI   C1A 4311  10.072   5.555   8.826 -0.2959 -0.0796 -0.1640
  270loPI   C2A 4312  10.066   5.591   8.353 -0.0288 -0.1335 -0.1129
  270loPI   C3A 4313  10.093   5.382   7.965  0.0800  0.2277  0.1431
  270loPI   C4A 4314  10.458   5.592   7.635  0.0194 -0.4627 -0.2723
  270loPI   C5A 4315  10.661   5.686   7.283  0.0389  0.0967 -0.1641
  270loPI   C6A 4316  10.650   6.103   7.131  0.0737 -0.1104  0.4537
  270loPI   C1B 4317   9.769   4.921   8.830  0.5105  0.1717  0.2254
  270loPI   C2B 4318   9.779   4.894   8.349  0.1713  0.1549 -0.1107
  270loPI   C3B 4319   9.594   4.830   7.982 -0.1607  0.1532  0.1535
  270loPI   C4B 4320   9.419   4.908   7.596  0.0865 -0.0308  0.0470
  271loPI    C1 4321  17.953   8.908  10.252 -0.0109  0.0213  0.0503
  271loPI    C2 4322  17.723   9.099  10.518 -0.0185  0.1407 -0.0406
  271loPI    C3 4323  18.104   9.018  10.606 -0.0703  0.0197  0.0762
  271loPI   PO4 4324  17.824   9.089  10.024  0.0474  0.2768  0.0265
  271loPI   GL1 4325  17.500   8.856   9.725 -0.0798  0.1434  0.1472
  271loPI   GL2 4326  17.320   9.161   9.703 -0.0565 -0.0677 -0.2035
  271loPI   C1A 4327  17.510   8.933   9.275 -0.4229  0.1677 -0.1079
  271loPI   C2A 4328  17.515   9.002   8.832 -0.3486  0.0505 -0.0602
  271loPI   C3A 4329  17.419   8.923   8.378  0.0616 -0.2230  0.0537
  271loPI   C4A 4330  17.519   9.219   7.989 -0.2936  0.1600 -0.2959
  271loPI   C5A 4331  17.539   9.636   7.726  0.2108  0.1318 -0.2115
  271loPI   C6A 4332  17.832   9.821   7.393  0.0795 -0.1658  0.0461
  271loPI   C1B 4333  17.064   8.885   9.453 -0.3653 -0.0611 -0.2242
  271loPI   C2B 4334  17.112   8.701   9.061 -0.2147  0.0915 -0.1206
  271loPI   C3B 4335  16.973   8.518   8.662 -0.0063 -0.1439  0.2723
  271loPI   C4B 4336  16.786   8.550   8.244 -0.2413 -0.3135  0.0488
  272loPI    C1 4337  14.692   3.252  10.219 -0.0713  0.2050 -0.1212
  272loPI    C2 4338  14.594   3.035  10.540  0.0475  0.1274 -0.1369
  272loPI    C3 4339  14.978   3.079  10.438  0.0166  0.2456 -0.2035
  272loPI   PO4 4340  14.509   3.247  10.070 -0.1407 -0.2601 -0.1361
  272loPI   GL1 4341  14.561   2.899   9.749 -0.1610 -0.0484  0.5580
  272loPI   GL2 4342  14.316   2.985   9.490  0.1364  0.2045  0.2150
  272loPI   C1A 4343  14.833   2.829   9.454 -0.0446  0.1871  0.0761
  272loPI   C2A 4344  14.936   2.847   9.070  0.1138  0.1348 -0.0501
  272loPI   C3A 4345  14.943   2.854   8.641 -0.1452 -0.0454  0.0620
  272loPI   C4A 4346  14.852   2.702   8.222  0.2039  0.1378 -0.1461
  272loPI   C5A 4347  14.780   2.906   7.820  0.0603  0.0161  0.1994
  272loPI   C6A 4348  15.214   3.001   7.765 -0.1948  0.0366  0.1666
  272loPI   C1B 4349  14.427   2.771   9.101  0.1409  0.1553  0.0889
  272loPI   C2B 4350  14.466   2.836   8.648 -0.1755  0.1827  0.2452
  272loPI   C3B 4351  14.337   2.818   8.237 -0.3013 -0.0343  0.1224
  272loPI   C4B 4352  14.339   3.193   7.852 -0.0559 -0.1846 -0.0159
  273loPI    C1 4353  14.677  11.760  10.410 -0.0454  0.1029  0.1235
  273loPI    C2 4354  14.335  11.582  10.517  0.0276  0.0854  0.3311
  273loPI    C3 4355  14.685  11.407  10.598  0.0856  0.0816  0.0784
  273loPI   PO4 4356  14.670  11.811  10.209 -0.1975 -0.3556 -0.0683
  273loPI   GL1 4357  14.920  11.881   9.933  0.1565  0.1357 -0.0382
  273loPI   GL2 4358  14.567  11.728   9.733  0.2274  0.2907 -0.1179
  273loPI   C1A 4359  14.872  12.051   9.543 -0.0208 -0.1735 -0.1471
  273loPI   C2A 4360  14.746  11.925   9.101  0.3266  0.1091  0.0102
  273loPI   C3A 4361  14.588  11.776   8.796  0.1576 -0.0076 -0.0942
  273loPI   C4A 4362  14.446  11.626   8.383  0.0454 -0.1042  0.2099
  273loPI   C5A 4363  14.272  11.509   7.938  0.1945  0.3120 -0.1936
  273loPI   C6A 4364  13.985  11.433   7.431 -0.2007  0.2516 -0.1350
  273loPI   C1B 4365  14.510  11.565   9.306  0.1947 -0.1590 -0.6652
  273loPI   C2B 4366  14.209  11.593   9.066 -0.1857  0.0832  0.0304
  273loPI   C3B 4367  13.893  11.587   8.768  0.2326  0.1871 -0.0227
  273loPI   C4B 4368  13.600  11.701   8.513 -0.0154 -0.1148  0.2721
  274loPI    C1 4369  16.905  14.809  10.904 -0.1562 -0.0235 -0.2224
  274loPI    C2 4370  16.871  14.422  11.000 -0.0936 -0.0306 -0.2286
  274loPI    C3 4371  16.839  14.703  11.284  0.1129 -0.0525 -0.1824
  274loPI   PO4 4372  17.044  14.796  10.666 -0.1244  0.0777 -0.0027
  274loPI   GL1 4373  17.121  14.957  10.285 -0.4009 -0.1574 -0.0346
  274loPI   GL2 4374  17.394  14.863  10.042  0.0401  0.0500 -0.1707
  274loPI   C1A 4375  16.940  15.024   9.891 -0.5826 -0.1708 -0.0780
  274loPI   C2A 4376  16.954  15.062   9.413  0.0082  0.1675  0.1625
  274loPI   C3A 4377  16.892  15.016   8.986 -0.2280  0.0247  0.4699
  274loPI   C4A 4378  16.705  14.735   8.809  0.1875  0.0150  0.0464
  274loPI   C5A 4379  16.361  14.510   8.864  0.0459 -0.0314 -0.0520
  274loPI   C6A 4380  16.047  14.230   8.717 -0.3436 -0.0929  0.0220
  274loPI   C1B 4381  17.458  14.947   9.574 -0.1270  0.1309  0.3142
  274loPI   C2B 4382  17.472  15.014   9.201  0.1070 -0.2038  0.1610
  274loPI   C3B 4383  17.573  14.906   8.765  0.1853  0.5181  0.0438
  274loPI   C4B 4384  17.558  14.864   8.417  0.1107  0.2301  0.1746
  275loPI    C1 4385   3.140   7.833  10.342  0.0446  0.2989 -0.0584
  275loPI    C2 4386   2.903   8.119  10.490 -0.1357 -0.0087  0.2618
  275loPI    C3 4387   3.220   7.995  10.699  0.0469  0.0800  0.0415
  275loPI   PO4 4388   3.205   7.952  10.110  0.1233 -0.0677 -0.0200
  275loPI   GL1 4389   3.231   8.028   9.669  0.1642 -0.1741  0.5087
  275loPI   GL2 4390   3.003   8.060   9.556  0.0482  0.0305  0.0562
  275loPI   C1A 4391   3.560   8.227   9.370  0.4146  0.0520  0.0539
  275loPI   C2A 4392   3.600   8.383   8.879 -0.0160  0.3660 -0.2509
  275loPI   C3A 4393   3.654   8.439   8.515  0.0073 -0.2267 -0.0787
  275loPI   C4A 4394   3.754   8.676   8.195 -0.2902  0.0048  0.2145
  275loPI   C5A 4395   3.552   8.774   7.763 -0.2375  0.0515 -0.2941
  275loPI   C6A 4396   3.205   8.512   7.512  0.3931 -0.0315  0.3828
  275loPI   C1B 4397   3.164   7.982   9.147  0.0993 -0.1240  0.1504
  275loPI   C2B 4398   3.207   8.013   8.658 -0.1842 -0.0463 -0.2136
  275loPI   C3B 4399   3.349   8.016   8.244 -0.0451  0.0120  0.0660
  275loPI   C4B 4400   3.400   8.241   7.912  0.1549 -0.0902 -0.0373
  276loPI    C1 4401   9.456   9.235  10.263 -0.1119 -0.1632 -0.0483
  276loPI    C2 4402   9.076   9.114  10.302 -0.1448 -0.0579 -0.0362
  276loPI    C3 4403   9.225   9.387  10.553 -0.1121  0.0260 -0.1465
  276loPI   PO4 4404   9.480   9.185  10.041  0.2652  0.4856 -0.1173
  276loPI   GL1 4405   9.540   9.188   9.726  0.1574 -0.2966  0.0611
  276loPI   GL2 4406   9.364   8.975   9.501  0.1478 -0.0462  0.1032
  276loPI   C1A 4407   9.693   9.426   9.299  0.0518 -0.2085 -0.0751
  276loPI   C2A 4408   9.742   9.379   8.830 -0.3068 -0.0745 -0.0597
  276loPI   C3A 4409   9.782   9.339   8.456 -0.2992 -0.1529 -0.4831
  276loPI   C4A 4410   9.744   9.310   8.059 -0.2628  0.0613  0.0810
  276loPI   C5A 4411   9.443   9.128   7.644  0.1941  0.0825 -0.1925
  276loPI   C6A 4412   8.964   9.050   7.648  0.0187  0.1804  0.0110
  276loPI   C1B 4413   9.346   9.152   9.063 -0.1157  0.0452  0.3700
  276loPI   C2B 4414   9.328   9.222   8.626  0.0290  0.2797  0.0300
  276loPI   C3B 4415   9.327   9.021   8.305 -0.0410  0.4050  0.0939
  276loPI   C4B 4416   9.092   8.706   8.029  0.3130 -0.0662  0.4914
  277loPI    C1 4417  14.832  14.103  10.542 -0.1508  0.0918 -0.3109
  277loPI    C2 4418  14.441  14.155  10.609 -0.1192  0.0001 -0.0424
  277loPI    C3 4419  14.705  14.422  10.746 -0.0725 -0.0450 -0.0438
  277loPI   PO4 4420  14.849  14.097  10.320 -0.1112  0.0927  0.0298
  277loPI   GL1 4421  14.892  14.110   9.954 -0.0822  0.2972  0.0024
  277loPI   GL2 4422  15.185  14.187   9.866  0.0276 -0.0799 -0.0370
  277loPI   C1A 4423  14.763  14.190   9.527  0.2259 -0.0624 -0.2422
  277loPI   C2A 4424  14.841  14.165   9.053 -0.1525  0.0984  0.4810
  277loPI   C3A 4425  14.872  14.365   8.606 -0.0417 -0.2812 -0.1024
  277loPI   C4A 4426  15.142  14.657   8.344  0.1859 -0.1563  0.4043
  277loPI   C5A 4427  15.202  14.790   7.929  0.0756 -0.2498 -0.0017
  277loPI   C6A 4428  15.226  15.007   7.494 -0.2739  0.0362  0.1643
  277loPI   C1B 4429  15.344  14.265   9.329 -0.0582 -0.0957 -0.2516
  277loPI   C2B 4430  15.321  14.225   8.829 -0.0006 -0.1296 -0.0467
  277loPI   C3B 4431  15.557  14.369   8.471 -0.3818  0.2281 -0.1110
  277loPI   C4B 4432  15.799  14.326   8.185  0.0553  0.2710  0.0165
  278loPI    C1 4433   6.725  18.072  10.608  0.2693 -0.1256  0.0281
  278loPI    C2 4434   6.622  18.210  10.969  0.0909 -0.3345  0.0596
  278loPI    C3 4435   6.984  18.048  10.912  0.1641 -0.1915  0.1132
  278loPI   PO4 4436   6.543  17.839  10.551 -0.0132  0.0859 -0.3065
  278loPI   GL1 4437   6.227  17.787  10.169 -0.0585 -0.1337 -0.0574
  278loPI   GL2 4438   6.319  17.521  10.112  0.2749  0.0702 -0.2674
  278loPI   C1A 4439   6.113  18.030   9.798 -0.1986  0.0752  0.2689
  278loPI   C2A 4440   6.216  18.075   9.422  0.1259 -0.0552  0.0144
  278loPI   C3A 4441   6.187  18.076   8.994  0.1966 -0.4147 -0.0128
  278loPI   C4A 4442   6.061  18.097   8.608  0.0525  0.4335  0.0568
  278loPI   C5A 4443   6.193  18.012   8.203  0.0508  0.0065 -0.1520
  278loPI   C6A 4444   6.459  17.689   7.943 -0.1993 -0.0809 -0.3552
  278loPI   C1B 4445   6.456  17.619   9.744 -0.4202  0.3055 -0.1779
  278loPI   C2B 4446   6.408  17.600   9.211  0.0867  0.1560 -0.3453
  278loPI   C3B 4447   6.368  17.508   8.783 -0.0035  0.0693 -0.0297
  278loPI   C4B 4448   6.293  17.330   8.364 -0.2116  0.1784 -0.0639
  279loPI    C1 4449  13.218  12.427  10.437 -0.1218 -0.0482 -0.0273
  279loPI    C2 4450  13.015  12.574  10.749 -0.1768 -0.1039 -0.0369
  279loPI    C3 4451  13.165  12.203  10.764 -0.0093 -0.0354  0.0003
  279loPI   PO4 4452  13.055  12.456  10.221  0.1052 -0.1183 -0.3687
  279loPI   GL1 4453  12.820  12.453   9.873  0.3118  0.3016 -0.1947
  279loPI   GL2 4454  12.660  12.231  10.019  0.0481 -0.0223  0.4178
  279loPI   C1A 4455  12.956  12.622   9.516  0.0778  0.2003 -0.0030
  279loPI   C2A 4456  13.180  12.684   9.186  0.0769 -0.3803 -0.1515
  279loPI   C3A 4457  13.465  12.825   8.812 -0.2466  0.3770  0.0111
  279loPI   C4A 4458  13.615  12.736   8.424  0.0054 -0.2035 -0.0943
  279loPI   C5A 4459  13.495  12.520   8.071 -0.0767  0.0685  0.1910
  279loPI   C6A 4460  13.637  12.701   7.680 -0.1313  0.0711  0.2242
  279loPI   C1B 4461  12.469  12.143   9.615 -0.0092 -0.2293 -0.0865
  279loPI   C2B 4462  12.326  12.250   9.239  0.2509 -0.2021  0.0994
  279loPI   C3B 4463  12.212  12.358   8.836 -0.0913 -0.1567  0.2012
  279loPI   C4B 4464  12.039  12.380   8.410 -0.3387 -0.1641 -0.1027
  280loPI    C1 4465  12.263  10.989  10.636 -0.1444 -0.0193 -0.1146
  280loPI    C2 4466  12.473  10.650  10.675 -0.1165  0.0093 -0.0112
  280loPI    C3 4467  12.293  10.811  10.994 -0.3369 -0.0407 -0.1082
  280loPI   PO4 4468  12.109  10.976  10.410 -0.2118  0.3335  0.0237
  280loPI   GL1 4469  12.146  11.009  10.017  0.3523 -0.1811 -0.4564
  280loPI   GL2 4470  12.442  11.208  10.069 -0.1363  0.0428 -0.0543
  280loPI   C1A 4471  11.823  11.107   9.588  0.0807 -0.1809 -0.0461
  280loPI   C2A 4472  11.785  11.159   9.154  0.1624 -0.0243  0.1454
  280loPI   C3A 4473  11.839  11.149   8.713 -0.0616  0.0359 -0.0156
  280loPI   C4A 4474  11.578  11.243   8.320 -0.1462 -0.1767  0.0621
  280loPI   C5A 4475  11.458  11.514   7.958 -0.2193 -0.1992  0.1290
  280loPI   C6A 4476  11.532  11.936   7.780 -0.0524 -0.0453 -0.1327
  280loPI   C1B 4477  12.289  11.382   9.710 -0.0160 -0.1177  0.2059
  280loPI   C2B 4478  12.054  11.520   9.437  0.1975 -0.2698 -0.2420
  280loPI   C3B 4479  11.943  11.611   8.974  0.2324  0.0483 -0.0651
  280loPI   C4B 4480  11.810  11.622   8.584  0.1911  0.0457  0.1770
  281loPI    C1 4481  12.567   8.658  10.310  0.0464  0.0310 -0.0398
  281loPI    C2 4482  12.405   8.316  10.438  0.1411  0.0525  0.1408
  281loPI    C3 4483  12.170   8.615  10.313  0.0630 -0.1435 -0.1942
  281loPI   PO4 4484  12.787   8.565  10.128  0.1412  0.1603  0.1647
  281loPI   GL1 4485  12.827   8.445   9.670 -0.1862  0.1407  0.2443
  281loPI   GL2 4486  13.094   8.401   9.726 -0.0295  0.1024 -0.1853
  281loPI   C1A 4487  12.883   8.500   9.306 -0.3330 -0.0900  0.0532
  281loPI   C2A 4488  12.915   8.552   8.859 -0.6532 -0.2380 -0.1058
  281loPI   C3A 4489  12.979   8.832   8.482  0.3090 -0.1726 -0.2905
  281loPI   C4A 4490  12.809   8.829   8.026  0.3154  0.1597 -0.0155
  281loPI   C5A 4491  12.744   9.153   7.660 -0.1978 -0.2368  0.1657
  281loPI   C6A 4492  12.896   9.404   7.391  0.0671  0.0684  0.1965
  281loPI   C1B 4493  13.376   8.512   9.415  0.0173  0.0276 -0.1852
  281loPI   C2B 4494  13.450   8.493   8.958  0.1071 -0.1882 -0.3613
  281loPI   C3B 4495  13.351   8.471   8.586  0.0054  0.1730  0.0598
  281loPI   C4B 4496  13.399   8.687   8.181  0.2960 -0.0125  0.0111
  282loPI    C1 4497   8.582   9.154  10.128 -0.1887  0.1846 -0.1029
  282loPI    C2 4498   8.245   9.257  10.319 -0.0342  0.1963  0.1689
  282loPI    C3 4499   8.546   9.089  10.521  0.2317  0.4382 -0.0170
  282loPI   PO4 4500   8.457   9.028   9.836  0.2083 -0.1616 -0.0897
  282loPI   GL1 4501   8.354   9.220   9.442 -0.0357 -0.3740 -0.0996
  282loPI   GL2 4502   8.695   9.302   9.379  0.1251 -0.2217  0.1440
  282loPI   C1A 4503   8.207   9.396   9.049 -0.2405 -0.0244 -0.0424
  282loPI   C2A 4504   8.080   9.606   8.692 -0.3461  0.2637 -0.1530
  282loPI   C3A 4505   7.969   9.678   8.249 -0.1685  0.0100  0.2781
  282loPI   C4A 4506   7.752   9.641   7.918  0.1472 -0.1585 -0.0436
  282loPI   C5A 4507   7.795   9.410   7.577 -0.1198  0.0069  0.2302
  282loPI   C6A 4508   7.477   9.307   7.259 -0.0138 -0.2118 -0.0851
  282loPI   C1B 4509   8.772   9.355   8.995 -0.2672 -0.2469 -0.0236
  282loPI   C2B 4510   8.850   9.434   8.537  0.1117 -0.1695 -0.1309
  282loPI   C3B 4511   8.863   9.646   8.105  0.0773 -0.0031 -0.1552
  282loPI   C4B 4512   8.867   9.826   7.685  0.5084  0.0631 -0.3096
  283loPI    C1 4513   3.234   3.680   9.873  0.0276  0.0837  0.0093
  283loPI    C2 4514   3.449   3.608  10.203 -0.1715  0.0247  0.1279
  283loPI    C3 4515   3.567   3.459   9.850 -0.0167 -0.0037  0.1910
  283loPI   PO4 4516   2.991   3.668   9.873  0.4509  0.2654 -0.0717
  283loPI   GL1 4517   2.584   3.663   9.683  0.0984 -0.0423  0.1462
  283loPI   GL2 4518   2.444   3.827   9.632 -0.1091  0.1037 -0.0962
  283loPI   C1A 4519   2.610   3.328   9.432  0.0341  0.1532  0.0314
  283loPI   C2A 4520   2.875   3.072   9.233  0.1534  0.2934  0.0705
  283loPI   C3A 4521   2.850   2.743   8.882  0.0062 -0.0897 -0.0098
  283loPI   C4A 4522   3.006   2.610   8.504  0.5155  0.0611 -0.2204
  283loPI   C5A 4523   3.218   2.744   8.219  0.1106  0.2743 -0.3003
  283loPI   C6A 4524   3.238   3.052   7.928 -0.0489 -0.5295  0.3879
  283loPI   C1B 4525   2.419   3.773   9.156  0.1252  0.0650  0.0979
  283loPI   C2B 4526   2.577   3.847   8.734  0.2573  0.3739 -0.2396
  283loPI   C3B 4527   2.634   3.719   8.290 -0.0184  0.0759  0.2793
  283loPI   C4B 4528   2.629   3.611   7.831  0.1223 -0.1609  0.1605
  284loPI    C1 4529  10.399  11.477  10.659 -0.2953 -0.2236  0.2106
  284loPI    C2 4530  10.288  11.210  10.935 -0.0554 -0.3593  0.1788
  284loPI    C3 4531  10.669  11.330  10.916 -0.1366 -0.1067  0.1125
  284loPI   PO4 4532  10.223  11.488  10.541 -0.0345 -0.1226  0.2919
  284loPI   GL1 4533  10.222  11.518  10.132 -0.2041 -0.2790  0.0465
  284loPI   GL2 4534  10.588  11.586  10.041 -0.2806  0.1161  0.2680
  284loPI   C1A 4535  10.003  11.673   9.702 -0.0490  0.3542  0.1698
  284loPI   C2A 4536   9.939  11.817   9.209 -0.1801 -0.3579 -0.0122
  284loPI   C3A 4537   9.781  12.049   8.871 -0.0728  0.0053  0.0359
  284loPI   C4A 4538   9.696  12.061   8.375 -0.0988 -0.1323 -0.3230
  284loPI   C5A 4539   9.474  11.980   8.050  0.2238 -0.0000 -0.3818
  284loPI   C6A 4540   9.073  12.136   7.836  0.1068  0.0544 -0.2212
  284loPI   C1B 4541  10.484  11.629   9.674  0.0298  0.1389 -0.1090
  284loPI   C2B 4542  10.433  11.739   9.284  0.2767 -0.1171  0.1517
  284loPI   C3B 4543  10.275  11.906   8.857 -0.0606  0.4030 -0.4543
  284loPI   C4B 4544  10.263  11.957   8.458  0.0616  0.1310 -0.2185
  285loPI    C1 4545  12.820   1.991  10.469 -0.1071  0.0078  0.1462
  285loPI    C2 4546  13.003   2.346  10.498 -0.0439 -0.0257  0.1593
  285loPI    C3 4547  13.141   2.032  10.704  0.0086 -0.1023  0.0090
  285loPI   PO4 4548  12.760   1.937  10.174  0.3838  0.3124 -0.1583
  285loPI   GL1 4549  12.684   2.123   9.811 -0.1105  0.2799  0.1705
  285loPI   GL2 4550  12.491   1.849   9.693 -0.0930 -0.0125  0.1289
  285loPI   C1A 4551  12.820   2.096   9.408  0.3516 -0.0057 -0.0682
  285loPI   C2A 4552  12.741   2.076   8.913 -0.2794  0.1727 -0.4475
  285loPI   C3A 4553  12.479   1.985   8.547  0.0044  0.3855 -0.3971
  285loPI   C4A 4554  12.430   2.179   8.116 -0.1410 -0.2858 -0.0122
  285loPI   C5A 4555  12.394   2.572   7.955  0.2255  0.1500 -0.0552
  285loPI   C6A 4556  12.327   2.860   7.569 -0.2751 -0.1387  0.1162
  285loPI   C1B 4557  12.343   1.856   9.204  0.2896 -0.0154 -0.2930
  285loPI   C2B 4558  12.269   1.607   8.871 -0.1673  0.3450 -0.1982
  285loPI   C3B 4559  12.323   1.517   8.529  0.0234 -0.0975  0.1493
  285loPI   C4B 4560  12.225   1.426   8.116 -0.0111 -0.3136 -0.4543
  286loPI    C1 4561   8.574   0.755  10.616 -0.2005  0.2250  0.0766
  286loPI    C2 4562   8.286   0.757  10.895  0.0543  0.1221  0.3456
  286loPI    C3 4563   8.427   1.103  10.750 -0.2598  0.1721  0.1497
  286loPI   PO4 4564   8.474   0.524  10.429 -0.0166  0.0733  0.3174
  286loPI   GL1 4565   8.403   0.395  10.016 -0.0879 -0.0500  0.2966
  286loPI   GL2 4566   8.475   0.174   9.854 -0.2615 -0.2815  0.1703
  286loPI   C1A 4567   8.589   0.637   9.597 -0.1465  0.1955  0.1209
  286loPI   C2A 4568   8.617   0.657   9.172  0.0830  0.0558 -0.0999
  286loPI   C3A 4569   8.600   0.575   8.696  0.2814  0.1390 -0.1425
  286loPI   C4A 4570   8.572   0.617   8.326 -0.1420 -0.3084  0.3505
  286loPI   C5A 4571   8.630   0.480   7.987  0.3919  0.1524 -0.3135
  286loPI   C6A 4572   8.682   0.344   7.537  0.2664  0.1929 -0.0633
  286loPI   C1B 4573   8.372   0.273   9.410  0.0020 -0.2155 -0.0415
  286loPI   C2B 4574   8.459   0.111   9.153 -0.0400  0.1277 -0.0518
  286loPI   C3B 4575   8.336   0.135   8.745  0.0767  0.0926  0.0549
  286loPI   C4B 4576   8.360   0.149   8.288  0.1286 -0.0075 -0.0217
  287loPI    C1 4577  12.517   7.547  10.294 -0.1056 -0.0677  0.0343
  287loPI    C2 4578  12.625   7.883  10.482 -0.0675  0.0905 -0.2635
  287loPI    C3 4579  12.573   7.545  10.690  0.0219  0.2482  0.0208
  287loPI   PO4 4580  12.499   7.642  10.010  0.0749  0.1153  0.0731
  287loPI   GL1 4581  12.511   7.704   9.567 -0.3084  0.2906 -0.0170
  287loPI   GL2 4582  12.521   8.016   9.596  0.2155 -0.2450  0.2375
  287loPI   C1A 4583  12.227   7.756   9.218  0.1878 -0.1810 -0.0705
  287loPI   C2A 4584  12.236   7.594   8.903  0.0674 -0.1673 -0.1479
  287loPI   C3A 4585  12.132   7.516   8.466 -0.1399  0.1218 -0.0502
  287loPI   C4A 4586  12.113   7.643   8.100  0.3236 -0.1850 -0.0900
  287loPI   C5A 4587  12.101   7.519   7.707  0.0082 -0.0999  0.0991
  287loPI   C6A 4588  11.938   7.164   7.653 -0.1932 -0.1804 -0.1512
  287loPI   C1B 4589  12.530   8.123   9.229  0.2479 -0.0845  0.0394
  287loPI   C2B 4590  12.517   8.093   8.824 -0.2095 -0.0387  0.1839
  287loPI   C3B 4591  12.588   7.927   8.356 -0.0610  0.0746  0.1853
  287loPI   C4B 4592  12.549   7.795   7.933 -0.0133  0.0479  0.0768
  288loPI    C1 4593   5.489  12.074  10.738 -0.0449  0.1723  0.0888
  288loPI    C2 4594   5.798  11.820  10.721 -0.0703  0.1489 -0.0370
  288loPI    C3 4595   5.769  12.081  11.024  0.0009  0.0597  0.0472
  288loPI   PO4 4596   5.297  11.910  10.649 -0.1877 -0.1107 -0.1298
  288loPI   GL1 4597   5.211  11.790  10.282 -0.1336 -0.0757 -0.1619
  288loPI   GL2 4598   5.596  11.883  10.192 -0.0078  0.2907 -0.3660
  288loPI   C1A 4599   5.088  11.898   9.773 -0.1704  0.0472  0.2586
  288loPI   C2A 4600   5.002  11.910   9.346 -0.1095  0.0890  0.2980
  288loPI   C3A 4601   4.998  12.113   9.023  0.0341 -0.4175 -0.0969
  288loPI   C4A 4602   5.003  11.968   8.638 -0.0255 -0.0233 -0.1604
  288loPI   C5A 4603   5.306  12.022   8.249 -0.2216  0.2154  0.1256
  288loPI   C6A 4604   5.415  11.778   7.952 -0.0685  0.0929 -0.0785
  288loPI   C1B 4605   5.494  12.196   9.952 -0.0728  0.0087 -0.0862
  288loPI   C2B 4606   5.484  12.052   9.488 -0.0004  0.1441  0.0329
  288loPI   C3B 4607   5.563  12.162   9.009  0.0385 -0.2111  0.0003
  288loPI   C4B 4608   5.375  12.323   8.640 -0.2576  0.1485 -0.1622
  289loPI    C1 4609  12.061  17.643  10.680  0.0612 -0.1226  0.3207
  289loPI    C2 4610  11.741  17.785  10.486  0.2478  0.1758  0.2243
  289loPI    C3 4611  11.768  17.824  10.883  0.2182  0.2557  0.2187
  289loPI   PO4 4612  12.268  17.820  10.475 -0.0766 -0.3141  0.0511
  289loPI   GL1 4613  12.163  17.883  10.141 -0.1991  0.1086 -0.2087
  289loPI   GL2 4614  11.899  17.875   9.990  0.0646 -0.4266  0.0035
  289loPI   C1A 4615  12.383  17.806   9.820 -0.1300  0.1259 -0.0085
  289loPI   C2A 4616  12.361  17.722   9.480 -0.1176  0.0718 -0.0002
  289loPI   C3A 4617  12.580  17.737   9.046 -0.3585 -0.2191  0.0244
  289loPI   C4A 4618  12.673  17.700   8.580 -0.0638 -0.0321 -0.1340
  289loPI   C5A 4619  12.786  17.686   8.077  0.2635  0.0105 -0.1642
  289loPI   C6A 4620  12.950  17.410   7.901 -0.3266 -0.2752 -0.0075
  289loPI   C1B 4621  11.861  17.879   9.454 -0.2822  0.2880 -0.2526
  289loPI   C2B 4622  11.665  17.830   9.093 -0.1913  0.0267  0.0824
  289loPI   C3B 4623  11.647  17.846   8.600  0.1033 -0.1674  0.1061
  289loPI   C4B 4624  11.686  17.730   8.193 -0.1957 -0.0522 -0.0564
  290loPI    C1 4625   8.501   4.873   9.938 -0.2360  0.0747  0.0232
  290loPI    C2 4626   8.490   5.160  10.216 -0.1209 -0.1204  0.2330
  290loPI    C3 4627   8.677   4.815  10.293  0.3183 -0.0029 -0.2524
  290loPI   PO4 4628   8.551   5.112   9.698  0.1197 -0.2811 -0.1024
  290loPI   GL1 4629   8.851   5.138   9.410 -0.0433  0.0949 -0.0550
  290loPI   GL2 4630   8.892   4.803   9.223 -0.0319  0.0623 -0.3838
  290loPI   C1A 4631   8.797   5.231   8.966 -0.1863  0.3027  0.1365
  290loPI   C2A 4632   8.781   5.236   8.498  0.1736 -0.0743 -0.1790
  290loPI   C3A 4633   8.699   5.327   8.127  0.1950 -0.2582  0.1845
  290loPI   C4A 4634   8.381   5.039   7.906 -0.0167 -0.1185 -0.3213
  290loPI   C5A 4635   8.430   4.846   7.501  0.0761 -0.0230  0.1679
  290loPI   C6A 4636   8.563   5.150   7.251 -0.0844 -0.1426 -0.2114
  290loPI   C1B 4637   8.933   4.813   8.725  0.1654  0.2466 -0.0489
  290loPI   C2B 4638   9.074   4.651   8.342 -0.1118  0.0258 -0.0773
  290loPI   C3B 4639   9.199   4.531   7.985  0.0425  0.0865 -0.0424
  290loPI   C4B 4640   9.191   4.261   7.606  0.3116 -0.3055 -0.2252
  291loPI    C1 4641  11.934   3.202  10.502 -0.0572 -0.1684 -0.3692
  291loPI    C2 4642  11.854   3.566  10.645  0.5072 -0.1677 -0.0251
  291loPI    C3 4643  11.826   3.247  10.884  0.5073 -0.2887 -0.1854
  291loPI   PO4 4644  11.859   3.208  10.245  0.2474 -0.2418  0.0646
  291loPI   GL1 4645  11.877   3.207   9.816 -0.0401  0.0708  0.0627
  291loPI   GL2 4646  11.757   3.007   9.778 -0.0590  0.0145  0.0733
  291loPI   C1A 4647  12.211   3.127   9.580 -0.1513  0.0972  0.0955
  291loPI   C2A 4648  12.282   3.050   9.232  0.1801  0.0334  0.2525
  291loPI   C3A 4649  12.345   2.979   8.706 -0.2082 -0.0602 -0.0499
  291loPI   C4A 4650  12.084   2.855   8.275  0.3093  0.0664  0.2397
  291loPI   C5A 4651  11.883   2.845   7.916  0.1718 -0.0897  0.3816
  291loPI   C6A 4652  11.533   2.648   7.613 -0.3958 -0.2910 -0.0554
  291loPI   C1B 4653  11.687   3.093   9.307 -0.3979  0.1814  0.2514
  291loPI   C2B 4654  11.537   2.914   8.893 -0.1032 -0.0209 -0.0478
  291loPI   C3B 4655  11.559   2.864   8.414  0.4661  0.0412 -0.1924
  291loPI   C4B 4656  11.368   2.680   8.080 -0.2814 -0.3229 -0.0897
  292loPI    C1 4657  18.345  12.077  10.899  0.0652  0.0681 -0.1344
  292loPI    C2 4658  18.672  12.279  11.011  0.1725 -0.2101  0.0641
  292loPI    C3 4659  18.541  11.971  11.231 -0.1798 -0.1511 -0.0564
  292loPI   PO4 4660  18.359  12.188  10.637  0.1864  0.4532 -0.4428
  292loPI   GL1 4661  18.447  12.388  10.245 -0.0651 -0.0418  0.2699
  292loPI   GL2 4662  18.561  12.649  10.092 -0.3575 -0.0720  0.1264
  292loPI   C1A 4663  18.339  12.157   9.874 -0.0851  0.0290  0.1856
  292loPI   C2A 4664  18.219  12.371   9.459 -0.3433  0.0058 -0.0871
  292loPI   C3A 4665  18.202  12.498   9.091 -0.1283  0.1493 -0.0853
  292loPI   C4A 4666  18.204  12.690   8.703 -0.0100  0.1469 -0.1721
  292loPI   C5A 4667  18.361  12.940   8.489  0.0794  0.4492  0.1585
  292loPI   C6A 4668  18.029  13.057   8.218 -0.3838  0.3430 -0.2291
  292loPI   C1B 4669  18.638  12.584   9.689  0.2900  0.1089 -0.0479
  292loPI   C2B 4670  18.663  12.507   9.260  0.0694  0.0923 -0.1251
  292loPI   C3B 4671  18.715  12.498   8.857 -0.2022 -0.0259  0.4593
  292loPI   C4B 4672  18.694  12.540   8.363 -0.1783 -0.0846  0.0748
  293loPI    C1 4673  11.606   6.709  10.097 -0.1347 -0.1134 -0.0491
  293loPI    C2 4674  11.230   6.758  10.224 -0.0743 -0.1034  0.1286
  293loPI    C3 4675  11.529   6.739  10.489  0.0661  0.0238 -0.0188
  293loPI   PO4 4676  11.570   6.776   9.792 -0.1011  0.1247 -0.2685
  293loPI   GL1 4677  11.518   7.101   9.538  0.0465 -0.0906 -0.0417
  293loPI   GL2 4678  11.337   7.245   9.725 -0.1027  0.3495 -0.1323
  293loPI   C1A 4679  11.413   7.016   9.167  0.3972  0.1291 -0.0259
  293loPI   C2A 4680  11.396   6.950   8.741 -0.4657  0.1782 -0.2237
  293loPI   C3A 4681  11.471   6.724   8.389  0.1954  0.2637  0.1786
  293loPI   C4A 4682  11.217   6.655   7.966 -0.0858 -0.0686  0.0773
  293loPI   C5A 4683  11.243   6.488   7.598 -0.4662  0.0102 -0.0220
  293loPI   C6A 4684  10.887   6.426   7.388  0.0733  0.2544 -0.3619
  293loPI   C1B 4685  11.213   7.428   9.291  0.1024  0.1917  0.0688
  293loPI   C2B 4686  11.088   7.417   8.991 -0.1209 -0.1506  0.2102
  293loPI   C3B 4687  10.873   7.468   8.625 -0.3261  0.0102 -0.0005
  293loPI   C4B 4688  11.007   7.525   8.291 -0.0899  0.3233  0.1628
  294loPI    C1 4689   8.635   3.438   9.885 -0.0814 -0.0590  0.0886
  294loPI    C2 4690   8.354   3.283  10.124 -0.3630  0.1202 -0.1202
  294loPI    C3 4691   8.268   3.597   9.890  0.0366  0.2309 -0.1262
  294loPI   PO4 4692   8.750   3.203   9.717 -0.1815  0.0579  0.0114
  294loPI   GL1 4693   8.916   2.962   9.447  0.1175 -0.0214  0.0215
  294loPI   GL2 4694   8.598   2.708   9.480 -0.2992  0.0110  0.3070
  294loPI   C1A 4695   8.887   2.894   9.004  0.2415  0.0498 -0.0882
  294loPI   C2A 4696   8.809   2.681   8.568  0.2364 -0.0302 -0.1416
  294loPI   C3A 4697   8.758   2.450   8.239  0.2199  0.1603  0.2561
  294loPI   C4A 4698   8.769   2.282   7.821 -0.0350 -0.1649  0.2073
  294loPI   C5A 4699   8.812   2.498   7.524  0.0174 -0.3402 -0.2229
  294loPI   C6A 4700   8.944   2.877   7.520  0.1063 -0.0466 -0.0316
  294loPI   C1B 4701   8.548   2.614   9.159  0.1757 -0.1617 -0.2621
  294loPI   C2B 4702   8.349   2.484   8.731 -0.2762 -0.2150 -0.0123
  294loPI   C3B 4703   8.248   2.393   8.281 -0.0751  0.1389 -0.1474
  294loPI   C4B 4704   8.329   2.511   7.936  0.0852  0.2946  0.2816
  295loPI    C1 4705  15.616   6.657  10.187 -0.0552  0.2091  0.0402
  295loPI    C2 4706  15.421   6.448  10.467  0.1498 -0.0210  0.0149
  295loPI    C3 4707  15.818   6.491  10.489  0.1459  0.1079 -0.1468
  295loPI   PO4 4708  15.615   6.600   9.949 -0.0283 -0.2178 -0.0982
  295loPI   GL1 4709  15.849   6.630   9.636 -0.2470 -0.1250 -0.2869
  295loPI   GL2 4710  15.472   6.805   9.526  0.3304  0.2560  0.2527
  295loPI   C1A 4711  15.957   6.435   9.237  0.1833  0.2123 -0.2983
  295loPI   C2A 4712  15.944   6.421   8.776  0.0643  0.0922 -0.1996
  295loPI   C3A 4713  15.969   6.309   8.320 -0.0423  0.2189 -0.1090
  295loPI   C4A 4714  16.181   6.376   7.922 -0.2442 -0.0573 -0.0925
  295loPI   C5A 4715  16.408   6.363   7.528  0.4885  0.0036  0.0479
  295loPI   C6A 4716  16.650   6.338   7.128 -0.0661 -0.1457 -0.0556
  295loPI   C1B 4717  15.767   6.950   9.182  0.0200  0.0884 -0.1802
  295loPI   C2B 4718  15.732   6.853   8.790  0.2436 -0.0980 -0.1770
  295loPI   C3B 4719  15.636   6.792   8.394  0.2792  0.1534 -0.0773
  295loPI   C4B 4720  15.692   6.553   7.980  0.0531  0.0201  0.0453
  296loPI    C1 4721   0.027  10.513  10.430 -0.0440  0.0437  0.1039
  296loPI    C2 4722   0.201  10.566  10.786 -0.3451  0.1456  0.2394
  296loPI    C3 4723   0.155  10.197  10.639  0.0060  0.1186  0.1874
  296loPI   PO4 4724   0.026  10.674  10.355 -0.0118  0.0403  0.1371
  296loPI   GL1 4725   0.029  10.790  10.019 -0.1294 -0.0692 -0.1427
  296loPI   GL2 4726   0.230  10.504   9.929 -0.2415  0.1419  0.1501
  296loPI   C1A 4727  -0.046  11.026   9.607 -0.0348 -0.0117  0.3657
  296loPI   C2A 4728   0.085  11.188   9.178  0.0776 -0.2708 -0.0834
  296loPI   C3A 4729   0.137  11.107   8.770  0.0241 -0.2001 -0.0474
  296loPI   C4A 4730   0.217  11.147   8.366  0.2276 -0.0465 -0.2120
  296loPI   C5A 4731   0.366  11.498   8.054  0.0116  0.4516  0.0766
  296loPI   C6A 4732   0.798  11.571   7.870 -0.1082  0.2441  0.2152
  296loPI   C1B 4733   0.192  10.528   9.500  0.0362  0.2772 -0.3149
  296loPI   C2B 4734   0.189  10.691   9.094 -0.1835  0.1390  0.1726
  296loPI   C3B 4735   0.379  10.738   8.655 -0.3391  0.1810 -0.0036
  296loPI   C4B 4736   0.774  10.616   8.602 -0.0925 -0.0292  0.0771
  297loPI    C1 4737   4.534   4.964  10.114 -0.0067 -0.1059 -0.0083
  297loPI    C2 4738   4.661   5.280  10.324 -0.0638 -0.0737 -0.0220
  297loPI    C3 4739   4.733   4.909  10.457  0.0190 -0.0552 -0.0151
  297loPI   PO4 4740   4.514   4.886   9.861  0.0096 -0.0819 -0.1701
  297loPI   GL1 4741   4.420   4.906   9.423 -0.0293  0.0587  0.3773
  297loPI   GL2 4742   4.509   5.245   9.332  0.1990  0.1910 -0.1422
  297loPI   C1A 4743   4.280   4.764   9.054  0.3473 -0.1789  0.0662
  297loPI   C2A 4744   4.271   4.804   8.643  0.1301 -0.1906 -0.2128
  297loPI   C3A 4745   4.189   4.855   8.209 -0.1058  0.1013 -0.0177
  297loPI   C4A 4746   4.043   4.847   7.809  0.0337  0.3327 -0.3741
  297loPI   C5A 4747   3.734   4.666   7.582 -0.0759 -0.0026  0.0083
  297loPI   C6A 4748   3.713   4.210   7.424 -0.2752 -0.0656  0.1765
  297loPI   C1B 4749   4.528   5.168   8.875  0.3832 -0.0996 -0.1927
  297loPI   C2B 4750   4.588   5.123   8.388 -0.1211 -0.0414  0.1484
  297loPI   C3B 4751   4.594   5.001   7.880 -0.3238 -0.0299  0.0096
  297loPI   C4B 4752   4.405   5.224   7.697 -0.2091  0.0804 -0.1127
  298loPI    C1 4753   6.594  14.882  10.859 -0.1219 -0.1000  0.0772
  298loPI    C2 4754   6.668  14.863  11.252  0.0349  0.2174  0.0661
  298loPI    C3 4755   6.682  14.531  11.030 -0.0464  0.0371  0.3258
  298loPI   PO4 4756   6.321  14.981  10.870  0.1638  0.1191 -0.1594
  298loPI   GL1 4757   6.063  14.640  10.638  0.0612 -0.0608 -0.0178
  298loPI   GL2 4758   6.368  14.379  10.586  0.3429 -0.0254 -0.0628
  298loPI   C1A 4759   6.151  14.869  10.159  0.0270 -0.3606  0.2330
  298loPI   C2A 4760   6.136  14.904   9.746 -0.0259  0.1736  0.1363
  298loPI   C3A 4761   6.057  14.954   9.347 -0.1600  0.1495 -0.1754
  298loPI   C4A 4762   6.055  14.794   8.820  0.2082  0.1204 -0.0176
  298loPI   C5A 4763   5.972  14.876   8.485  0.2414 -0.0438  0.1261
  298loPI   C6A 4764   5.703  15.122   8.128 -0.0145 -0.0143 -0.1422
  298loPI   C1B 4765   6.179  14.351  10.185  0.0470 -0.0431 -0.0119
  298loPI   C2B 4766   6.193  14.391   9.681 -0.1491 -0.1883 -0.2567
  298loPI   C3B 4767   6.247  14.528   9.194 -0.2428  0.3133 -0.1414
  298loPI   C4B 4768   6.124  14.320   8.821 -0.1539  0.1646 -0.0841
  299loPI    C1 4769   2.343  14.702  11.366  0.0884  0.1920  0.2214
  299loPI    C2 4770   2.437  14.313  11.361  0.3290  0.2492 -0.2493
  299loPI    C3 4771   2.559  14.545  11.664 -0.0095 -0.0808  0.1513
  299loPI   PO4 4772   2.450  14.783  11.066  0.4214 -0.0660 -0.0737
  299loPI   GL1 4773   2.383  15.059  10.713 -0.0387 -0.0145 -0.2236
  299loPI   GL2 4774   2.128  15.035  10.401 -0.3502 -0.1562  0.2039
  299loPI   C1A 4775   2.731  15.225  10.430  0.0589 -0.3465  0.0517
  299loPI   C2A 4776   2.952  15.332  10.124  0.5482 -0.0804 -0.0497
  299loPI   C3A 4777   2.870  15.311   9.630  0.1058  0.0911  0.2275
  299loPI   C4A 4778   3.014  15.329   9.280 -0.1557 -0.3260 -0.2354
  299loPI   C5A 4779   2.814  15.278   8.881  0.0404  0.3732 -0.1928
  299loPI   C6A 4780   2.785  15.077   8.524 -0.1317 -0.3155 -0.0774
  299loPI   C1B 4781   1.994  15.032   9.883 -0.0661  0.1654 -0.2562
  299loPI   C2B 4782   2.048  14.988   9.375  0.0417  0.2359 -0.1897
  299loPI   C3B 4783   2.027  15.020   8.920 -0.3535 -0.0895  0.0739
  299loPI   C4B 4784   2.265  15.034   8.593 -0.0441  0.2859  0.0716
  300loPI    C1 4785   6.273   9.814  10.519 -0.1549  0.4342  0.1047
  300loPI    C2 4786   6.258   9.539  10.809  0.0636  0.0014 -0.2805
  300loPI    C3 4787   6.003   9.847  10.812 -0.0694 -0.1026  0.2558
  300loPI   PO4 4788   6.190   9.657  10.320 -0.1283  0.0085  0.1003
  300loPI   GL1 4789   5.998   9.656   9.887 -0.1878  0.2158  0.1440
  300loPI   GL2 4790   5.981   9.938   9.772 -0.0618  0.1463 -0.0021
  300loPI   C1A 4791   5.898   9.276   9.593  0.1826 -0.0461 -0.2733
  300loPI   C2A 4792   5.819   9.258   9.187  0.0245 -0.1298  0.3102
  300loPI   C3A 4793   5.814   9.248   8.665 -0.2539 -0.1239 -0.2388
  300loPI   C4A 4794   5.861   9.598   8.263  0.0315 -0.2433 -0.2297
  300loPI   C5A 4795   5.610   9.664   7.835 -0.2741 -0.0611 -0.1108
  300loPI   C6A 4796   5.450  10.096   7.720 -0.1666 -0.0567  0.1145
  300loPI   C1B 4797   5.892  10.178   9.464  0.5205  0.1588  0.2662
  300loPI   C2B 4798   5.910  10.405   8.944 -0.1807 -0.2649 -0.1629
  300loPI   C3B 4799   5.730  10.391   8.661 -0.0919 -0.1809 -0.0075
  300loPI   C4B 4800   5.619  10.610   8.374  0.2920  0.0098  0.1773
  301loPI    C1 4801   7.100  12.681  10.785  0.0877 -0.0018 -0.0166
  301loPI    C2 4802   6.791  12.604  11.027  0.0521 -0.1627 -0.1115
  301loPI    C3 4803   7.146  12.705  11.182  0.0579 -0.3669  0.0124
  301loPI   PO4 4804   7.009  12.439  10.543  0.1491  0.1465  0.2296
  301loPI   GL1 4805   6.912  12.437  10.256 -0.2108 -0.0341  0.0103
  301loPI   GL2 4806   7.246  12.193  10.239  0.0878  0.2768  0.3648
  301loPI   C1A 4807   6.809  12.548   9.920  0.3672 -0.2159 -0.0113
  301loPI   C2A 4808   6.842  12.505   9.537 -0.1036 -0.1698 -0.2050
  301loPI   C3A 4809   6.784  12.592   9.119  0.2002 -0.0575  0.3304
  301loPI   C4A 4810   6.579  12.542   8.700 -0.0321  0.1259  0.1136
  301loPI   C5A 4811   6.403  12.269   8.447 -0.1758 -0.0873 -0.2058
  301loPI   C6A 4812   6.361  11.943   8.138  0.1510  0.2743 -0.1292
  301loPI   C1B 4813   7.300  12.369   9.796 -0.0525 -0.1574 -0.1152
  301loPI   C2B 4814   7.331  12.691   9.575  0.1034 -0.0636  0.0207
  301loPI   C3B 4815   7.201  12.847   9.124  0.1692 -0.1762  0.1654
  301loPI   C4B 4816   7.086  12.782   8.694  0.2852  0.3245  0.2252
  302loPI    C1 4817  15.220  11.803  10.522 -0.2086  0.1696  0.0030
  302loPI    C2 4818  15.406  11.876  10.868 -0.2842  0.5886 -0.0396
  302loPI    C3 4819  15.032  11.734  10.869 -0.0969  0.0767  0.0454
  302loPI   PO4 4820  15.169  11.983  10.364 -0.1227  0.0749  0.1241
  302loPI   GL1 4821  15.266  12.253   9.937  0.0115 -0.1604  0.0486
  302loPI   GL2 4822  15.140  12.579   9.929  0.1686 -0.0425  0.2610
  302loPI   C1A 4823  15.335  12.285   9.480  0.3870  0.0230  0.0083
  302loPI   C2A 4824  15.225  12.083   9.168 -0.1881 -0.0764 -0.1579
  302loPI   C3A 4825  15.172  12.134   8.674 -0.2014 -0.0070 -0.4748
  302loPI   C4A 4826  14.887  11.810   8.376 -0.2278 -0.1827 -0.2140
  302loPI   C5A 4827  14.725  11.746   7.973 -0.1703 -0.0052  0.0083
  302loPI   C6A 4828  14.682  11.808   7.469 -0.1555  0.3082 -0.1293
  302loPI   C1B 4829  15.145  12.766   9.520  0.0785 -0.0757  0.1662
  302loPI   C2B 4830  15.308  12.742   9.168  0.1261  0.0568  0.0626
  302loPI   C3B 4831  15.464  12.549   8.867  0.0076 -0.2031  0.0384
  302loPI   C4B 4832  15.474  12.500   8.433 -0.2764 -0.1251 -0.1305
  303loPI    C1 4833  13.299  16.122  10.171 -0.1427  0.1403 -0.1046
  303loPI    C2 4834  13.451  15.760  10.250  0.0276  0.2194 -0.0657
  303loPI    C3 4835  13.495  16.057  10.514 -0.1865  0.2467 -0.0594
  303loPI   PO4 4836  13.426  16.166   9.909  0.0401  0.2063 -0.0126
  303loPI   GL1 4837  13.474  16.238   9.502  0.2313 -0.0468  0.1924
  303loPI   GL2 4838  13.751  16.337   9.437  0.2123  0.1467 -0.1038
  303loPI   C1A 4839  13.035  16.384   9.314 -0.1588  0.1756 -0.1554
  303loPI   C2A 4840  12.828  16.371   8.952 -0.1423 -0.1530 -0.2014
  303loPI   C3A 4841  12.935  16.479   8.491  0.0020  0.2942  0.0864
  303loPI   C4A 4842  13.063  16.372   8.021  0.1347  0.2008 -0.1071
  303loPI   C5A 4843  13.000  16.583   7.648 -0.3648  0.2514  0.0026
  303loPI   C6A 4844  13.257  16.633   7.342 -0.0473  0.0973  0.3679
  303loPI   C1B 4845  13.841  16.413   9.017 -0.0836 -0.0017 -0.0336
  303loPI   C2B 4846  13.960  16.525   8.630 -0.1466 -0.1601 -0.1039
  303loPI   C3B 4847  14.248  16.481   8.346 -0.1116  0.3741  0.1940
  303loPI   C4B 4848  14.573  16.469   8.137  0.1296  0.0021  0.1326
  304loPI    C1 4849   4.105  11.182  10.979 -0.0901 -0.0421 -0.1614
  304loPI    C2 4850   4.265  11.466  11.211  0.1069 -0.2484 -0.0412
  304loPI    C3 4851   4.464  11.125  11.145 -0.1091 -0.3430 -0.2180
  304loPI   PO4 4852   4.113  11.246  10.763  0.0905  0.3916 -0.2558
  304loPI   GL1 4853   4.164  11.529  10.384 -0.2762  0.0278 -0.0105
  304loPI   GL2 4854   4.032  11.226  10.288  0.3889  0.0451 -0.0787
  304loPI   C1A 4855   4.208  11.636   9.918  0.2758  0.0638 -0.1847
  304loPI   C2A 4856   4.242  11.894   9.570  0.2675 -0.2549 -0.1037
  304loPI   C3A 4857   4.480  12.034   9.189 -0.0736  0.0830 -0.0920
  304loPI   C4A 4858   4.512  12.084   8.809 -0.0859 -0.2304 -0.2468
  304loPI   C5A 4859   4.535  11.973   8.423  0.1267 -0.2744  0.3004
  304loPI   C6A 4860   4.189  12.110   8.266 -0.3315  0.1712  0.1149
  304loPI   C1B 4861   3.731  11.409   9.936  0.0261 -0.0855  0.1035
  304loPI   C2B 4862   3.468  11.538   9.629  0.1014  0.0104 -0.2750
  304loPI   C3B 4863   3.452  11.590   9.300 -0.0864  0.6966 -0.0305
  304loPI   C4B 4864   3.372  11.613   8.852  0.1429 -0.2954 -0.2722
  305loPI    C1 4865  16.482   5.055  10.350  0.1446 -0.1194  0.1100
  305loPI    C2 4866  16.133   4.867  10.292  0.1334 -0.0673  0.0074
  305loPI    C3 4867  16.256   4.951  10.663 -0.0440  0.0647  0.0371
  305loPI   PO4 4868  16.438   5.325  10.185 -0.1107 -0.2583  0.1114
  305loPI   GL1 4869  16.626   5.586   9.997 -0.0584 -0.0748  0.4179
  305loPI   GL2 4870  16.345   5.502   9.700 -0.0437  0.0006  0.1225
  305loPI   C1A 4871  16.827   5.393   9.553  0.1473 -0.1517 -0.0592
  305loPI   C2A 4872  16.899   5.409   9.088 -0.0892 -0.2102  0.0870
  305loPI   C3A 4873  16.942   5.353   8.686 -0.0083 -0.4251 -0.0606
  305loPI   C4A 4874  17.097   5.206   8.268 -0.1359  0.2583  0.1024
  305loPI   C5A 4875  17.026   5.133   7.776  0.2171 -0.2568  0.1181
  305loPI   C6A 4876  17.017   4.580   7.677  0.2738  0.0310  0.0047
  305loPI   C1B 4877  16.427   5.444   9.222 -0.1258 -0.3944  0.3034
  305loPI   C2B 4878  16.440   5.393   8.769  0.3415  0.2943  0.2841
  305loPI   C3B 4879  16.471   5.428   8.394  0.2785 -0.3147 -0.2505
  305loPI   C4B 4880  16.519   5.298   7.955 -0.1393  0.0557  0.1710
  306loPI    C1 4881  15.063  14.602  10.285  0.1976  0.0955  0.1890
  306loPI    C2 4882  15.429  14.700  10.413  0.1089  0.2974  0.2943
  306loPI    C3 4883  15.217  14.422  10.607  0.3534 -0.1008  0.0074
  306loPI   PO4 4884  14.846  14.840  10.311 -0.2571 -0.1920  0.2285
  306loPI   GL1 4885  14.557  15.058  10.053  0.4027 -0.2761 -0.3472
  306loPI   GL2 4886  14.717  15.283  10.023 -0.0811 -0.1327  0.1678
  306loPI   C1A 4887  14.560  15.139   9.607  0.0895 -0.2121  0.0968
  306loPI   C2A 4888  14.523  15.049   9.153  0.1546 -0.2781  0.0123
  306loPI   C3A 4889  14.601  15.233   8.730 -0.1444 -0.1244 -0.2098
  306loPI   C4A 4890  14.842  15.152   8.372  0.2907 -0.2761 -0.0883
  306loPI   C5A 4891  14.873  15.195   7.910  0.0231  0.0295 -0.4111
  306loPI   C6A 4892  14.820  14.870   7.645  0.0288 -0.1579  0.2822
  306loPI   C1B 4893  15.034  15.311   9.652 -0.0575  0.0907 -0.1335
  306loPI   C2B 4894  15.141  15.142   9.181 -0.1002 -0.1929  0.1156
  306loPI   C3B 4895  14.938  14.836   8.806  0.1953  0.2453  0.5048
  306loPI   C4B 4896  14.432  14.786   8.716 -0.1054  0.0138 -0.1986
  307loPI    C1 4897  13.751  10.712  10.099  0.2117  0.0386 -0.0672
  307loPI    C2 4898  13.560  10.974  10.334 -0.1353 -0.2057 -0.0683
  307loPI    C3 4899  13.928  10.850  10.430 -0.1756 -0.1153  0.2127
  307loPI   PO4 4900  13.630  10.785   9.837 -0.4424  0.3127  0.0973
  307loPI   GL1 4901  13.561  10.653   9.565 -0.2446 -0.1959 -0.2301
  307loPI   GL2 4902  13.301  10.933   9.522 -0.1990 -0.0158  0.1145
  307loPI   C1A 4903  13.574  10.714   9.107 -0.2711 -0.3371 -0.1471
  307loPI   C2A 4904  13.459  10.634   8.656  0.3089 -0.2647  0.2845
  307loPI   C3A 4905  13.121  10.750   8.421  0.1999 -0.0823  0.0381
  307loPI   C4A 4906  12.839  10.622   8.262  0.1778  0.4431  0.1664
  307loPI   C5A 4907  12.448  10.609   8.129  0.1042  0.0823 -0.5267
  307loPI   C6A 4908  12.207  10.631   7.768  0.1552 -0.1528 -0.0120
  307loPI   C1B 4909  13.410  11.164   9.157 -0.1742  0.0828  0.2107
  307loPI   C2B 4910  13.314  11.327   8.707 -0.0805 -0.0756  0.1914
  307loPI   C3B 4911  13.149  11.415   8.273  0.4949  0.0758  0.0763
  307loPI   C4B 4912  13.212  11.648   7.964  0.2791 -0.1089 -0.1224
  308loPI    C1 4913   9.182   3.238  10.166  0.1727 -0.2572 -0.2005
  308loPI    C2 4914   8.829   3.349  10.317  0.3035 -0.0176 -0.0637
  308loPI    C3 4915   8.928   2.962  10.304  0.0628 -0.0815 -0.0455
  308loPI   PO4 4916   9.223   3.355   9.966  0.2773 -0.0383 -0.1531
  308loPI   GL1 4917   9.296   3.383   9.455 -0.0867 -0.1045  0.1132
  308loPI   GL2 4918   9.578   3.451   9.350  0.1830 -0.1325 -0.1519
  308loPI   C1A 4919   9.142   3.381   9.088  0.0751  0.3758  0.1223
  308loPI   C2A 4920   9.203   3.257   8.578 -0.0299 -0.2394  0.3237
  308loPI   C3A 4921   9.390   3.218   8.143 -0.0666  0.0698  0.0593
  308loPI   C4A 4922   9.237   3.275   7.677  0.0355 -0.3218  0.2178
  308loPI   C5A 4923   9.050   3.611   7.306 -0.0448  0.1613  0.0371
  308loPI   C6A 4924   9.110   3.762   6.940  0.0394  0.4765  0.2368
  308loPI   C1B 4925   9.608   3.331   8.850 -0.0529  0.0252  0.1106
  308loPI   C2B 4926   9.676   3.184   8.528 -0.1616  0.0938  0.0849
  308loPI   C3B 4927   9.741   2.877   8.257 -0.1916 -0.0786  0.2558
  308loPI   C4B 4928   9.701   2.524   8.045 -0.2009  0.1061 -0.2313
  309loPI    C1 4929  11.459  16.236  10.690  0.1553  0.1161 -0.2452
  309loPI    C2 4930  11.832  16.231  10.834  0.0448 -0.3775  0.0467
  309loPI    C3 4931  11.535  16.390  11.051 -0.0003 -0.4566  0.0429
  309loPI   PO4 4932  11.489  16.403  10.504 -0.0156  0.1951 -0.2005
  309loPI   GL1 4933  11.496  16.601  10.112  0.1935 -0.0276  0.2992
  309loPI   GL2 4934  11.161  16.538  10.124 -0.2136 -0.1468 -0.0549
  309loPI   C1A 4935  11.737  16.469   9.789 -0.1580  0.0439  0.2123
  309loPI   C2A 4936  11.666  16.287   9.384 -0.1829 -0.2066  0.0834
  309loPI   C3A 4937  11.660  16.127   9.076  0.1551 -0.1040 -0.1407
  309loPI   C4A 4938  11.667  15.985   8.695  0.1500 -0.1726  0.1933
  309loPI   C5A 4939  11.482  15.888   8.320 -0.1071  0.3423 -0.0665
  309loPI   C6A 4940  11.538  15.558   7.981  0.4104 -0.0120  0.0342
  309loPI   C1B 4941  11.299  16.625   9.663 -0.1813 -0.3467 -0.0239
  309loPI   C2B 4942  11.275  16.570   9.244  0.3005  0.0352 -0.1507
  309loPI   C3B 4943  11.290  16.491   8.804 -0.0894  0.1313 -0.0749
  309loPI   C4B 4944  11.225  16.403   8.374  0.0799 -0.3066 -0.1006
  310loPI    C1 4945  14.988   2.649  10.658 -0.2052 -0.0956  0.0214
  310loPI    C2 4946  15.241   2.698  10.963 -0.0269 -0.1390 -0.1178
  310loPI    C3 4947  14.916   2.929  10.934 -0.0411 -0.1293  0.0992
  310loPI   PO4 4948  15.198   2.598  10.415  0.1820 -0.0461 -0.0245
  310loPI   GL1 4949  15.268   2.399  10.034  0.2971 -0.0356  0.2161
  310loPI   GL2 4950  15.586   2.362  10.029 -0.0173 -0.1300 -0.1435
  310loPI   C1A 4951  15.022   2.437   9.641  0.2339  0.2089  0.4041
  310loPI   C2A 4952  15.053   2.311   9.223 -0.0828 -0.1078  0.4784
  310loPI   C3A 4953  15.164   2.425   8.850  0.1233  0.0401  0.2157
  310loPI   C4A 4954  15.120   2.376   8.522  0.1994 -0.0569  0.2082
  310loPI   C5A 4955  15.075   2.200   8.195 -0.3307 -0.2338  0.1924
  310loPI   C6A 4956  15.212   2.022   7.819 -0.3568 -0.0524 -0.1493
  310loPI   C1B 4957  15.580   2.267   9.645 -0.1825  0.0048  0.0406
  310loPI   C2B 4958  15.614   2.409   9.261  0.1864  0.3151  0.2401
  310loPI   C3B 4959  15.705   2.349   8.899 -0.1540 -0.1979 -0.1930
  310loPI   C4B 4960  15.627   2.268   8.412 -0.0824 -0.1041 -0.0221
  311loPI    C1 4961  10.353  17.056  10.851 -0.0981 -0.2076  0.1170
  311loPI    C2 4962  10.566  17.012  11.186 -0.1383  0.0146  0.1729
  311loPI    C3 4963  10.265  17.275  11.174 -0.1911 -0.0532 -0.0117
  311loPI   PO4 4964  10.354  16.844  10.600  0.1827  0.0981  0.1139
  311loPI   GL1 4965  10.379  16.635  10.265 -0.0972  0.0939 -0.1337
  311loPI   GL2 4966  10.175  16.367  10.240  0.2682  0.1656  0.0664
  311loPI   C1A 4967  10.220  16.825   9.906  0.1189  0.0344  0.1468
  311loPI   C2A 4968  10.132  16.839   9.420 -0.0216 -0.0341  0.0381
  311loPI   C3A 4969  10.029  16.950   9.110  0.2407  0.1511 -0.0644
  311loPI   C4A 4970  10.062  17.125   8.759 -0.2797  0.1251  0.2388
  311loPI   C5A 4971   9.997  17.051   8.205  0.2064 -0.2082  0.0473
  311loPI   C6A 4972  10.205  16.837   7.863 -0.2216  0.1201 -0.4268
  311loPI   C1B 4973   9.892  16.107   9.971 -0.1682  0.3462  0.2142
  311loPI   C2B 4974   9.810  16.079   9.548  0.4946  0.3988  0.0773
  311loPI   C3B 4975   9.809  16.088   9.082 -0.0407 -0.2282  0.0062
  311loPI   C4B 4976   9.900  16.135   8.692  0.0716 -0.1758 -0.1145
  312loPI    C1 4977  10.935   4.044  10.110 -0.0966  0.0383  0.1072
  312loPI    C2 4978  10.636   3.789  10.186 -0.0289 -0.0841 -0.0332
  312loPI    C3 4979  11.008   3.701  10.303 -0.0360  0.0370  0.0821
  312loPI   PO4 4980  10.942   4.080   9.884  0.2951 -0.3213  0.1371
  312loPI   GL1 4981  10.782   4.238   9.535  0.1075  0.1387  0.0779
  312loPI   GL2 4982  10.477   4.095   9.425  0.2315  0.0038 -0.1779
  312loPI   C1A 4983  10.800   4.391   9.058 -0.0927 -0.0454  0.1871
  312loPI   C2A 4984  10.840   4.417   8.695 -0.2962 -0.1507  0.2905
  312loPI   C3A 4985  10.986   4.411   8.328  0.1618 -0.1331  0.0297
  312loPI   C4A 4986  10.976   4.377   7.859  0.0941 -0.0880  0.0923
  312loPI   C5A 4987  11.145   4.034   7.536  0.0717  0.3644 -0.1139
  312loPI   C6A 4988  11.001   3.641   7.616 -0.2111 -0.1513  0.2627
  312loPI   C1B 4989  10.454   3.966   9.070  0.0977 -0.0871 -0.2302
  312loPI   C2B 4990  10.487   3.954   8.651  0.0476  0.0757 -0.0700
  312loPI   C3B 4991  10.710   4.038   8.366 -0.0614 -0.1109 -0.1203
  312loPI   C4B 4992  10.923   3.902   8.057  0.2859  0.1358 -0.1141
  313loPI    C1 4993   5.793   5.796   9.979  0.3071  0.0715  0.0424
  313loPI    C2 4994   5.818   5.415  10.099 -0.0819  0.0513  0.0715
  313loPI    C3 4995   5.886   5.712  10.359 -0.1843  0.0034  0.1531
  313loPI   PO4 4996   5.590   5.698   9.788 -0.0286 -0.1501 -0.1519
  313loPI   GL1 4997   5.541   5.772   9.386 -0.0404 -0.0299 -0.2828
  313loPI   GL2 4998   5.505   5.378   9.398 -0.5839  0.2726 -0.3065
  313loPI   C1A 4999   5.522   5.697   8.876  0.5356 -0.1898  0.1116
  313loPI   C2A 5000   5.609   5.749   8.380  0.3080  0.1692 -0.0525
  313loPI   C3A 5001   5.634   5.749   7.906 -0.0831  0.1738 -0.0815
  313loPI   C4A 5002   5.351   5.559   7.639 -0.1134  0.1469 -0.1746
  313loPI   C5A 5003   5.296   5.525   7.253  0.0370  0.0836 -0.0977
  313loPI   C6A 5004   5.336   5.230   6.859 -0.1665  0.1442  0.4720
  313loPI   C1B 5005   5.667   5.133   9.002 -0.2566  0.0612  0.0258
  313loPI   C2B 5006   5.688   5.202   8.546 -0.2974  0.0774  0.0811
  313loPI   C3B 5007   5.924   5.352   8.197 -0.1193 -0.2910 -0.2638
  313loPI   C4B 5008   5.859   5.349   7.761  0.1777  0.2232  0.0572
  314loPI    C1 5009  13.503   1.175  10.641 -0.0478 -0.0390 -0.0597
  314loPI    C2 5010  13.131   1.075  10.751 -0.0106  0.0251  0.1281
  314loPI    C3 5011  13.436   0.829  10.831 -0.0502 -0.1716 -0.2983
  314loPI   PO4 5012  13.500   1.338  10.392  0.5909  0.2911  0.0277
  314loPI   GL1 5013  13.715   1.235   9.960 -0.0194 -0.0905  0.2285
  314loPI   GL2 5014  13.471   1.070   9.867  0.0583  0.3312  0.2467
  314loPI   C1A 5015  13.857   1.046   9.510  0.1346 -0.2953  0.4759
  314loPI   C2A 5016  14.210   1.109   9.097  0.4000 -0.0581  0.2605
  314loPI   C3A 5017  14.232   1.016   8.635  0.0810  0.1065  0.4689
  314loPI   C4A 5018  14.232   1.051   8.149 -0.2526 -0.0888 -0.1843
  314loPI   C5A 5019  14.029   0.740   7.865  0.1225  0.1215 -0.1600
  314loPI   C6A 5020  13.774   0.568   7.356 -0.0599  0.1499  0.0999
  314loPI   C1B 5021  13.394   1.088   9.378  0.1572 -0.0034 -0.0564
  314loPI   C2B 5022  13.675   1.068   8.948  0.0267 -0.2645  0.1714
  314loPI   C3B 5023  13.591   0.954   8.546 -0.0891 -0.2265 -0.1824
  314loPI   C4B 5024  13.496   0.697   8.254  0.2280 -0.1986  0.3478
  315loPI    C1 5025  15.692   2.853  10.754 -0.1369  0.0213  0.1291
  315loPI    C2 5026  15.653   2.952  11.140  0.1568 -0.0134  0.1700
  315loPI    C3 5027  16.017   2.902  10.982  0.0449  0.1688 -0.1559
  315loPI   PO4 5028  15.487   3.015  10.576 -0.1011 -0.3420  0.0271
  315loPI   GL1 5029  15.430   2.912  10.105 -0.2278 -0.0583 -0.1844
  315loPI   GL2 5030  15.068   3.065   9.946  0.1006  0.1595  0.1412
  315loPI   C1A 5031  15.443   2.779   9.667 -0.3080 -0.1678  0.1095
  315loPI   C2A 5032  15.351   2.783   9.236 -0.0181  0.3472 -0.0311
  315loPI   C3A 5033  15.461   2.811   8.813  0.0022  0.2481  0.1194
  315loPI   C4A 5034  15.590   2.760   8.468  0.2251  0.0304  0.2968
  315loPI   C5A 5035  15.336   2.681   8.157  0.1033 -0.2217  0.0383
  315loPI   C6A 5036  15.111   2.507   7.822  0.1767 -0.2145  0.0870
  315loPI   C1B 5037  15.325   3.261   9.581  0.1548 -0.0306 -0.4101
  315loPI   C2B 5038  15.291   3.286   9.146 -0.1906 -0.0485  0.0132
  315loPI   C3B 5039  15.264   3.239   8.750 -0.1365 -0.0084  0.1915
  315loPI   C4B 5040  15.183   3.282   8.379  0.1236 -0.2665  0.0854
  316loPI    C1 5041   1.072  17.417  10.966 -0.0258  0.0673  0.1377
  316loPI    C2 5042   1.094  17.447  11.364 -0.1106  0.2016  0.1331
  316loPI    C3 5043   0.781  17.264  11.195 -0.0424  0.0867  0.1296
  316loPI   PO4 5044   0.931  17.644  10.783  0.3468 -0.1592 -0.2576
  316loPI   GL1 5045   0.987  17.813  10.490 -0.1457  0.2680  0.1101
  316loPI   GL2 5046   0.608  17.645  10.416 -0.0582  0.0268  0.1976
  316loPI   C1A 5047   1.253  17.797  10.246 -0.0801  0.3016 -0.2494
  316loPI   C2A 5048   1.308  17.815   9.873  0.0360 -0.1684  0.2625
  316loPI   C3A 5049   1.364  17.964   9.413 -0.1066  0.1518 -0.1198
  316loPI   C4A 5050   1.349  17.861   8.962  0.0262  0.2793 -0.2232
  316loPI   C5A 5051   1.530  17.898   8.550 -0.0602  0.1659  0.1362
  316loPI   C6A 5052   1.925  17.877   8.383 -0.0268  0.0076 -0.5552
  316loPI   C1B 5053   0.756  17.833  10.008  0.1727  0.1283 -0.1464
  316loPI   C2B 5054   0.817  17.947   9.574 -0.2315 -0.4555 -0.2463
  316loPI   C3B 5055   0.772  17.872   9.135  0.1760 -0.0537  0.0918
  316loPI   C4B 5056   0.867  17.736   8.650 -0.1020  0.3286 -0.0882
  317loPI    C1 5057  12.841   3.931  10.436  0.1012 -0.0849  0.1050
  317loPI    C2 5058  12.719   3.750  10.771 -0.0049  0.0872  0.1607
  317loPI    C3 5059  13.066   3.949  10.766  0.1490 -0.1776  0.0779
  317loPI   PO4 5060  12.840   3.736  10.244 -0.2865  0.0715  0.0363
  317loPI   GL1 5061  12.991   3.644   9.842  0.2628 -0.1356 -0.2447
  317loPI   GL2 5062  13.193   3.920   9.635  0.0599 -0.4039 -0.4075
  317loPI   C1A 5063  13.025   3.472   9.471 -0.0867  0.0149  0.3250
  317loPI   C2A 5064  13.093   3.312   9.130  0.0504  0.1077 -0.0476
  317loPI   C3A 5065  13.048   3.206   8.767  0.1082  0.0205  0.1700
  317loPI   C4A 5066  13.127   3.306   8.426  0.0806 -0.1043  0.3189
  317loPI   C5A 5067  13.003   3.143   8.003 -0.1075 -0.0774  0.0394
  317loPI   C6A 5068  12.801   2.953   7.520 -0.1514 -0.4787 -0.1428
  317loPI   C1B 5069  13.198   3.797   9.159 -0.3247 -0.4865 -0.1294
  317loPI   C2B 5070  13.101   3.728   8.785 -0.1326 -0.2938 -0.1044
  317loPI   C3B 5071  12.919   3.803   8.374  0.0651  0.3012  0.0956
  317loPI   C4B 5072  13.136   3.611   7.961  0.0555 -0.1242 -0.0913
  318loPI    C1 5073  10.948  14.016  10.848 -0.0568 -0.0604  0.0372
  318loPI    C2 5074  10.685  13.986  11.147 -0.1142  0.0319 -0.0033
  318loPI    C3 5075  10.970  14.266  11.160 -0.2294  0.1558 -0.1200
  318loPI   PO4 5076  10.809  14.011  10.634 -0.0009  0.0848 -0.4272
  318loPI   GL1 5077  10.499  14.208  10.417 -0.1705 -0.1418  0.3560
  318loPI   GL2 5078  10.780  14.446  10.228  0.3398 -0.1023 -0.2938
  318loPI   C1A 5079  10.496  14.129   9.976 -0.0207 -0.1833 -0.1026
  318loPI   C2A 5080  10.435  14.246   9.516  0.0490 -0.1846 -0.1490
  318loPI   C3A 5081  10.220  14.207   9.142  0.1139 -0.2727  0.2087
  318loPI   C4A 5082  10.278  14.306   8.679 -0.1110 -0.0467  0.0077
  318loPI   C5A 5083  10.288  14.371   8.249  0.3189 -0.3477 -0.0903
  318loPI   C6A 5084  10.234  14.180   7.800 -0.1194 -0.1253 -0.1873
  318loPI   C1B 5085  10.833  14.549   9.728 -0.1661  0.0137 -0.1203
  318loPI   C2B 5086  10.658  14.625   9.273 -0.1464 -0.0763 -0.0933
  318loPI   C3B 5087  10.500  14.687   8.900  0.1299 -0.2406 -0.0172
  318loPI   C4B 5088  10.550  14.873   8.519 -0.0668  0.1509  0.2270
  319loPI    C1 5089   4.158   7.680  10.316  0.1728 -0.0235 -0.0968
  319loPI    C2 5090   4.034   7.391  10.564 -0.0897  0.0685 -0.1182
  319loPI    C3 5091   4.382   7.576  10.631  0.0155 -0.1591 -0.0281
  319loPI   PO4 5092   4.064   7.496  10.056  0.0684 -0.2648  0.3467
  319loPI   GL1 5093   3.821   7.602   9.758  0.2695  0.0991 -0.1147
  319loPI   GL2 5094   3.708   7.852   9.835 -0.0411  0.0804  0.2796
  319loPI   C1A 5095   4.022   7.503   9.436  0.0662  0.0429  0.0789
  319loPI   C2A 5096   4.127   7.476   9.061  0.1937 -0.0307 -0.2490
  319loPI   C3A 5097   4.035   7.535   8.550 -0.1103  0.2661 -0.0528
  319loPI   C4A 5098   4.204   7.718   8.154 -0.0862 -0.1141  0.1316
  319loPI   C5A 5099   4.298   7.617   7.686  0.3385  0.3638 -0.0284
  319loPI   C6A 5100   4.081   7.406   7.391  0.1380 -0.1674  0.1114
  319loPI   C1B 5101   3.578   7.736   9.381  0.0209  0.1701  0.0481
  319loPI   C2B 5102   3.718   7.688   9.000 -0.1765 -0.0391  0.1204
  319loPI   C3B 5103   3.707   7.903   8.598  0.0937  0.0527 -0.1413
  319loPI   C4B 5104   3.684   7.655   8.225  0.0588 -0.1177  0.0682
  320loPI    C1 5105   4.923  12.503  11.109 -0.1479  0.0572  0.1320
  320loPI    C2 5106   5.197  12.769  11.228  0.2190 -0.1649 -0.1914
  320loPI    C3 5107   5.103  12.460  11.464  0.1186  0.0036 -0.0074
  320loPI   PO4 5108   4.976  12.438  10.919 -0.0333 -0.1284  0.1891
  320loPI   GL1 5109   5.136  12.385  10.534 -0.1252 -0.0576 -0.0715
  320loPI   GL2 5110   5.416  12.438  10.393  0.2161  0.0198 -0.0812
  320loPI   C1A 5111   5.024  12.283  10.156  0.4387 -0.3772 -0.0813
  320loPI   C2A 5112   5.070  12.454   9.738 -0.0875  0.1905 -0.0915
  320loPI   C3A 5113   5.223  12.509   9.337  0.2600 -0.1244 -0.0235
  320loPI   C4A 5114   5.134  12.568   8.993  0.2514 -0.0006  0.1138
  320loPI   C5A 5115   5.148  12.744   8.662  0.2635  0.2305  0.1246
  320loPI   C6A 5116   4.983  12.903   8.400  0.2721  0.2518  0.1270
  320loPI   C1B 5117   5.213  12.731  10.221  0.2899 -0.1795  0.1223
  320loPI   C2B 5118   5.038  12.964   9.933 -0.0635 -0.0463 -0.0021
  320loPI   C3B 5119   5.054  13.011   9.455 -0.1178  0.1836 -0.0814
  320loPI   C4B 5120   5.071  13.079   9.068 -0.0892 -0.0681  0.1734
  321loPI    C1 5121  13.590   9.121  10.460  0.2147  0.2102  0.1042
  321loPI    C2 5122  13.551   8.817  10.717  0.1422  0.0274 -0.1194
  321loPI    C3 5123  13.751   9.146  10.825 -0.0028  0.0083  0.2168
  321loPI   PO4 5124  13.760   8.958  10.287  0.2858  0.2017 -0.0926
  321loPI   GL1 5125  14.006   9.160   9.962 -0.1456  0.0657 -0.2750
  321loPI   GL2 5126  14.378   9.235   9.826 -0.2774 -0.0424 -0.4976
  321loPI   C1A 5127  14.047   8.886   9.575 -0.0781 -0.0556 -0.1213
  321loPI   C2A 5128  13.950   8.993   9.115  0.0321  0.0536  0.0530
  321loPI   C3A 5129  14.145   8.970   8.612  0.1687  0.1259  0.1563
  321loPI   C4A 5130  14.234   8.883   8.124  0.1960 -0.1492 -0.1204
  321loPI   C5A 5131  14.498   8.660   7.819 -0.0133  0.0596  0.0244
  321loPI   C6A 5132  14.521   8.235   7.895  0.1432  0.0613  0.0784
  321loPI   C1B 5133  14.381   9.298   9.372  0.3149 -0.1593 -0.0825
  321loPI   C2B 5134  14.251   9.371   8.962  0.1073 -0.0619 -0.1041
  321loPI   C3B 5135  14.327   9.546   8.658 -0.0938  0.1877  0.1445
  321loPI   C4B 5136  14.401   9.415   8.181 -0.1379  0.0501 -0.2374
  322loPI    C1 5137   7.745  12.766  11.090  0.1348 -0.1349 -0.3287
  322loPI    C2 5138   7.622  12.562  11.411 -0.1369  0.1211 -0.2660
  322loPI    C3 5139   8.007  12.664  11.374 -0.1000  0.0735 -0.0306
  322loPI   PO4 5140   7.572  12.860  10.958  0.1384  0.0234  0.0410
  322loPI   GL1 5141   7.543  12.950  10.566 -0.1735  0.1274  0.2865
  322loPI   GL2 5142   7.511  12.586  10.430  0.2522 -0.1164 -0.0219
  322loPI   C1A 5143   7.234  13.321  10.302 -0.2349 -0.0141 -0.2408
  322loPI   C2A 5144   7.188  13.694   9.968  0.3743  0.1288  0.2933
  322loPI   C3A 5145   7.041  13.875   9.585 -0.3420 -0.0659 -0.0485
  322loPI   C4A 5146   6.851  13.814   9.197  0.0315 -0.0650 -0.0313
  322loPI   C5A 5147   6.926  13.798   8.803  0.2406 -0.0527  0.1161
  322loPI   C6A 5148   6.741  13.576   8.389  0.3154 -0.0361 -0.1212
  322loPI   C1B 5149   7.696  12.480  10.065 -0.0683 -0.1567  0.1738
  322loPI   C2B 5150   7.827  12.687   9.737 -0.2254  0.2452 -0.1740
  322loPI   C3B 5151   7.880  12.794   9.421 -0.1590  0.4158  0.2555
  322loPI   C4B 5152   7.812  12.937   9.010 -0.1637 -0.1236  0.2275
  323loPI    C1 5153   7.888   3.382  10.174  0.0026  0.3396 -0.0760
  323loPI    C2 5154   7.688   3.166  10.445  0.0397 -0.0555 -0.3543
  323loPI    C3 5155   8.042   3.326  10.539 -0.1889  0.2639 -0.0054
  323loPI   PO4 5156   7.906   3.296  10.011  0.1782  0.1710 -0.0600
  323loPI   GL1 5157   7.717   3.302   9.541  0.1213 -0.2273 -0.0485
  323loPI   GL2 5158   7.884   3.597   9.457 -0.1284  0.0187  0.0693
  323loPI   C1A 5159   7.755   3.249   9.174  0.2428  0.0763  0.0991
  323loPI   C2A 5160   7.642   3.166   8.856  0.4795 -0.3810  0.1246
  323loPI   C3A 5161   7.745   3.022   8.498  0.0885  0.0189 -0.1084
  323loPI   C4A 5162   7.528   3.104   8.108  0.0048  0.2014 -0.0523
  323loPI   C5A 5163   7.428   3.151   7.634 -0.0373  0.0071  0.0209
  323loPI   C6A 5164   7.271   3.517   7.426  0.1101  0.0763 -0.1640
  323loPI   C1B 5165   7.997   3.636   9.008 -0.1322  0.1441  0.4984
  323loPI   C2B 5166   7.987   3.428   8.547 -0.2148  0.2088  0.0089
  323loPI   C3B 5167   7.876   3.489   8.212  0.0555  0.1286 -0.1563
  323loPI   C4B 5168   7.774   3.572   7.720 -0.0931  0.1096  0.2181
  324loPI    C1 5169  12.784   7.212  10.061 -0.0865 -0.1201  0.1102
  324loPI    C2 5170  13.150   7.169  10.217  0.1137  0.0933 -0.2858
  324loPI    C3 5171  12.827   7.140  10.452  0.3912  0.1159  0.1074
  324loPI   PO4 5172  12.874   7.307   9.800  0.4765 -0.5347  0.0149
  324loPI   GL1 5173  12.857   7.316   9.421 -0.0530  0.1768 -0.2926
  324loPI   GL2 5174  12.976   7.177   9.242  0.0117 -0.2338  0.1076
  324loPI   C1A 5175  12.662   7.603   9.105  0.0218  0.1019  0.0984
  324loPI   C2A 5176  12.812   7.557   8.666  0.0578  0.0422 -0.1750
  324loPI   C3A 5177  13.027   7.605   8.280 -0.1290 -0.0519  0.0997
  324loPI   C4A 5178  13.098   7.740   7.896 -0.1185 -0.1183  0.1415
  324loPI   C5A 5179  13.108   8.129   7.608 -0.0531 -0.1164 -0.1338
  324loPI   C6A 5180  13.186   8.535   7.807  0.1581  0.0614 -0.1170
  324loPI   C1B 5181  12.951   7.065   8.836 -0.0094  0.2841 -0.3612
  324loPI   C2B 5182  13.123   7.178   8.496  0.0516  0.5423  0.1117
  324loPI   C3B 5183  13.017   7.162   8.090  0.1485 -0.2030  0.2434
  324loPI   C4B 5184  13.221   6.799   7.804  0.0603 -0.0314  0.0651
  325loPI    C1 5185   0.147   9.644  10.401 -0.2663 -0.1813 -0.0582
  325loPI    C2 5186  -0.128   9.452  10.619 -0.1566 -0.1737  0.0880
  325loPI    C3 5187   0.101   9.733  10.788  0.0418 -0.2839  0.0045
  325loPI   PO4 5188  -0.022   9.738  10.181  0.0270  0.2170 -0.1685
  325loPI   GL1 5189  -0.231   9.681   9.732 -0.0002  0.0368 -0.1765
  325loPI   GL2 5190  -0.368   9.423   9.714 -0.0332  0.0271  0.0659
  325loPI   C1A 5191   0.040   9.773   9.446  0.0859  0.1148  0.1984
  325loPI   C2A 5192   0.174   9.824   9.053  0.0234 -0.3167 -0.0092
  325loPI   C3A 5193   0.028   9.861   8.602  0.1319  0.0523 -0.0098
  325loPI   C4A 5194   0.196   9.804   8.152 -0.0899  0.1707 -0.1431
  325loPI   C5A 5195   0.516   9.997   7.871  0.2733  0.1050  0.1236
  325loPI   C6A 5196   0.550  10.107   7.386  0.1277  0.2273 -0.1667
  325loPI   C1B 5197  -0.402   9.194   9.259 -0.1827  0.1455 -0.1405
  325loPI   C2B 5198  -0.419   9.050   8.860 -0.1201  0.0815  0.4007
  325loPI   C3B 5199  -0.439   9.020   8.321 -0.1530 -0.0111 -0.3571
  325loPI   C4B 5200  -0.538   8.854   8.017  0.2257  0.3329 -0.2821
  326loPI    C1 5201  15.251  18.025  10.127  0.1755 -0.0460  0.0431
  326loPI    C2 5202  15.139  17.708  10.344 -0.0698  0.1426  0.1980
  326loPI    C3 5203  15.076  18.078  10.483 -0.0229  0.2640 -0.0960
  326loPI   PO4 5204  15.452  17.984  10.002 -0.4797 -0.3034  0.1192
  326loPI   GL1 5205  15.543  18.380   9.711  0.0670  0.0385 -0.1282
  326loPI   GL2 5206  15.814  18.259   9.675  0.1214 -0.0504 -0.0329
  326loPI   C1A 5207  15.564  18.484   9.270 -0.2182  0.0935  0.0606
  326loPI   C2A 5208  15.626  18.498   8.910 -0.1720 -0.0563 -0.0102
  326loPI   C3A 5209  15.750  18.508   8.490  0.1818 -0.2957  0.1789
  326loPI   C4A 5210  15.719  18.570   8.121  0.1581 -0.1387  0.0402
  326loPI   C5A 5211  15.594  18.899   7.756  0.0394 -0.0088 -0.1933
  326loPI   C6A 5212  15.565  19.012   7.361 -0.0147 -0.3226  0.1351
  326loPI   C1B 5213  16.121  18.259   9.407  0.0903  0.1011  0.0930
  326loPI   C2B 5214  16.169  18.293   8.999 -0.1258 -0.0285 -0.1099
  326loPI   C3B 5215  16.279  18.378   8.626 -0.1173 -0.0667  0.1935
  326loPI   C4B 5216  16.243  18.387   8.220  0.3285  0.1582 -0.1169
  327loPI    C1 5217  17.295   0.887  10.794 -0.0481 -0.0669 -0.0022
  327loPI    C2 5218  17.535   0.768  11.091 -0.1025  0.0068  0.0719
  327loPI    C3 5219  17.174   0.602  11.047 -0.1227  0.0457  0.0900
  327loPI   PO4 5220  17.345   0.795  10.423  0.0215  0.1963 -0.2481
  327loPI   GL1 5221  17.793   0.622  10.311  0.3927  0.2125 -0.0711
  327loPI   GL2 5222  18.049   0.646  10.145  0.0208  0.2412 -0.4500
  327loPI   C1A 5223  17.721   0.539   9.831 -0.2422 -0.2770  0.0500
  327loPI   C2A 5224  17.900   0.476   9.388 -0.2432  0.0805 -0.1133
  327loPI   C3A 5225  17.880   0.519   8.910 -0.0604 -0.1531 -0.0130
  327loPI   C4A 5226  17.883   0.642   8.477  0.1903  0.0031 -0.0340
  327loPI   C5A 5227  17.690   0.858   8.080 -0.2728  0.3260  0.0371
  327loPI   C6A 5228  17.543   1.224   7.954 -0.3455  0.0115  0.2735
  327loPI   C1B 5229  18.262   0.544   9.738  0.3097 -0.0107  0.2834
  327loPI   C2B 5230  18.395   0.499   9.311  0.0584 -0.0214  0.4096
  327loPI   C3B 5231  18.354   0.552   8.836 -0.1002 -0.2646 -0.0347
  327loPI   C4B 5232  18.374   0.518   8.381  0.2628 -0.2285 -0.0166
  328loPI    C1 5233   1.524   8.149  10.796 -0.1831  0.1333 -0.0007
  328loPI    C2 5234   1.846   8.101  11.028 -0.0784  0.1074 -0.1496
  328loPI    C3 5235   1.681   8.463  10.987 -0.2758  0.0614  0.1963
  328loPI   PO4 5236   1.529   8.026  10.438  0.1525 -0.0049  0.1002
  328loPI   GL1 5237   1.469   8.106   9.951  0.2724  0.1212  0.3103
  328loPI   GL2 5238   1.194   8.080   9.774  0.3186 -0.0468  0.1732
  328loPI   C1A 5239   1.762   8.046   9.590 -0.1631  0.2591 -0.0787
  328loPI   C2A 5240   2.018   7.663   9.505  0.3249 -0.3341  0.0243
  328loPI   C3A 5241   2.237   7.680   9.128  0.0421 -0.0286 -0.2031
  328loPI   C4A 5242   2.211   7.609   8.780  0.0161 -0.3032  0.2952
  328loPI   C5A 5243   1.992   7.484   8.454  0.1673 -0.2318 -0.0919
  328loPI   C6A 5244   1.746   7.203   8.220  0.1740 -0.0264 -0.0084
  328loPI   C1B 5245   1.303   7.859   9.358  0.0847 -0.2624  0.2470
  328loPI   C2B 5246   1.316   7.959   8.816 -0.1925 -0.2265 -0.1387
  328loPI   C3B 5247   1.286   7.993   8.356 -0.1029 -0.2071  0.1753
  328loPI   C4B 5248   1.346   8.325   7.964  0.4802  0.0473 -0.2861
  329loPI    C1 5249   3.105  17.657  11.024 -0.1904  0.0813  0.0469
  329loPI    C2 5250   3.406  17.844  11.211 -0.0935 -0.0997  0.0742
  329loPI    C3 5251   3.212  17.545  11.393 -0.1952 -0.0792  0.0006
  329loPI   PO4 5252   3.149  17.612  10.754  0.3093  0.2773 -0.0095
  329loPI   GL1 5253   3.239  17.815  10.303 -0.3422 -0.2098 -0.2208
  329loPI   GL2 5254   3.265  18.173  10.312  0.1446 -0.0606 -0.0124
  329loPI   C1A 5255   3.281  17.599   9.906 -0.2268 -0.1195 -0.1940
  329loPI   C2A 5256   3.398  17.468   9.516 -0.0372  0.4002  0.4423
  329loPI   C3A 5257   3.440  17.432   9.013 -0.1480 -0.1495  0.0497
  329loPI   C4A 5258   3.506  17.555   8.702 -0.0801 -0.1289  0.3644
  329loPI   C5A 5259   3.389  17.533   8.333  0.1118  0.1406  0.1443
  329loPI   C6A 5260   3.168  17.603   8.012 -0.0871 -0.0900 -0.2621
  329loPI   C1B 5261   3.161  18.113   9.834  0.1750 -0.0827  0.2168
  329loPI   C2B 5262   3.208  18.042   9.438 -0.2197  0.0373  0.0986
  329loPI   C3B 5263   3.186  17.929   8.969 -0.1161 -0.0017  0.0576
  329loPI   C4B 5264   3.242  17.954   8.528  0.2001  0.0614  0.1211
  330loPI    C1 5265  11.411   5.022   9.889 -0.1967 -0.0915  0.1376
  330loPI    C2 5266  11.449   5.419   9.912 -0.1503 -0.0832 -0.0620
  330loPI    C3 5267  11.561   5.190  10.220 -0.3338  0.0674  0.1203
  330loPI   PO4 5268  11.515   4.902   9.721 -0.2071  0.2347  0.1713
  330loPI   GL1 5269  11.379   5.114   9.285  0.1156  0.2003  0.0638
  330loPI   GL2 5270  11.480   5.367   9.425 -0.0693 -0.0021 -0.1575
  330loPI   C1A 5271  11.405   5.231   8.797 -0.1822 -0.0364  0.2026
  330loPI   C2A 5272  11.475   5.199   8.373 -0.1538  0.1164 -0.2254
  330loPI   C3A 5273  11.660   5.100   8.049  0.1263  0.3755  0.0159
  330loPI   C4A 5274  11.805   5.164   7.657 -0.3060  0.0228  0.2162
  330loPI   C5A 5275  12.018   4.816   7.375  0.1147 -0.1252 -0.1935
  330loPI   C6A 5276  12.394   4.643   7.189 -0.2384 -0.2485 -0.1597
  330loPI   C1B 5277  11.490   5.646   9.023  0.0680 -0.0296  0.4242
  330loPI   C2B 5278  11.446   5.681   8.582  0.0681  0.0528 -0.2933
  330loPI   C3B 5279  11.603   5.629   8.197 -0.0355  0.2951  0.0567
  330loPI   C4B 5280  11.764   5.863   7.795  0.2062 -0.0445 -0.4825
  331loPI    C1 5281  14.522   6.716  10.184  0.0880 -0.1192 -0.2250
  331loPI    C2 5282  14.256   7.013  10.163  0.2522  0.0570  0.1134
  331loPI    C3 5283  14.136   6.643  10.256  0.0887  0.0766 -0.0147
  331loPI   PO4 5284  14.632   6.717   9.922  0.0413  0.0284  0.3160
  331loPI   GL1 5285  14.616   6.944   9.555 -0.3394 -0.1477 -0.1677
  331loPI   GL2 5286  14.965   7.010   9.655 -0.2545 -0.2264 -0.1587
  331loPI   C1A 5287  14.573   6.951   9.165  0.1415 -0.0775  0.2619
  331loPI   C2A 5288  14.644   6.917   8.810 -0.1661 -0.1615  0.0692
  331loPI   C3A 5289  14.694   6.936   8.359  0.0144  0.1055  0.0348
  331loPI   C4A 5290  14.939   7.060   7.942  0.1511 -0.0461  0.2375
  331loPI   C5A 5291  15.102   7.336   7.623  0.1224 -0.1438 -0.1717
  331loPI   C6A 5292  15.199   7.717   7.557 -0.1824 -0.2307 -0.3005
  331loPI   C1B 5293  15.066   6.899   9.276  0.3477  0.0553  0.3699
  331loPI   C2B 5294  15.190   6.871   8.811  0.2258  0.2022  0.1171
  331loPI   C3B 5295  15.160   6.725   8.393 -0.0117 -0.1616  0.2231
  331loPI   C4B 5296  15.048   6.495   8.015 -0.0302 -0.1105 -0.0017
  332loPI    C1 5297   7.103   7.510  10.047 -0.1114 -0.1413  0.0000
  332loPI    C2 5298   7.352   7.778   9.885  0.0647 -0.3041 -0.0020
  332loPI    C3 5299   7.229   7.822  10.263 -0.2446  0.0069 -0.1330
  332loPI   PO4 5300   6.912   7.546   9.916 -0.2182 -0.1029  0.2044
  332loPI   GL1 5301   6.841   7.647   9.501 -0.0390  0.0473  0.1445
  332loPI   GL2 5302   7.221   7.611   9.459  0.0134 -0.0824  0.0537
  332loPI   C1A 5303   6.956   7.456   9.038 -0.1764 -0.1295  0.1749
  332loPI   C2A 5304   6.898   7.228   8.622 -0.3584  0.1010  0.1000
  332loPI   C3A 5305   6.829   7.174   8.262  0.2670  0.2847 -0.4030
  332loPI   C4A 5306   6.880   7.424   7.946  0.1906  0.2057  0.1667
  332loPI   C5A 5307   6.982   7.255   7.541 -0.0026 -0.4030 -0.0598
  332loPI   C6A 5308   7.200   7.094   7.191 -0.1326  0.0824 -0.1405
  332loPI   C1B 5309   7.132   7.925   9.135 -0.2188  0.1185  0.4151
  332loPI   C2B 5310   7.260   8.156   8.727  0.1994 -0.2073  0.0147
  332loPI   C3B 5311   7.283   8.285   8.201  0.0348 -0.2465  0.2381
  332loPI   C4B 5312   7.447   8.076   7.776 -0.2657  0.1410  0.1931
  333loPI    C1 5313   0.642   1.018  11.156 -0.0360 -0.1774 -0.0894
  333loPI    C2 5314   0.802   0.976  11.520  0.0970 -0.0074 -0.1270
  333loPI    C3 5315   0.557   0.694  11.375 -0.1693  0.0502  0.2008
  333loPI   PO4 5316   0.859   1.100  10.948  0.2650 -0.0658 -0.0091
  333loPI   GL1 5317   1.036   1.009  10.580 -0.0649  0.0462 -0.0515
  333loPI   GL2 5318   1.184   0.703  10.454 -0.0224 -0.1552  0.0635
  333loPI   C1A 5319   1.041   1.186  10.255  0.0276  0.1215  0.3968
  333loPI   C2A 5320   1.025   1.203   9.768 -0.1776 -0.1532  0.3060
  333loPI   C3A 5321   1.108   1.233   9.398 -0.1555 -0.4353  0.2949
  333loPI   C4A 5322   1.045   1.294   8.953 -0.3425 -0.0854  0.0067
  333loPI   C5A 5323   1.024   1.160   8.491  0.2024 -0.2555  0.0415
  333loPI   C6A 5324   0.988   1.136   8.084 -0.3956  0.1069 -0.2961
  333loPI   C1B 5325   1.164   0.773   9.963 -0.0821  0.0963 -0.1441
  333loPI   C2B 5326   1.160   0.731   9.517 -0.4568  0.3756  0.0064
  333loPI   C3B 5327   1.206   0.723   9.053 -0.0452 -0.1800 -0.3207
  333loPI   C4B 5328   1.175   0.680   8.641 -0.0612 -0.1774  0.0486
  334loPI    C1 5329  16.842  12.334  10.559  0.0902 -0.0301 -0.1236
  334loPI    C2 5330  16.761  11.986  10.738  0.0678  0.0261 -0.0237
  334loPI    C3 5331  16.813  12.316  10.957  0.3964  0.0258 -0.0960
  334loPI   PO4 5332  16.625  12.296  10.238 -0.1183  0.2157  0.1884
  334loPI   GL1 5333  16.579  12.447   9.868 -0.3284 -0.1416  0.0299
  334loPI   GL2 5334  16.957  12.549   9.964 -0.3540  0.0885  0.0030
  334loPI   C1A 5335  16.739  12.414   9.450  0.1167  0.2793  0.1268
  334loPI   C2A 5336  16.752  12.569   9.058  0.2305 -0.0843 -0.3105
  334loPI   C3A 5337  16.872  12.903   8.812 -0.0060  0.0343 -0.0068
  334loPI   C4A 5338  16.834  13.150   8.578 -0.0916  0.3134 -0.2436
  334loPI   C5A 5339  16.780  13.533   8.463 -0.0984  0.3139  0.0875
  334loPI   C6A 5340  16.705  13.950   8.267 -0.0600 -0.1030  0.0318
  334loPI   C1B 5341  17.322  12.563   9.790  0.0627 -0.0798  0.1997
  334loPI   C2B 5342  17.204  12.471   9.252  0.0206  0.0622 -0.1274
  334loPI   C3B 5343  17.147  12.476   8.760 -0.0002  0.3109  0.1690
  334loPI   C4B 5344  16.804  12.525   8.536  0.1156  0.1947  0.0566
  335loPI    C1 5345   1.086   2.651  10.795 -0.0794  0.3567 -0.0729
  335loPI    C2 5346   1.476   2.578  10.844 -0.0680  0.2600 -0.2978
  335loPI    C3 5347   1.208   2.403  11.084  0.0147  0.1705 -0.2701
  335loPI   PO4 5348   1.090   2.626  10.541 -0.0770 -0.2177 -0.0170
  335loPI   GL1 5349   1.211   2.604  10.082  0.1059 -0.0919 -0.0684
  335loPI   GL2 5350   1.494   2.612   9.903 -0.0252  0.0051  0.1582
  335loPI   C1A 5351   1.023   2.639   9.743 -0.0070  0.3261  0.0220
  335loPI   C2A 5352   1.003   2.611   9.286  0.3562  0.2063  0.0998
  335loPI   C3A 5353   1.004   2.696   8.792 -0.1777  0.2865  0.0591
  335loPI   C4A 5354   1.051   2.596   8.407 -0.1887 -0.2346 -0.2926
  335loPI   C5A 5355   0.868   2.793   7.940  0.0008  0.1110  0.0542
  335loPI   C6A 5356   0.607   2.732   7.493  0.1893 -0.1723 -0.4794
  335loPI   C1B 5357   1.494   2.516   9.477  0.0402  0.0014  0.0296
  335loPI   C2B 5358   1.484   2.544   9.065  0.0358 -0.3505  0.2122
  335loPI   C3B 5359   1.496   2.607   8.585 -0.1049  0.1094 -0.0562
  335loPI   C4B 5360   1.551   2.673   8.151 -0.1988  0.0872 -0.2133
  336loPI    C1 5361  12.324  15.884  10.727 -0.2337  0.0588  0.0125
  336loPI    C2 5362  12.630  15.672  10.876 -0.1720  0.0949 -0.0621
  336loPI    C3 5363  12.400  15.890  11.120  0.1470  0.4380 -0.0597
  336loPI   PO4 5364  12.359  15.962  10.551  0.2195  0.1058 -0.2588
  336loPI   GL1 5365  12.363  16.075  10.083 -0.2454  0.2768  0.1148
  336loPI   GL2 5366  12.158  15.796   9.974  0.3061  0.3102  0.1396
  336loPI   C1A 5367  12.165  16.271   9.674  0.0108 -0.4148  0.1883
  336loPI   C2A 5368  12.177  16.348   9.190 -0.1922 -0.4418 -0.2328
  336loPI   C3A 5369  11.878  16.512   8.786 -0.0196  0.4601 -0.0213
  336loPI   C4A 5370  11.811  16.359   8.422 -0.1761  0.5342  0.1366
  336loPI   C5A 5371  12.004  16.288   8.067  0.2355  0.1236 -0.1094
  336loPI   C6A 5372  12.054  16.215   7.623  0.2288 -0.0931 -0.0672
  336loPI   C1B 5373  12.048  15.814   9.559  0.0942 -0.1092 -0.1814
  336loPI   C2B 5374  11.984  15.762   9.074  0.0044 -0.1294  0.1749
  336loPI   C3B 5375  11.795  15.507   8.792 -0.1042  0.2465  0.0250
  336loPI   C4B 5376  11.598  15.434   8.454 -0.0676 -0.4261  0.2642
  337loPI    C1 5377   8.095  17.393  10.763  0.0301 -0.1511 -0.2579
  337loPI    C2 5378   8.012  17.488  11.142  0.1350 -0.3114 -0.1939
  337loPI    C3 5379   8.336  17.641  10.964 -0.0581 -0.0261 -0.3057
  337loPI   PO4 5380   7.950  17.485  10.643  0.1136 -0.0229  0.1799
  337loPI   GL1 5381   7.862  17.377  10.226 -0.5202 -0.1381 -0.2083
  337loPI   GL2 5382   7.835  17.651  10.127 -0.2857  0.1626 -0.0922
  337loPI   C1A 5383   7.973  17.361   9.756  0.0512  0.1768  0.2074
  337loPI   C2A 5384   7.909  17.432   9.388  0.4344  0.0485  0.2034
  337loPI   C3A 5385   7.866  17.326   8.993  0.1672 -0.2515  0.0320
  337loPI   C4A 5386   7.963  17.286   8.580 -0.2680 -0.0889  0.1019
  337loPI   C5A 5387   8.004  17.355   8.079  0.0714 -0.0811  0.0092
  337loPI   C6A 5388   7.694  17.096   7.866 -0.2298  0.0304  0.0240
  337loPI   C1B 5389   7.843  17.844   9.694  0.3862  0.0384  0.0728
  337loPI   C2B 5390   7.746  17.903   9.323  0.0327 -0.0446  0.1400
  337loPI   C3B 5391   7.716  17.874   8.880 -0.1606 -0.0166  0.1807
  337loPI   C4B 5392   7.734  17.832   8.356  0.1605  0.0279 -0.0178
  338loPI    C1 5393   9.780  12.405  10.799  0.0167 -0.0318  0.0664
  338loPI    C2 5394  10.174  12.338  10.808 -0.0108 -0.2787 -0.3123
  338loPI    C3 5395   9.947  12.240  11.123  0.2191 -0.1873 -0.1144
  338loPI   PO4 5396   9.716  12.330  10.484  0.4525  0.3056  0.0036
  338loPI   GL1 5397   9.495  12.341  10.065 -0.2264 -0.3458  0.0586
  338loPI   GL2 5398   9.356  12.067  10.024 -0.1905  0.0429 -0.2063
  338loPI   C1A 5399   9.401  12.700   9.917 -0.1730  0.0610  0.0423
  338loPI   C2A 5400   9.565  12.535   9.482 -0.1295 -0.1337 -0.4154
  338loPI   C3A 5401   9.611  12.527   9.006  0.0598  0.1834  0.0397
  338loPI   C4A 5402   9.619  12.476   8.625 -0.0881 -0.0090 -0.1346
  338loPI   C5A 5403   9.674  12.481   8.112  0.1884 -0.1715 -0.0139
  338loPI   C6A 5404   9.663  12.807   7.851 -0.0814 -0.1368  0.1319
  338loPI   C1B 5405   9.225  12.114   9.588 -0.3064  0.0800 -0.0701
  338loPI   C2B 5406   9.326  12.087   9.217 -0.1068  0.2291 -0.1287
  338loPI   C3B 5407   9.275  12.107   8.842 -0.0482 -0.2761  0.0758
  338loPI   C4B 5408   9.178  12.393   8.786  0.0959  0.1906 -0.0370
  339loPI    C1 5409  12.234  11.852  10.739 -0.1877 -0.0160 -0.1296
  339loPI    C2 5410  11.901  11.667  10.861 -0.2649 -0.0295 -0.3572
  339loPI    C3 5411  12.245  11.465  10.838 -0.2002  0.0272  0.0446
  339loPI   PO4 5412  12.204  11.969  10.457  0.2271 -0.4177  0.2132
  339loPI   GL1 5413  12.374  11.846  10.106  0.0217  0.2138 -0.1196
  339loPI   GL2 5414  12.623  11.755   9.932 -0.1107 -0.0577 -0.0147
  339loPI   C1A 5415  12.069  11.909   9.707 -0.1124  0.0029  0.3315
  339loPI   C2A 5416  11.882  12.005   9.321  0.0993  0.1975  0.0051
  339loPI   C3A 5417  11.838  12.077   8.911  0.1086 -0.2007  0.4782
  339loPI   C4A 5418  11.631  12.111   8.654  0.0600 -0.0368 -0.2439
  339loPI   C5A 5419  11.558  12.325   8.217 -0.0127 -0.3296  0.2461
  339loPI   C6A 5420  11.176  12.304   8.002 -0.1046 -0.1540  0.0560
  339loPI   C1B 5421  12.660  11.619   9.443 -0.2565 -0.1791  0.0727
  339loPI   C2B 5422  12.493  11.756   9.059 -0.2416 -0.1763  0.3487
  339loPI   C3B 5423  12.292  11.816   8.615  0.2337 -0.1582 -0.4416
  339loPI   C4B 5424  12.318  11.984   8.197 -0.0639 -0.3789  0.2024
  340loPI    C1 5425  13.058  16.353  10.574  0.1304 -0.1037 -0.0536
  340loPI    C2 5426  12.795  16.170  10.813  0.0568 -0.0213 -0.0711
  340loPI    C3 5427  13.093  16.384  10.971 -0.1295  0.2294 -0.0525
  340loPI   PO4 5428  12.872  16.564  10.372  0.0585  0.1115  0.0031
  340loPI   GL1 5429  13.095  16.618   9.988 -0.1141  0.0955  0.0463
  340loPI   GL2 5430  13.391  16.690   9.933  0.0104  0.0432 -0.1055
  340loPI   C1A 5431  12.831  16.657   9.683 -0.0730  0.1972 -0.3070
  340loPI   C2A 5432  12.563  16.651   9.275 -0.3702  0.0837 -0.1878
  340loPI   C3A 5433  12.442  16.656   8.910 -0.1075 -0.3121  0.2270
  340loPI   C4A 5434  12.330  16.448   8.466  0.0374 -0.4177 -0.0826
  340loPI   C5A 5435  12.232  16.787   8.181 -0.2103 -0.1989  0.1733
  340loPI   C6A 5436  12.382  17.171   7.940 -0.0936 -0.1832 -0.0931
  340loPI   C1B 5437  13.497  16.782   9.483 -0.3065 -0.0563  0.1001
  340loPI   C2B 5438  13.417  16.726   9.117  0.0210  0.0705  0.2176
  340loPI   C3B 5439  13.515  16.790   8.732  0.0963 -0.1235 -0.0075
  340loPI   C4B 5440  13.327  16.843   8.420 -0.2556 -0.3828 -0.2337
  341loPI    C1 5441   4.712   4.293  10.213 -0.1465 -0.0773 -0.0751
  341loPI    C2 5442   4.451   4.425  10.485  0.0057  0.3135 -0.1129
  341loPI    C3 5443   4.716   4.143  10.584 -0.2358  0.1260  0.0094
  341loPI   PO4 5444   4.796   4.496  10.088  0.0680  0.2097  0.2575
  341loPI   GL1 5445   4.889   4.657   9.620  0.0688  0.0690 -0.2600
  341loPI   GL2 5446   5.214   4.446   9.577 -0.1746  0.4544 -0.0045
  341loPI   C1A 5447   4.809   4.737   9.168 -0.1293 -0.0610  0.0275
  341loPI   C2A 5448   4.806   4.801   8.642 -0.0233 -0.0741  0.1754
  341loPI   C3A 5449   4.901   4.790   8.216 -0.2849  0.3872  0.2159
  341loPI   C4A 5450   5.148   4.921   7.822  0.0835 -0.0400 -0.1888
  341loPI   C5A 5451   5.371   4.992   7.423 -0.0261 -0.1238  0.1528
  341loPI   C6A 5452   5.732   5.251   7.223  0.2040  0.1177 -0.3045
  341loPI   C1B 5453   5.167   4.355   9.129  0.0383 -0.0193 -0.0446
  341loPI   C2B 5454   5.044   4.404   8.796  0.1760  0.0394  0.0314
  341loPI   C3B 5455   4.940   4.352   8.403 -0.3003 -0.1459 -0.0368
  341loPI   C4B 5456   5.101   4.426   7.935  0.1898  0.0217 -0.0363
  342loPI    C1 5457   0.816  15.965  11.082 -0.3696 -0.1556 -0.0192
  342loPI    C2 5458   0.652  16.305  10.950  0.1382  0.0931 -0.0337
  342loPI    C3 5459   0.679  16.235  11.343 -0.1442 -0.0249 -0.0333
  342loPI   PO4 5460   1.068  15.909  10.876 -0.2005 -0.0464  0.0355
  342loPI   GL1 5461   1.341  16.005  10.583  0.2564 -0.3125  0.1730
  342loPI   GL2 5462   1.507  16.269  10.414 -0.1809 -0.1623 -0.3641
  342loPI   C1A 5463   1.110  16.017  10.219  0.1294  0.0459  0.1588
  342loPI   C2A 5464   1.098  16.164   9.783  0.0316  0.0018  0.2088
  342loPI   C3A 5465   1.111  16.081   9.387 -0.2004  0.2264  0.0870
  342loPI   C4A 5466   1.035  16.042   8.930 -0.0813  0.1096 -0.0726
  342loPI   C5A 5467   1.050  15.968   8.455 -0.0145 -0.1105 -0.2189
  342loPI   C6A 5468   0.721  15.800   8.245 -0.1818 -0.0706  0.0120
  342loPI   C1B 5469   1.395  16.445  10.084 -0.0863  0.2246  0.0467
  342loPI   C2B 5470   1.427  16.505   9.631  0.0405 -0.2617 -0.0115
  342loPI   C3B 5471   1.464  16.514   9.176 -0.0920 -0.1239 -0.0456
  342loPI   C4B 5472   1.376  16.426   8.744 -0.0855 -0.1194 -0.3427
  343loPI    C1 5473  12.615  14.391  10.487 -0.0270 -0.1071 -0.1196
  343loPI    C2 5474  12.953  14.583  10.583 -0.3786  0.4316  0.0861
  343loPI    C3 5475  12.746  14.389  10.865 -0.3144  0.2166 -0.0129
  343loPI   PO4 5476  12.717  14.370  10.209 -0.0724 -0.4095 -0.3292
  343loPI   GL1 5477  12.626  14.570   9.809  0.3078 -0.1218 -0.2059
  343loPI   GL2 5478  12.918  14.574   9.713 -0.0968 -0.0486 -0.0982
  343loPI   C1A 5479  12.613  14.793   9.369 -0.0872  0.0171  0.1491
  343loPI   C2A 5480  12.525  15.007   8.843  0.2367  0.0558 -0.0217
  343loPI   C3A 5481  12.510  15.006   8.407  0.0138  0.0245 -0.1017
  343loPI   C4A 5482  12.621  14.740   8.035  0.0789  0.3027 -0.1474
  343loPI   C5A 5483  12.782  14.937   7.644  0.1135 -0.1878 -0.3593
  343loPI   C6A 5484  13.109  14.886   7.260  0.1146  0.1504  0.0106
  343loPI   C1B 5485  13.308  14.532   9.459  0.1456 -0.1522  0.1575
  343loPI   C2B 5486  13.429  14.384   9.135 -0.1244 -0.1567 -0.1727
  343loPI   C3B 5487  13.309  14.366   8.654 -0.0159  0.2169 -0.1215
  343loPI   C4B 5488  12.937  14.068   8.546  0.0341 -0.4368 -0.0336
  344loPI    C1 5489   8.728  18.403  10.606  0.4032 -0.1903 -0.1152
  344loPI    C2 5490   9.021  18.221  10.808  0.3403  0.0448  0.1945
  344loPI    C3 5491   8.744  18.432  11.004  0.1479  0.0928 -0.1225
  344loPI   PO4 5492   8.833  18.440  10.325  0.2046  0.1110 -0.2673
  344loPI   GL1 5493   8.842  18.300   9.937  0.1513  0.0050 -0.1288
  344loPI   GL2 5494   9.030  18.124   9.844 -0.4029 -0.1795  0.1472
  344loPI   C1A 5495   8.592  18.228   9.521 -0.2212  0.0899  0.1071
  344loPI   C2A 5496   8.663  18.125   9.122  0.0792  0.2311 -0.2042
  344loPI   C3A 5497   8.520  18.128   8.733 -0.1552  0.0595  0.0404
  344loPI   C4A 5498   8.603  18.084   8.293  0.1701  0.0942 -0.1690
  344loPI   C5A 5499   8.823  17.945   7.949  0.1965 -0.1897  0.1756
  344loPI   C6A 5500   9.215  17.827   7.771  0.0473 -0.0073  0.1707
  344loPI   C1B 5501   9.065  18.104   9.434 -0.1591 -0.0393  0.2055
  344loPI   C2B 5502   9.132  18.081   9.098 -0.4801  0.2698 -0.1105
  344loPI   C3B 5503   9.024  18.197   8.784  0.0334  0.3128 -0.1309
  344loPI   C4B 5504   9.089  18.115   8.359  0.2212 -0.2250 -0.1702
  345loPI    C1 5505   3.980   0.064  10.788  0.0187  0.3394 -0.0755
  345loPI    C2 5506   3.711   0.277  10.995  0.0431  0.1378  0.1684
  345loPI    C3 5507   4.063   0.184  11.160  0.0660 -0.0205  0.0336
  345loPI   PO4 5508   3.877  -0.080  10.669  0.3608  0.1438 -0.1159
  345loPI   GL1 5509   3.791  -0.212  10.318  0.1145 -0.2908 -0.0504
  345loPI   GL2 5510   3.711  -0.466  10.204 -0.1900  0.2177  0.0222
  345loPI   C1A 5511   3.564   0.010   9.991  0.0074 -0.0644  0.2402
  345loPI   C2A 5512   3.544  -0.048   9.609  0.2248  0.1249 -0.2044
  345loPI   C3A 5513   3.488  -0.088   9.203 -0.2231 -0.3728 -0.0698
  345loPI   C4A 5514   3.569  -0.187   8.711 -0.0117  0.0246  0.2968
  345loPI   C5A 5515   3.832  -0.117   8.320 -0.1942  0.0469 -0.0453
  345loPI   C6A 5516   3.981   0.248   8.047 -0.1717 -0.0728  0.1060
  345loPI   C1B 5517   3.726  -0.522   9.680  0.2543  0.3978  0.2616
  345loPI   C2B 5518   3.687  -0.619   9.215 -0.4544 -0.2166  0.0715
  345loPI   C3B 5519   3.781  -0.569   8.907 -0.0984 -0.3639  0.0835
  345loPI   C4B 5520   3.828  -0.592   8.502 -0.0064  0.3129 -0.2121
  346loPI    C1 5521  17.563   2.370  10.887 -0.1066  0.0490 -0.0776
  346loPI    C2 5522  17.192   2.323  11.028 -0.0728  0.0843  0.0246
  346loPI    C3 5523  17.449   2.016  11.033 -0.0411  0.1121  0.1310
  346loPI   PO4 5524  17.536   2.450  10.558 -0.3416  0.2301 -0.2171
  346loPI   GL1 5525  17.549   2.309  10.142  0.1540 -0.6080 -0.1196
  346loPI   GL2 5526  17.413   2.629  10.074  0.0441 -0.0343  0.0701
  346loPI   C1A 5527  17.732   2.019   9.796  0.0820 -0.0431  0.2523
  346loPI   C2A 5528  17.780   2.056   9.343  0.1308  0.0736 -0.2242
  346loPI   C3A 5529  17.775   2.004   8.968 -0.1051 -0.0671  0.2299
  346loPI   C4A 5530  17.781   2.014   8.579  0.0189  0.0828  0.0729
  346loPI   C5A 5531  17.935   2.134   8.249  0.0646  0.0275 -0.0524
  346loPI   C6A 5532  18.206   2.215   7.967 -0.0871 -0.1171 -0.1058
  346loPI   C1B 5533  17.529   2.466   9.695 -0.0612 -0.1466  0.3671
  346loPI   C2B 5534  17.568   2.543   9.239  0.1818  0.1158  0.0453
  346loPI   C3B 5535  17.631   2.423   8.874 -0.0192 -0.0137  0.2777
  346loPI   C4B 5536  17.465   2.372   8.342  0.1552 -0.2419  0.0048
  347loPI    C1 5537   4.013   2.760  10.630 -0.1258 -0.3186  0.1512
  347loPI    C2 5538   3.674   2.947  10.731 -0.0740 -0.2558  0.2094
  347loPI    C3 5539   4.016   3.038  10.917  0.0083 -0.1928  0.0297
  347loPI   PO4 5540   4.133   2.639  10.347  0.0796  0.1552  0.0569
  347loPI   GL1 5541   3.887   2.284  10.064  0.0136 -0.1378  0.1798
  347loPI   GL2 5542   3.666   2.070   9.901 -0.0220  0.0228 -0.1927
  347loPI   C1A 5543   4.006   2.351   9.548 -0.2326 -0.1803 -0.0133
  347loPI   C2A 5544   4.063   2.208   9.151 -0.0696 -0.2416 -0.0054
  347loPI   C3A 5545   4.067   2.170   8.748 -0.0542  0.2564  0.2284
  347loPI   C4A 5546   4.085   2.060   8.339  0.2007 -0.0141 -0.1248
  347loPI   C5A 5547   4.225   2.129   7.887  0.1332 -0.0880  0.1757
  347loPI   C6A 5548   4.616   2.070   7.754 -0.1158  0.5086 -0.1065
  347loPI   C1B 5549   3.711   1.904   9.444  0.3789 -0.4316 -0.0035
  347loPI   C2B 5550   3.815   1.781   9.051 -0.1871  0.1305 -0.2353
  347loPI   C3B 5551   3.826   1.659   8.645  0.2926 -0.1963  0.1017
  347loPI   C4B 5552   3.832   1.653   8.186  0.0307  0.0335  0.0996
  348loPI    C1 5553   2.831  10.373  10.591 -0.0441  0.1640  0.1532
  348loPI    C2 5554   2.845  10.767  10.659  0.1283  0.1303  0.3183
  348loPI    C3 5555   2.877  10.509  10.964  0.3797 -0.0156  0.1718
  348loPI   PO4 5556   2.913  10.357  10.286  0.2696 -0.0598  0.0698
  348loPI   GL1 5557   2.857  10.806  10.082 -0.2694 -0.0350 -0.0475
  348loPI   GL2 5558   2.562  10.699  10.188  0.0628  0.0603 -0.1103
  348loPI   C1A 5559   2.756  10.637   9.701 -0.0623 -0.0158 -0.4264
  348loPI   C2A 5560   2.733  10.505   9.209 -0.2174 -0.1944 -0.1371
  348loPI   C3A 5561   2.606  10.472   8.807  0.3841  0.1713  0.2124
  348loPI   C4A 5562   2.890  10.532   8.469  0.0807 -0.0233  0.1132
  348loPI   C5A 5563   2.977  10.387   7.989  0.3149 -0.0617  0.0924
  348loPI   C6A 5564   3.309  10.285   7.786  0.4503  0.5930  0.1262
  348loPI   C1B 5565   2.226  11.013  10.123 -0.1541  0.0455 -0.1526
  348loPI   C2B 5566   2.005  11.147   9.685  0.1845  0.0093 -0.0602
  348loPI   C3B 5567   2.060  11.235   9.194  0.2073  0.1128 -0.0451
  348loPI   C4B 5568   1.855  11.243   8.774  0.3945  0.0726 -0.6896
  349loPI    C1 5569   3.627   5.970  10.340 -0.1153 -0.0544 -0.0405
  349loPI    C2 5570   3.322   6.151  10.525 -0.0775  0.0602 -0.0894
  349loPI    C3 5571   3.685   6.319  10.526  0.0224 -0.1512  0.1005
  349loPI   PO4 5572   3.527   5.917  10.077  0.0627  0.2342 -0.0544
  349loPI   GL1 5573   3.481   6.103   9.737  0.0773 -0.2074 -0.2688
  349loPI   GL2 5574   3.767   6.237   9.744  0.1785 -0.0914  0.0865
  349loPI   C1A 5575   3.233   6.050   9.358  0.0849  0.1198  0.0184
  349loPI   C2A 5576   3.218   6.056   8.937  0.4345 -0.0932 -0.0642
  349loPI   C3A 5577   3.206   5.913   8.446 -0.1463  0.0112 -0.1754
  349loPI   C4A 5578   3.050   5.865   7.969 -0.1332 -0.1638  0.0316
  349loPI   C5A 5579   3.024   5.486   7.734  0.0074 -0.0300  0.0441
  349loPI   C6A 5580   2.722   5.340   7.414 -0.0314 -0.4644 -0.1162
  349loPI   C1B 5581   3.800   6.065   9.361 -0.0042  0.0759  0.0411
  349loPI   C2B 5582   3.775   6.028   9.002 -0.1272 -0.0534  0.3229
  349loPI   C3B 5583   3.620   6.127   8.638 -0.0582 -0.4320  0.1274
  349loPI   C4B 5584   3.495   6.275   8.245  0.0401  0.2696  0.0702
  350loPI    C1 5585  17.815   8.046  10.360 -0.0533  0.0874  0.0431
  350loPI    C2 5586  17.818   7.658  10.262  0.1070  0.0611  0.1476
  350loPI    C3 5587  17.548   7.797  10.523 -0.0538  0.0518 -0.0122
  350loPI   PO4 5588  17.805   8.218  10.116 -0.2713  0.0027 -0.1883
  350loPI   GL1 5589  17.958   8.509   9.875 -0.0840 -0.1170 -0.1489
  350loPI   GL2 5590  18.143   8.864   9.768 -0.1469  0.3752 -0.3974
  350loPI   C1A 5591  17.907   8.530   9.495 -0.0789 -0.1327  0.3539
  350loPI   C2A 5592  18.069   8.648   9.113  0.1318  0.1025 -0.2547
  350loPI   C3A 5593  18.214   8.526   8.715  0.0251  0.1387 -0.1908
  350loPI   C4A 5594  18.087   8.458   8.246 -0.0186  0.2092 -0.0662
  350loPI   C5A 5595  17.778   8.366   7.995 -0.1966 -0.0139  0.0581
  350loPI   C6A 5596  17.472   8.116   7.826 -0.0180  0.0568 -0.1432
  350loPI   C1B 5597  18.465   8.832   9.354  0.2503  0.4964  0.1638
  350loPI   C2B 5598  18.605   8.908   8.927 -0.3685  0.1201  0.0333
  350loPI   C3B 5599  18.518   8.856   8.502 -0.1828 -0.1711 -0.0068
  350loPI   C4B 5600  18.406   8.892   8.078 -0.1716 -0.1413 -0.0821
  351loPI    C1 5601  16.216   1.370  10.933 -0.0297  0.0719 -0.0883
  351loPI    C2 5602  16.495   1.654  10.967 -0.0699  0.1215 -0.1655
  351loPI    C3 5603  16.552   1.296  11.136  0.0031  0.1587 -0.1104
  351loPI   PO4 5604  16.112   1.322  10.589  0.1719 -0.0331  0.3465
  351loPI   GL1 5605  16.200   1.333  10.190  0.1085  0.0715 -0.2642
  351loPI   GL2 5606  16.230   1.653  10.187  0.3696 -0.1361  0.0540
  351loPI   C1A 5607  16.027   1.378   9.826  0.2379 -0.0391 -0.1627
  351loPI   C2A 5608  16.019   1.404   9.512  0.0324 -0.3957  0.2162
  351loPI   C3A 5609  16.038   1.425   9.123 -0.1235  0.0884 -0.0224
  351loPI   C4A 5610  16.053   1.335   8.733 -0.4750 -0.0594 -0.0813
  351loPI   C5A 5611  16.166   1.444   8.273 -0.1346  0.2043 -0.3668
  351loPI   C6A 5612  16.352   1.637   7.864  0.2669  0.0201  0.2417
  351loPI   C1B 5613  16.305   1.793   9.701  0.0195 -0.0542  0.1356
  351loPI   C2B 5614  16.323   1.853   9.266  0.0752 -0.3492 -0.3839
  351loPI   C3B 5615  16.445   1.685   8.845 -0.2127  0.3230 -0.0869
  351loPI   C4B 5616  16.560   1.789   8.464 -0.0893  0.1925 -0.0408
  352loPI    C1 5617   1.792   1.099  11.108 -0.0427  0.0830 -0.0076
  352loPI    C2 5618   1.790   1.487  11.203  0.1466  0.1205 -0.1512
  352loPI    C3 5619   1.789   1.210  11.492  0.5111  0.2314 -0.0384
  352loPI   PO4 5620   1.687   1.159  10.859  0.4910  0.0544  0.0997
  352loPI   GL1 5621   1.720   1.302  10.502  0.3719  0.0547  0.0177
  352loPI   GL2 5622   1.481   1.612  10.314 -0.0702  0.1303 -0.0373
  352loPI   C1A 5623   1.561   1.191  10.013 -0.0081 -0.1061 -0.0370
  352loPI   C2A 5624   1.586   1.176   9.553  0.1874 -0.0087  0.2133
  352loPI   C3A 5625   1.497   1.143   9.144  0.0452  0.2565 -0.1763
  352loPI   C4A 5626   1.562   1.148   8.663  0.0389  0.0617 -0.3388
  352loPI   C5A 5627   1.450   1.317   8.235  0.1210 -0.0013 -0.3090
  352loPI   C6A 5628   1.572   1.513   7.964  0.0556  0.3072  0.2084
  352loPI   C1B 5629   1.378   1.612   9.899 -0.1774 -0.0109 -0.0006
  352loPI   C2B 5630   1.374   1.651   9.492  0.3443 -0.3084 -0.0045
  352loPI   C3B 5631   1.395   1.641   9.025 -0.4701 -0.2054 -0.1807
  352loPI   C4B 5632   1.297   1.658   8.642  0.1302  0.2392  0.2862
  353loPI    C1 5633  14.142   3.469  10.271 -0.1539  0.2069 -0.0542
  353loPI    C2 5634  13.878   3.454  10.571 -0.1539  0.0426 -0.0612
  353loPI    C3 5635  14.116   3.141  10.499  0.0350  0.1849 -0.0627
  353loPI   PO4 5636  13.988   3.559   9.981  0.0414  0.0190 -0.1048
  353loPI   GL1 5637  14.258   3.537   9.713 -0.0551  0.1141 -0.3485
  353loPI   GL2 5638  14.200   3.769   9.574  0.3407  0.0337  0.0734
  353loPI   C1A 5639  14.102   3.340   9.350 -0.2347 -0.2725 -0.0208
  353loPI   C2A 5640  14.153   3.157   9.010 -0.0616  0.1220 -0.1578
  353loPI   C3A 5641  14.180   3.260   8.544  0.1719 -0.0385  0.0368
  353loPI   C4A 5642  14.042   3.322   8.244  0.1722  0.1761 -0.0159
  353loPI   C5A 5643  13.796   3.537   7.976  0.0078  0.1485 -0.2966
  353loPI   C6A 5644  13.617   3.895   7.830  0.1609  0.0731 -0.0761
  353loPI   C1B 5645  14.054   3.807   9.235 -0.0026  0.2561  0.0946
  353loPI   C2B 5646  14.179   3.685   8.889  0.0202 -0.1748 -0.0251
  353loPI   C3B 5647  14.003   3.763   8.483  0.1114  0.0897  0.2475
  353loPI   C4B 5648  14.021   4.051   8.114 -0.1620  0.1041 -0.3652
  354loPI    C1 5649   1.295   8.882  10.307  0.0182  0.0508 -0.0334
  354loPI    C2 5650   1.211   9.187  10.552 -0.0351  0.0253 -0.0199
  354loPI    C3 5651   1.385   8.857  10.696  0.0400  0.0569 -0.0382
  354loPI   PO4 5652   1.011   8.748  10.236  0.0548  0.3338  0.1860
  354loPI   GL1 5653   0.690   8.786   9.967 -0.2233  0.0157 -0.2024
  354loPI   GL2 5654   0.760   8.544   9.815 -0.3545  0.2272  0.0317
  354loPI   C1A 5655   0.615   9.032   9.638  0.1253 -0.0287 -0.1264
  354loPI   C2A 5656   0.557   9.116   9.248 -0.1559 -0.0958  0.5415
  354loPI   C3A 5657   0.556   9.182   8.855 -0.0265 -0.2502  0.0181
  354loPI   C4A 5658   0.454   9.079   8.504 -0.1958  0.0255  0.1676
  354loPI   C5A 5659   0.422   8.898   8.143 -0.3057 -0.0457  0.0844
  354loPI   C6A 5660   0.298   8.902   7.679  0.2709 -0.1844  0.3415
  354loPI   C1B 5661   0.793   8.477   9.429  0.0725 -0.3290 -0.0793
  354loPI   C2B 5662   0.983   8.379   9.019 -0.1742 -0.2831 -0.5693
  354loPI   C3B 5663   0.981   8.302   8.678 -0.0351 -0.1485  0.1036
  354loPI   C4B 5664   1.122   8.515   8.455  0.3008  0.2676  0.0503
  355loPI    C1 5665  13.745   0.750  10.456 -0.0597 -0.4954 -0.1793
  355loPI    C2 5666  13.939   0.864  10.787  0.2998  0.0798 -0.5694
  355loPI    C3 5667  13.842   0.480  10.734  0.4747 -0.0645  0.0736
  355loPI   PO4 5668  13.798   0.840  10.207 -0.3384  0.0989  0.1716
  355loPI   GL1 5669  14.189   1.019   9.999 -0.0862  0.0464 -0.1225
  355loPI   GL2 5670  14.299   0.731  10.014 -0.1380  0.1271  0.3801
  355loPI   C1A 5671  14.402   1.013   9.577 -0.2467 -0.2127 -0.5127
  355loPI   C2A 5672  14.665   1.013   9.208  0.1140  0.1263 -0.4896
  355loPI   C3A 5673  14.736   1.014   8.784 -0.0822  0.0142  0.0700
  355loPI   C4A 5674  14.673   1.000   8.448  0.0536  0.1862 -0.0131
  355loPI   C5A 5675  14.840   1.141   8.122 -0.3009 -0.1820 -0.2549
  355loPI   C6A 5676  15.091   1.311   7.726  0.1921 -0.2222 -0.2182
  355loPI   C1B 5677  14.080   0.612   9.662 -0.1453  0.1899 -0.0507
  355loPI   C2B 5678  13.998   0.663   9.216  0.0241 -0.2130 -0.0352
  355loPI   C3B 5679  13.932   0.630   8.778 -0.0836  0.3496  0.0603
  355loPI   C4B 5680  13.943   0.635   8.366 -0.3074  0.0965 -0.2990
  356loPI    C1 5681   0.231   2.173  11.020  0.0529  0.0810 -0.0095
  356loPI    C2 5682   0.403   1.938  11.295  0.0089  0.2230  0.1413
  356loPI    C3 5683   0.106   2.185  11.400 -0.0497  0.2344 -0.0470
  356loPI   PO4 5684   0.411   2.305  10.927 -0.3219  0.3546  0.2265
  356loPI   GL1 5685   0.421   2.302  10.425 -0.1183 -0.0274 -0.2988
  356loPI   GL2 5686   0.210   2.186  10.097  0.1825 -0.0167  0.0605
  356loPI   C1A 5687   0.553   2.573  10.173  0.3280 -0.0375 -0.2043
  356loPI   C2A 5688   0.527   2.788   9.824 -0.0385 -0.1060  0.0756
  356loPI   C3A 5689   0.444   2.723   9.509  0.4066 -0.2418  0.0884
  356loPI   C4A 5690   0.495   2.691   9.109 -0.0425  0.2103 -0.1754
  356loPI   C5A 5691   0.416   2.671   8.710 -0.2776  0.0264  0.0335
  356loPI   C6A 5692   0.125   2.671   8.361 -0.2070 -0.0117 -0.2684
  356loPI   C1B 5693   0.180   2.303   9.725 -0.3649  0.0852 -0.1517
  356loPI   C2B 5694   0.124   2.319   9.263 -0.1738 -0.1509  0.1744
  356loPI   C3B 5695   0.132   2.259   8.833 -0.0852 -0.1067 -0.2441
  356loPI   C4B 5696   0.057   2.140   8.404 -0.0245 -0.0526 -0.2065
  357loPI    C1 5697   0.292  13.251  10.729 -0.0241  0.1107 -0.0198
  357loPI    C2 5698   0.101  13.045  11.013  0.0390 -0.1155 -0.1391
  357loPI    C3 5699  -0.060  13.381  10.868 -0.0619 -0.0754  0.0611
  357loPI   PO4 5700   0.355  13.088  10.527  0.1395  0.0304 -0.4946
  357loPI   GL1 5701   0.165  13.178  10.174 -0.0956  0.0507 -0.0634
  357loPI   GL2 5702   0.174  13.493   9.963 -0.1810  0.2558  0.1603
  357loPI   C1A 5703   0.321  13.061   9.803  0.1192  0.0435 -0.1794
  357loPI   C2A 5704   0.381  12.999   9.383 -0.1009 -0.2984 -0.1607
  357loPI   C3A 5705   0.472  12.905   9.052  0.2026 -0.1059  0.2485
  357loPI   C4A 5706   0.404  12.900   8.652  0.2571 -0.2438 -0.0922
  357loPI   C5A 5707   0.347  12.979   8.142  0.2731 -0.2832  0.1859
  357loPI   C6A 5708   0.431  12.790   7.803 -0.2006 -0.0291 -0.0651
  357loPI   C1B 5709   0.182  13.499   9.531 -0.1210  0.0894 -0.1144
  357loPI   C2B 5710   0.194  13.418   9.061  0.0120  0.3590 -0.3562
  357loPI   C3B 5711   0.243  13.413   8.675  0.0975  0.0493 -0.1425
  357loPI   C4B 5712   0.136  13.387   8.297  0.0339  0.1657  0.2278
  358loPI    C1 5713   9.370   6.779  10.067 -0.1328 -0.0894  0.0100
  358loPI    C2 5714   9.643   6.871  10.345 -0.1514 -0.1516  0.0489
  358loPI    C3 5715   9.563   6.488  10.263  0.0058 -0.1349 -0.1911
  358loPI   PO4 5716   9.533   7.011   9.851  0.4169  0.2383 -0.2128
  358loPI   GL1 5717   9.432   7.026   9.353 -0.2465  0.0883 -0.1205
  358loPI   GL2 5718   9.656   7.263   9.287  0.2150 -0.1999 -0.1157
  358loPI   C1A 5719   9.772   6.831   9.010  0.0294  0.1363 -0.0038
  358loPI   C2A 5720   9.957   6.786   8.652  0.2082  0.0663  0.0823
  358loPI   C3A 5721  10.036   6.744   8.228  0.0729  0.0314 -0.3022
  358loPI   C4A 5722  10.165   6.702   7.831 -0.1658 -0.2066  0.0636
  358loPI   C5A 5723  10.333   6.417   7.553 -0.3356  0.0786 -0.2284
  358loPI   C6A 5724  10.252   6.002   7.431  0.0500 -0.0049 -0.2747
  358loPI   C1B 5725   9.424   7.444   8.907  0.3055  0.3328 -0.2463
  358loPI   C2B 5726   9.368   7.436   8.411  0.2531 -0.1542 -0.0146
  358loPI   C3B 5727   9.296   7.411   7.907  0.1788  0.2341  0.2193
  358loPI   C4B 5728   9.075   7.408   7.490 -0.1901 -0.1149 -0.0812
  359loPI    C1 5729   5.071  16.803  11.237  0.0642 -0.1744 -0.0498
  359loPI    C2 5730   5.104  17.177  11.375 -0.0508 -0.0731 -0.2908
  359loPI    C3 5731   4.888  16.908  11.577  0.0410 -0.0135 -0.1111
  359loPI   PO4 5732   5.008  16.819  10.984  0.0811 -0.2383  0.0202
  359loPI   GL1 5733   4.789  16.591  10.698  0.0302  0.0796  0.4035
  359loPI   GL2 5734   5.053  16.562  10.546 -0.0699  0.0420 -0.0755
  359loPI   C1A 5735   4.771  16.862  10.268 -0.0426 -0.0066  0.3181
  359loPI   C2A 5736   4.792  16.872   9.783  0.5655  0.1659 -0.3794
  359loPI   C3A 5737   4.705  16.870   9.343 -0.1039  0.1086  0.0686
  359loPI   C4A 5738   4.696  16.908   8.933  0.2578  0.1802 -0.3027
  359loPI   C5A 5739   4.757  16.733   8.481 -0.1686 -0.2167  0.0360
  359loPI   C6A 5740   5.001  16.311   8.358  0.1454  0.3650  0.0575
  359loPI   C1B 5741   4.883  16.360  10.122  0.1382 -0.2019 -0.3310
  359loPI   C2B 5742   4.885  16.382   9.650 -0.1075 -0.5677 -0.1883
  359loPI   C3B 5743   4.919  16.442   9.265  0.4020  0.4010 -0.0946
  359loPI   C4B 5744   4.931  16.447   8.843 -0.0034 -0.1585  0.0132
  360loPI    C1 5745  11.335  18.291  10.786 -0.0527 -0.1674  0.0365
  360loPI    C2 5746  11.295  18.059  11.109 -0.2963  0.1039  0.2060
  360loPI    C3 5747  11.223  18.452  11.134 -0.0162  0.1804 -0.1077
  360loPI   PO4 5748  11.475  18.137  10.665  0.1370 -0.1469 -0.1009
  360loPI   GL1 5749  11.524  18.169  10.247  0.0496 -0.0481  0.2758
  360loPI   GL2 5750  11.768  18.315  10.135  0.3405 -0.2152  0.2619
  360loPI   C1A 5751  11.408  18.057   9.844 -0.2766  0.3057 -0.1585
  360loPI   C2A 5752  11.331  17.922   9.476 -0.1781 -0.3184 -0.2358
  360loPI   C3A 5753  11.143  17.952   9.100 -0.4194  0.1728  0.4600
  360loPI   C4A 5754  11.117  17.914   8.648 -0.1563  0.0191 -0.3840
  360loPI   C5A 5755  11.187  17.799   8.334 -0.2294  0.1085 -0.1521
  360loPI   C6A 5756  11.224  17.687   7.949  0.2340  0.0871  0.0405
  360loPI   C1B 5757  11.707  18.463   9.801 -0.0231  0.1746 -0.2457
  360loPI   C2B 5758  11.514  18.375   9.355 -0.2163  0.0654 -0.1995
  360loPI   C3B 5759  11.522  18.226   8.920 -0.1185 -0.1814 -0.0659
  360loPI   C4B 5760  11.385  18.247   8.404 -0.0003 -0.2374 -0.4254
  361loPI    C1 5761   1.605   3.864  10.440 -0.0952 -0.3700 -0.2037
  361loPI    C2 5762   1.764   3.710  10.773 -0.0373  0.0221 -0.0445
  361loPI    C3 5763   1.394   3.862  10.780 -0.0584 -0.0222 -0.1750
  361loPI   PO4 5764   1.833   4.026  10.369 -0.0513 -0.1768 -0.1006
  361loPI   GL1 5765   2.053   3.781  10.078 -0.0344  0.1748  0.0969
  361loPI   GL2 5766   1.735   3.698   9.970 -0.1173  0.1536 -0.2908
  361loPI   C1A 5767   1.972   3.816   9.550 -0.1271 -0.1202 -0.2564
  361loPI   C2A 5768   1.915   3.849   9.170 -0.0801  0.4615 -0.2264
  361loPI   C3A 5769   2.118   3.917   8.747 -0.0814  0.0385 -0.5543
  361loPI   C4A 5770   2.135   4.080   8.400 -0.0347  0.0524  0.1691
  361loPI   C5A 5771   2.195   4.150   7.965  0.0383  0.3454  0.1499
  361loPI   C6A 5772   2.276   3.907   7.619  0.1133  0.0393  0.2897
  361loPI   C1B 5773   1.653   3.382   9.558 -0.1220 -0.2705  0.1368
  361loPI   C2B 5774   1.573   3.452   9.159  0.0557  0.2784 -0.1522
  361loPI   C3B 5775   1.644   3.411   8.638 -0.2423 -0.1585  0.1833
  361loPI   C4B 5776   1.566   3.410   8.224  0.0231  0.3102 -0.4667
  362loPI    C1 5777  12.550   9.398  10.071 -0.0051 -0.0026 -0.1174
  362loPI    C2 5778  12.769   9.078  10.171  0.1259  0.1393  0.0559
  362loPI    C3 5779  12.402   9.125  10.324  0.1716  0.1553  0.1614
  362loPI   PO4 5780  12.505   9.307   9.776  0.2314  0.0606 -0.1213
  362loPI   GL1 5781  12.403   9.580   9.482 -0.2900 -0.2117  0.2708
  362loPI   GL2 5782  12.684   9.708   9.287  0.0098  0.1870  0.0982
  362loPI   C1A 5783  12.187   9.816   9.198 -0.0765 -0.2597 -0.2032
  362loPI   C2A 5784  12.118   9.963   8.738 -0.0353 -0.1890  0.2941
  362loPI   C3A 5785  11.934   9.917   8.332  0.2249  0.0421  0.1085
  362loPI   C4A 5786  11.757   9.855   8.026 -0.0708 -0.0383  0.2484
  362loPI   C5A 5787  11.425  10.013   7.850 -0.1254  0.1413 -0.0032
  362loPI   C6A 5788  11.292   9.902   7.379 -0.0174 -0.0524  0.0786
  362loPI   C1B 5789  12.586   9.630   8.911  0.0842  0.1947 -0.2070
  362loPI   C2B 5790  12.480   9.615   8.445 -0.1204  0.2010  0.0671
  362loPI   C3B 5791  12.434   9.800   8.086  0.2886  0.1694  0.1028
  362loPI   C4B 5792  12.224  10.049   7.889  0.1432  0.1502 -0.2801
  363loPI    C1 5793   6.976  11.453  10.826 -0.0167  0.1727 -0.1159
  363loPI    C2 5794   6.719  11.432  11.132  0.0981  0.1795 -0.0181
  363loPI    C3 5795   7.088  11.283  11.170  0.0729  0.0680 -0.1962
  363loPI   PO4 5796   6.769  11.425  10.593 -0.1249 -0.3220 -0.2030
  363loPI   GL1 5797   6.653  11.371  10.309 -0.0409 -0.2521  0.0630
  363loPI   GL2 5798   6.783  11.164  10.005  0.0641 -0.2885  0.1123
  363loPI   C1A 5799   6.553  11.639   9.994 -0.3191  0.0511  0.3077
  363loPI   C2A 5800   6.793  11.551   9.642  0.2152 -0.0652  0.0490
  363loPI   C3A 5801   6.694  11.577   9.249 -0.0090  0.1052  0.1866
  363loPI   C4A 5802   6.373  11.625   8.950 -0.0277 -0.4438 -0.0359
  363loPI   C5A 5803   6.190  11.785   8.648  0.0950  0.1641  0.1400
  363loPI   C6A 5804   5.667  11.807   8.557 -0.1134  0.4358  0.0956
  363loPI   C1B 5805   6.831  11.064   9.600  0.1818  0.1868  0.1936
  363loPI   C2B 5806   7.094  10.995   9.159 -0.0618 -0.0251  0.2078
  363loPI   C3B 5807   7.280  11.284   8.816 -0.0915  0.3837  0.2393
  363loPI   C4B 5808   7.501  11.458   8.585 -0.3426 -0.0483  0.1541
  364loPI    C1 5809  15.822   8.069   9.929  0.0420 -0.0229  0.2005
  364loPI    C2 5810  15.644   7.936   9.596  0.1438 -0.0325  0.1494
  364loPI    C3 5811  15.499   7.835   9.954  0.1233 -0.1462  0.1092
  364loPI   PO4 5812  16.064   8.086   9.867  0.1529  0.0183  0.1873
  364loPI   GL1 5813  16.269   8.243   9.507 -0.2522 -0.0698  0.3683
  364loPI   GL2 5814  16.484   8.037   9.547 -0.0997  0.0600 -0.3030
  364loPI   C1A 5815  16.352   8.357   9.086 -0.2080  0.2311 -0.0132
  364loPI   C2A 5816  16.359   8.170   8.615  0.0685  0.0664 -0.0780
  364loPI   C3A 5817  16.343   8.244   8.179  0.1390  0.2002  0.5841
  364loPI   C4A 5818  16.542   8.396   7.800 -0.1156 -0.1559 -0.0791
  364loPI   C5A 5819  16.493   8.421   7.375 -0.1171  0.2094  0.0849
  364loPI   C6A 5820  16.315   8.760   7.186  0.0605  0.2993 -0.4758
  364loPI   C1B 5821  16.453   7.813   9.166 -0.1331  0.2977 -0.0057
  364loPI   C2B 5822  16.475   7.676   8.822 -0.2160  0.1554  0.0257
  364loPI   C3B 5823  16.438   7.738   8.393 -0.0179 -0.0674 -0.1900
  364loPI   C4B 5824  16.481   7.838   7.909 -0.0524  0.0129  0.2671
  365loPI    C1 5825  10.637  16.014  10.828 -0.0155  0.0797  0.0930
  365loPI    C2 5826  11.003  15.942  10.682 -0.2347 -0.2511 -0.3138
  365loPI    C3 5827  10.893  15.785  11.034 -0.0245 -0.2414 -0.2427
  365loPI   PO4 5828  10.528  16.175  10.534 -0.3431  0.1926 -0.0164
  365loPI   GL1 5829  10.726  16.237  10.098 -0.2197  0.1970 -0.2249
  365loPI   GL2 5830  10.492  16.226   9.949 -0.1682  0.2112 -0.1321
  365loPI   C1A 5831  11.043  16.159   9.818 -0.3531 -0.1370  0.5205
  365loPI   C2A 5832  11.216  16.115   9.394 -0.1912 -0.0474  0.2457
  365loPI   C3A 5833  11.071  16.087   8.989 -0.1799 -0.2731 -0.1848
  365loPI   C4A 5834  10.986  15.978   8.571 -0.0483  0.0772 -0.0240
  365loPI   C5A 5835  10.861  15.984   8.140 -0.0042 -0.1970 -0.0517
  365loPI   C6A 5836  10.705  15.984   7.682 -0.4116 -0.3131 -0.1605
  365loPI   C1B 5837  10.235  16.307   9.648  0.2100  0.0886  0.1064
  365loPI   C2B 5838  10.133  16.421   9.256 -0.2350  0.2674  0.1326
  365loPI   C3B 5839  10.240  16.594   8.832  0.1375 -0.3065 -0.4145
  365loPI   C4B 5840  10.196  16.565   8.364 -0.0338 -0.3176  0.0094
  366loPI    C1 5841  17.896   3.866  10.874 -0.0150  0.0441  0.0640
  366loPI    C2 5842  18.204   3.708  11.075 -0.0587 -0.1520 -0.0218
  366loPI    C3 5843  17.830   3.591  11.157 -0.0940 -0.0708 -0.0649
  366loPI   PO4 5844  18.028   3.832  10.574 -0.0975  0.0155 -0.0270
  366loPI   GL1 5845  17.806   3.710  10.172  0.1518  0.0056  0.1047
  366loPI   GL2 5846  17.480   3.523  10.176 -0.0920  0.3324  0.1464
  366loPI   C1A 5847  17.738   3.440   9.698  0.4602 -0.2176  0.0819
  366loPI   C2A 5848  17.798   3.291   9.382  0.3601 -0.0151  0.1287
  366loPI   C3A 5849  17.644   3.426   9.053  0.1623 -0.1022  0.1091
  366loPI   C4A 5850  17.602   3.343   8.627 -0.3131  0.1012  0.0115
  366loPI   C5A 5851  17.627   3.563   8.244  0.2261  0.0554  0.2227
  366loPI   C6A 5852  17.479   3.619   7.830 -0.1365 -0.2498 -0.0499
  366loPI   C1B 5853  17.552   3.084  10.038  0.3593  0.5968  0.0726
  366loPI   C2B 5854  17.347   2.978   9.601  0.0244 -0.0653  0.4877
  366loPI   C3B 5855  17.403   3.002   9.195 -0.4090  0.1192 -0.0889
  366loPI   C4B 5856  17.324   2.979   8.834  0.0369 -0.1859  0.2779
  367loPI    C1 5857   0.528   5.149  10.340  0.1010 -0.1848 -0.0001
  367loPI    C2 5858   0.223   5.280  10.117  0.1553 -0.1246 -0.0395
  367loPI    C3 5859   0.232   5.359  10.509 -0.0115 -0.3516  0.0123
  367loPI   PO4 5860   0.589   4.953  10.262  0.0247  0.0356 -0.2761
  367loPI   GL1 5861   0.273   4.849   9.883 -0.1501 -0.0396 -0.5412
  367loPI   GL2 5862   0.492   5.116   9.731 -0.0043 -0.0160  0.0855
  367loPI   C1A 5863   0.347   4.680   9.482  0.0117  0.1029  0.0065
  367loPI   C2A 5864   0.384   4.668   9.120  0.4644 -0.4239  0.1482
  367loPI   C3A 5865   0.297   4.584   8.753 -0.3791  0.1198 -0.0951
  367loPI   C4A 5866   0.277   4.536   8.329 -0.2951  0.2817 -0.0390
  367loPI   C5A 5867   0.358   4.333   7.914  0.3874  0.3297 -0.1031
  367loPI   C6A 5868   0.465   4.349   7.430  0.0368  0.1214 -0.1685
  367loPI   C1B 5869   0.273   5.113   9.316 -0.2065  0.0776  0.0195
  367loPI   C2B 5870   0.239   5.069   8.812 -0.1215 -0.0050 -0.0210
  367loPI   C3B 5871   0.154   5.052   8.437 -0.4440  0.0658 -0.2307
  367loPI   C4B 5872   0.085   5.359   8.197 -0.1476 -0.2874  0.0337
  368loPI    C1 5873  18.186  13.869  10.752  0.0425 -0.0738 -0.2635
  368loPI    C2 5874  17.954  13.590  10.586 -0.0111 -0.2682  0.1285
  368loPI    C3 5875  17.928  13.664  10.978 -0.0661  0.3578  0.0158
  368loPI   PO4 5876  18.228  14.044  10.429 -0.0363  0.0235 -0.3475
  368loPI   GL1 5877  18.579  14.052  10.168  0.1743 -0.0127  0.1326
  368loPI   GL2 5878  18.535  14.414  10.214 -0.1329 -0.0752 -0.0864
  368loPI   C1A 5879  18.929  13.947   9.853 -0.0689  0.1909 -0.0379
  368loPI   C2A 5880  19.073  13.883   9.394 -0.2757 -0.1629 -0.3079
  368loPI   C3A 5881  19.011  13.807   8.988  0.1941  0.0470 -0.3781
  368loPI   C4A 5882  18.981  13.748   8.545  0.1607  0.2058  0.4018
  368loPI   C5A 5883  18.970  13.966   8.229 -0.2630  0.1834 -0.0883
  368loPI   C6A 5884  19.110  14.353   7.945 -0.0690 -0.1979  0.0372
  368loPI   C1B 5885  18.629  14.398   9.787 -0.0413 -0.0560 -0.0666
  368loPI   C2B 5886  18.789  14.333   9.365 -0.0096  0.1840  0.2334
  368loPI   C3B 5887  18.846  14.278   8.893  0.4200 -0.0880 -0.3657
  368loPI   C4B 5888  18.744  14.330   8.384  0.0064  0.0909 -0.0738
  369loPI    C1 5889  12.054   9.893  10.416 -0.0694  0.1148  0.0476
  369loPI    C2 5890  12.063   9.495  10.460 -0.0615  0.1269  0.1590
  369loPI    C3 5891  12.404   9.704  10.460 -0.0688  0.1387  0.1492
  369loPI   PO4 5892  11.854   9.981  10.125  0.1614  0.4195  0.1594
  369loPI   GL1 5893  11.767  10.044   9.777 -0.1664 -0.0093 -0.2527
  369loPI   GL2 5894  11.488  10.164   9.750  0.1074 -0.0651 -0.0462
  369loPI   C1A 5895  11.755   9.777   9.315  0.0624 -0.2613  0.0609
  369loPI   C2A 5896  11.723   9.688   8.859  0.0530 -0.0621 -0.4438
  369loPI   C3A 5897  11.632   9.495   8.556 -0.0101  0.2652  0.2594
  369loPI   C4A 5898  11.491   9.368   8.095  0.1115 -0.1339 -0.4244
  369loPI   C5A 5899  11.312   9.158   7.758 -0.1375  0.5287  0.0518
  369loPI   C6A 5900  10.998   8.853   7.601  0.4441 -0.0065  0.2658
  369loPI   C1B 5901  11.503  10.245   9.377 -0.1076 -0.0489  0.4114
  369loPI   C2B 5902  11.732  10.205   8.969 -0.0208 -0.0040  0.0186
  369loPI   C3B 5903  11.602  10.276   8.479  0.2739 -0.2950  0.0473
  369loPI   C4B 5904  11.323  10.445   8.140  0.0459 -0.1002  0.0870
  370loPI    C1 5905   5.993   7.184  10.221  0.1457 -0.1429  0.0844
  370loPI    C2 5906   5.685   7.374  10.392  0.2770  0.0922  0.0644
  370loPI    C3 5907   6.051   7.402  10.552  0.3458  0.0711 -0.0878
  370loPI   PO4 5908   5.973   7.297   9.884  0.0784 -0.0354  0.0564
  370loPI   GL1 5909   6.001   7.330   9.470  0.0438  0.1929 -0.0299
  370loPI   GL2 5910   6.043   7.679   9.523 -0.0023 -0.0223  0.3803
  370loPI   C1A 5911   5.974   7.188   9.076 -0.3649  0.0822 -0.1808
  370loPI   C2A 5912   5.941   7.118   8.618 -0.0260  0.2525 -0.0253
  370loPI   C3A 5913   5.957   7.332   8.135 -0.3024 -0.1527  0.1226
  370loPI   C4A 5914   5.957   7.354   7.633 -0.4827  0.2521 -0.2187
  370loPI   C5A 5915   5.840   7.680   7.404 -0.2896  0.0132 -0.3905
  370loPI   C6A 5916   5.931   8.003   7.219  0.2606 -0.0428  0.0334
  370loPI   C1B 5917   6.069   7.822   9.167  0.0153 -0.0539 -0.0353
  370loPI   C2B 5918   6.100   7.990   8.766 -0.2621  0.0212  0.1375
  370loPI   C3B 5919   6.056   7.953   8.319 -0.0041 -0.0136 -0.0767
  370loPI   C4B 5920   6.031   7.875   7.848 -0.2646 -0.0858  0.1664
  371loPI    C1 5921   9.611  15.441  10.855 -0.1220 -0.0847 -0.0589
  371loPI    C2 5922   9.688  15.829  10.797  0.2126 -0.1340  0.0360
  371loPI    C3 5923   9.763  15.661  11.152 -0.2196 -0.2196  0.0923
  371loPI   PO4 5924   9.645  15.366  10.628 -0.1287 -0.2225  0.0265
  371loPI   GL1 5925   9.822  15.353  10.185 -0.2053 -0.0373 -0.0488
  371loPI   GL2 5926   9.754  15.701  10.261 -0.0086 -0.1686 -0.2153
  371loPI   C1A 5927   9.801  15.588   9.769  0.2432  0.1520 -0.0312
  371loPI   C2A 5928   9.632  15.645   9.345  0.1206 -0.2797  0.0905
  371loPI   C3A 5929   9.626  15.731   8.768  0.1970 -0.0400 -0.0528
  371loPI   C4A 5930   9.636  15.774   8.424 -0.1749  0.0664  0.0261
  371loPI   C5A 5931   9.812  15.916   8.107  0.0024 -0.0248 -0.1046
  371loPI   C6A 5932  10.064  16.191   8.048  0.0983  0.0586 -0.0762
  371loPI   C1B 5933   9.448  15.862  10.028 -0.0049 -0.0324  0.2436
  371loPI   C2B 5934   9.244  15.800   9.585 -0.1682 -0.0075 -0.1952
  371loPI   C3B 5935   9.149  15.763   9.141 -0.0588 -0.2318 -0.0902
  371loPI   C4B 5936   9.056  15.781   8.811 -0.3078  0.0130  0.3367
  372loPI    C1 5937   7.852   7.056   9.355 -0.2393  0.0264 -0.1706
  372loPI    C2 5938   7.798   7.451   9.324  0.1200  0.0760 -0.2085
  372loPI    C3 5939   7.744   7.269   9.676 -0.0969  0.1482 -0.2027
  372loPI   PO4 5940   8.109   7.069   9.282  0.0861 -0.1191  0.0298
  372loPI   GL1 5941   8.197   6.964   8.972  0.1151  0.0760 -0.1201
  372loPI   GL2 5942   8.534   6.847   9.084  0.1140  0.3271  0.3055
  372loPI   C1A 5943   7.775   7.244   8.815 -0.3434  0.0738 -0.1820
  372loPI   C2A 5944   7.814   7.413   8.569  0.3425 -0.1417 -0.0100
  372loPI   C3A 5945   7.917   7.592   8.119  0.2011  0.1449 -0.2090
  372loPI   C4A 5946   7.870   7.789   7.653 -0.5791 -0.2304  0.2141
  372loPI   C5A 5947   7.744   7.646   7.207 -0.1890 -0.0157  0.0977
  372loPI   C6A 5948   7.502   7.729   6.831  0.0486 -0.0739 -0.3164
  372loPI   C1B 5949   8.611   6.785   8.591 -0.1887  0.1400 -0.0714
  372loPI   C2B 5950   8.448   6.820   8.202 -0.0077  0.0075 -0.3456
  372loPI   C3B 5951   8.203   6.863   7.719  0.2617  0.1240 -0.0086
  372loPI   C4B 5952   8.058   6.723   7.390  0.1370 -0.0579 -0.2957
  373loPI    C1 5953   5.349  17.368  11.017  0.1930  0.0770  0.0350
  373loPI    C2 5954   5.156  17.707  11.104 -0.0121 -0.0342  0.0189
  373loPI    C3 5955   5.550  17.680  11.166 -0.0119  0.1722  0.1157
  373loPI   PO4 5956   5.240  17.266  10.885  0.0405  0.1479  0.0142
  373loPI   GL1 5957   5.144  17.160  10.537 -0.0716 -0.1766  0.4003
  373loPI   GL2 5958   5.330  16.921  10.303  0.1898 -0.1244 -0.0482
  373loPI   C1A 5959   5.013  17.282  10.052  0.2768 -0.6088  0.5149
  373loPI   C2A 5960   5.040  17.259   9.662  0.4631 -0.3056  0.1811
  373loPI   C3A 5961   5.002  17.261   9.168  0.1254  0.2358  0.3439
  373loPI   C4A 5962   4.951  17.274   8.734  0.1765 -0.2410 -0.0774
  373loPI   C5A 5963   5.129  17.167   8.420  0.3409 -0.0299 -0.1293
  373loPI   C6A 5964   5.008  17.011   8.090  0.2575 -0.0601  0.0464
  373loPI   C1B 5965   5.231  16.719   9.897  0.0617  0.1323  0.1131
  373loPI   C2B 5966   5.263  16.833   9.466 -0.1409 -0.0078 -0.0293
  373loPI   C3B 5967   5.213  16.800   9.110  0.2524  0.1978 -0.2308
  373loPI   C4B 5968   5.361  16.745   8.596 -0.2130  0.0860 -0.2221
  374loPI    C1 5969  14.986  16.049  10.472  0.1025 -0.0341  0.2935
  374loPI    C2 5970  14.865  15.807  10.177 -0.1871  0.1661  0.2440
  374loPI    C3 5971  14.824  15.693  10.559  0.1020 -0.0536  0.2131
  374loPI   PO4 5972  15.215  16.139  10.307  0.2847 -0.0126 -0.1452
  374loPI   GL1 5973  15.152  16.079   9.842 -0.1409 -0.0819  0.0675
  374loPI   GL2 5974  14.810  16.117   9.775  0.0261 -0.0231  0.0200
  374loPI   C1A 5975  15.306  16.340   9.646 -0.1887 -0.0084 -0.1006
  374loPI   C2A 5976  15.320  16.340   9.307  0.0765  0.0752 -0.1941
  374loPI   C3A 5977  15.298  16.284   8.847  0.1108  0.1837  0.4144
  374loPI   C4A 5978  15.430  15.996   8.578 -0.0428 -0.0053  0.1254
  374loPI   C5A 5979  15.571  15.612   8.356 -0.2389 -0.1638  0.0669
  374loPI   C6A 5980  15.268  15.274   8.241  0.1373 -0.0084 -0.0258
  374loPI   C1B 5981  14.882  16.080   9.371  0.2781 -0.0122  0.1642
  374loPI   C2B 5982  14.886  15.949   8.920 -0.0294 -0.1510 -0.3171
  374loPI   C3B 5983  14.959  16.107   8.494 -0.0288 -0.1049  0.2979
  374loPI   C4B 5984  15.098  16.371   8.215  0.1468 -0.0834 -0.0974
  375loPI    C1 5985   0.502  13.823  10.458 -0.1888 -0.2495 -0.2219
  375loPI    C2 5986   0.285  13.807  10.794  0.3105 -0.1544  0.1153
  375loPI    C3 5987   0.336  14.156  10.606  0.0304 -0.2078 -0.0647
  375loPI   PO4 5988   0.630  13.568  10.432 -0.0196  0.5976 -0.3085
  375loPI   GL1 5989   0.736  13.379  10.087  0.0904  0.2452  0.2552
  375loPI   GL2 5990   0.670  13.050  10.147  0.1058  0.0151 -0.0121
  375loPI   C1A 5991   0.733  13.472   9.729  0.2932 -0.1046 -0.1887
  375loPI   C2A 5992   0.711  13.427   9.276 -0.2054  0.1384 -0.0001
  375loPI   C3A 5993   0.728  13.305   8.856  0.1099 -0.0039  0.1242
  375loPI   C4A 5994   0.733  13.314   8.479 -0.2565 -0.0338  0.0031
  375loPI   C5A 5995   0.835  13.077   8.138 -0.2981  0.0641 -0.1540
  375loPI   C6A 5996   0.720  12.625   8.196  0.0838  0.0129  0.3601
  375loPI   C1B 5997   0.940  12.991   9.806  0.3286  0.4633  0.0449
  375loPI   C2B 5998   0.912  13.000   9.363  0.3181  0.2723  0.0683
  375loPI   C3B 5999   1.012  12.925   8.971 -0.2747  0.0124  0.0329
  375loPI   C4B 6000   0.941  12.867   8.584  0.2863  0.1425 -0.1172
  376loPI    C1 6001   7.147   6.055  10.366  0.0493  0.0394  0.0350
  376loPI    C2 6002   6.836   5.915  10.575 -0.0636  0.2578  0.0168
  376loPI    C3 6003   6.969   6.287  10.639  0.2661  0.1285  0.1025
  376loPI   PO4 6004   7.033   5.994  10.048 -0.0958  0.1525  0.0897
  376loPI   GL1 6005   7.000   6.208   9.659 -0.2408  0.2785  0.1923
  376loPI   GL2 6006   6.831   6.010   9.582 -0.1019 -0.0010 -0.0032
  376loPI   C1A 6007   7.339   6.434   9.424  0.1795  0.1238 -0.2211
  376loPI   C2A 6008   7.581   6.652   9.126  0.0392  0.0890 -0.0471
  376loPI   C3A 6009   7.819   6.690   8.795  0.1076 -0.0561  0.1469
  376loPI   C4A 6010   7.983   6.968   8.479 -0.2664  0.0733  0.0437
  376loPI   C5A 6011   7.847   7.006   8.038  0.1777 -0.2331 -0.1393
  376loPI   C6A 6012   7.813   7.171   7.727 -0.0092 -0.0257 -0.0808
  376loPI   C1B 6013   6.902   6.036   9.126 -0.1178 -0.0643 -0.0328
  376loPI   C2B 6014   7.160   6.357   8.926  0.4720 -0.0298 -0.0047
  376loPI   C3B 6015   7.316   6.514   8.546 -0.0458 -0.1110 -0.0236
  376loPI   C4B 6016   7.222   6.794   8.333  0.0219  0.1166 -0.1160
  377loPI    C1 6017  10.806  11.908  10.470 -0.1668  0.3764  0.0281
  377loPI    C2 6018  11.021  11.666  10.705 -0.4211  0.1710  0.0540
  377loPI    C3 6019  11.020  12.060  10.771 -0.0440  0.1780  0.0433
  377loPI   PO4 6020  10.829  11.911  10.264 -0.2235  0.0866 -0.4225
  377loPI   GL1 6021  10.468  12.047  10.020 -0.3329  0.1052  0.0842
  377loPI   GL2 6022  10.607  12.367  10.028 -0.0359  0.1477 -0.3650
  377loPI   C1A 6023  10.264  12.086   9.615  0.1275 -0.0935 -0.1547
  377loPI   C2A 6024  10.495  12.196   9.219 -0.0758  0.1718 -0.0890
  377loPI   C3A 6025  10.799  12.018   8.950 -0.1327 -0.0115 -0.0619
  377loPI   C4A 6026  10.778  12.057   8.605 -0.0444  0.0490  0.2817
  377loPI   C5A 6027  10.817  11.791   8.265  0.0350  0.0408 -0.1227
  377loPI   C6A 6028  11.001  11.867   7.817 -0.1481  0.0289  0.1927
  377loPI   C1B 6029  10.561  12.581   9.664  0.0458 -0.1043 -0.0906
  377loPI   C2B 6030  10.476  12.781   9.263 -0.0191  0.0073 -0.1787
  377loPI   C3B 6031  10.482  12.860   8.864 -0.0007  0.1883 -0.0274
  377loPI   C4B 6032  10.378  12.919   8.485 -0.0639 -0.1070  0.2444
  378loPI    C1 6033  12.418   4.481  10.080 -0.1748  0.1218  0.0627
  378loPI    C2 6034  12.671   4.790  10.104 -0.0001 -0.0154  0.0063
  378loPI    C3 6035  12.414   4.718  10.402 -0.1794  0.3013 -0.0675
  378loPI   PO4 6036  12.672   4.271  10.006 -0.0596 -0.0251  0.3014
  378loPI   GL1 6037  12.729   4.166   9.598  0.1963 -0.1884 -0.0402
  378loPI   GL2 6038  12.736   3.945   9.519  0.0641 -0.4399  0.2162
  378loPI   C1A 6039  12.721   4.504   9.319  0.1175 -0.1040 -0.2443
  378loPI   C2A 6040  12.817   4.675   8.931 -0.0103 -0.1910  0.2627
  378loPI   C3A 6041  12.885   4.757   8.498 -0.1652  0.1065 -0.0885
  378loPI   C4A 6042  12.681   4.872   8.052 -0.0858 -0.1413 -0.1406
  378loPI   C5A 6043  12.346   4.741   7.763  0.1249 -0.0846 -0.0427
  378loPI   C6A 6044  12.138   4.297   7.536  0.0934  0.1039 -0.4145
  378loPI   C1B 6045  12.797   4.094   9.047  0.1488 -0.0760  0.1867
  378loPI   C2B 6046  12.891   4.214   8.677 -0.0056  0.0308 -0.1060
  378loPI   C3B 6047  12.758   4.259   8.281  0.2246 -0.2421  0.1279
  378loPI   C4B 6048  12.625   4.109   7.955  0.0760  0.1835  0.0159
  379loPI    C1 6049  16.833   7.879  10.144 -0.0147 -0.0531 -0.0384
  379loPI    C2 6050  16.787   7.552  10.371  0.2775 -0.0327  0.0538
  379loPI    C3 6051  17.039   7.842  10.485  0.1460  0.1494 -0.1114
  379loPI   PO4 6052  16.854   7.768   9.898  0.0072  0.1603 -0.2578
  379loPI   GL1 6053  16.923   7.739   9.446 -0.0148 -0.1461 -0.2069
  379loPI   GL2 6054  17.186   7.955   9.491  0.1426  0.1462 -0.2345
  379loPI   C1A 6055  16.978   7.664   9.014 -0.0623  0.0011 -0.3743
  379loPI   C2A 6056  16.968   7.641   8.600  0.0801  0.0564  0.1086
  379loPI   C3A 6057  16.939   7.557   8.191 -0.0749  0.2237 -0.0167
  379loPI   C4A 6058  17.118   7.636   7.822 -0.0439  0.0906  0.2084
  379loPI   C5A 6059  17.152   7.588   7.465 -0.0312 -0.2753  0.1782
  379loPI   C6A 6060  17.478   7.589   7.157  0.1307 -0.3775  0.0427
  379loPI   C1B 6061  17.273   8.056   9.098  0.0792 -0.1333 -0.1268
  379loPI   C2B 6062  17.334   8.106   8.715  0.5191  0.2625  0.0073
  379loPI   C3B 6063  17.315   7.937   8.259  0.2277 -0.2076  0.1902
  379loPI   C4B 6064  17.435   7.543   8.164 -0.3819 -0.1601 -0.3528
  380loPI    C1 6065  10.004   5.918   9.952 -0.1250 -0.0899 -0.0597
  380loPI    C2 6066   9.774   6.239   9.890 -0.1724 -0.1256 -0.0693
  380loPI    C3 6067   9.678   5.977  10.176 -0.1404 -0.1376 -0.0695
  380loPI   PO4 6068  10.147   5.889   9.707 -0.2026 -0.2239 -0.0342
  380loPI   GL1 6069   9.955   5.844   9.302 -0.0718  0.0698 -0.3296
  380loPI   GL2 6070   9.756   6.079   9.412 -0.1698  0.0681 -0.0242
  380loPI   C1A 6071   9.619   5.851   9.001  0.2904  0.3738  0.1925
  380loPI   C2A 6072   9.608   5.818   8.543  0.0827  0.0411  0.0356
  380loPI   C3A 6073   9.603   5.892   8.125  0.0037  0.1300  0.2796
  380loPI   C4A 6074   9.729   5.822   7.796  0.3661 -0.0766 -0.0742
  380loPI   C5A 6075   9.749   5.865   7.368  0.2244  0.2601 -0.0017
  380loPI   C6A 6076   9.867   6.130   7.031  0.2434 -0.1227  0.1099
  380loPI   C1B 6077   9.648   6.368   9.012  0.3898 -0.2457  0.0544
  380loPI   C2B 6078   9.496   6.437   8.657 -0.0902  0.0292  0.0546
  380loPI   C3B 6079   9.658   6.412   8.348  0.2147 -0.1505  0.1219
  380loPI   C4B 6080   9.680   6.565   7.945 -0.4671  0.2482 -0.0034
  381loPI    C1 6081   2.834   4.240  10.057  0.3091  0.0392 -0.0390
  381loPI    C2 6082   3.049   3.994  10.288  0.0197 -0.0493  0.1410
  381loPI    C3 6083   3.166   4.373  10.237  0.2569 -0.1163  0.1764
  381loPI   PO4 6084   2.774   4.108   9.878  0.1326 -0.3063  0.1313
  381loPI   GL1 6085   2.764   4.254   9.529 -0.2971 -0.2470  0.0689
  381loPI   GL2 6086   2.904   3.977   9.383 -0.0437  0.3296  0.0769
  381loPI   C1A 6087   2.983   4.425   9.216  0.1667 -0.2653 -0.2195
  381loPI   C2A 6088   2.968   4.123   8.814 -0.3543  0.0703  0.0664
  381loPI   C3A 6089   3.016   3.842   8.555  0.2762  0.1674 -0.2368
  381loPI   C4A 6090   3.190   3.918   8.067 -0.3549  0.1926  0.0381
  381loPI   C5A 6091   3.154   3.522   7.778 -0.1625  0.1029 -0.2758
  381loPI   C6A 6092   3.035   3.190   7.489 -0.1736 -0.0391  0.1383
  381loPI   C1B 6093   2.916   3.683   9.093  0.1321  0.2174 -0.0482
  381loPI   C2B 6094   2.706   3.334   8.885  0.2763 -0.1417 -0.2188
  381loPI   C3B 6095   2.824   3.208   8.417 -0.2121  0.1550  0.0062
  381loPI   C4B 6096   3.098   3.431   8.232  0.2037  0.0025 -0.1513
  382loPI    C1 6097  18.385   4.385  10.634 -0.0415 -0.0263 -0.1942
  382loPI    C2 6098  18.636   4.140  10.826 -0.0703  0.1622  0.0899
  382loPI    C3 6099  18.281   4.229  10.987 -0.2944 -0.0453 -0.2749
  382loPI   PO4 6100  18.355   4.277  10.403  0.2015 -0.3194  0.0081
  382loPI   GL1 6101  18.279   4.066  10.084  0.1291 -0.2034  0.1950
  382loPI   GL2 6102  18.373   3.734  10.232  0.3901 -0.1547  0.0345
  382loPI   C1A 6103  18.120   3.852   9.773  0.1919 -0.2431 -0.1818
  382loPI   C2A 6104  18.008   3.775   9.277  0.1052 -0.1212  0.0055
  382loPI   C3A 6105  17.969   3.836   8.862 -0.1705  0.3172  0.0777
  382loPI   C4A 6106  18.048   3.722   8.435 -0.3728 -0.0309 -0.3012
  382loPI   C5A 6107  18.275   3.719   8.036 -0.0097 -0.2592 -0.1073
  382loPI   C6A 6108  18.604   3.368   7.954  0.0289 -0.1430 -0.1211
  382loPI   C1B 6109  18.538   3.648   9.810 -0.0111 -0.0135 -0.0793
  382loPI   C2B 6110  18.529   3.675   9.422  0.1368  0.4239  0.0898
  382loPI   C3B 6111  18.445   3.718   8.968 -0.0059 -0.2607  0.1130
  382loPI   C4B 6112  18.563   3.601   8.483 -0.1157 -0.1192 -0.0912
  383loPI    C1 6113  11.951   4.033   9.981  0.0472 -0.4392  0.2188
  383loPI    C2 6114  11.938   4.372  10.194  0.1754 -0.2173 -0.1184
  383loPI    C3 6115  11.857   4.022  10.370 -0.2742  0.0190  0.1629
  383loPI   PO4 6116  12.132   4.123   9.784 -0.0105  0.1751  0.1249
  383loPI   GL1 6117  12.200   4.012   9.426 -0.1726 -0.2257  0.4490
  383loPI   GL2 6118  12.026   4.311   9.243  0.0754 -0.1678 -0.0323
  383loPI   C1A 6119  12.313   3.935   9.044 -0.1485 -0.0864 -0.2497
  383loPI   C2A 6120  12.333   3.866   8.554 -0.0436  0.1120 -0.3966
  383loPI   C3A 6121  12.441   3.740   8.215  0.4182 -0.1595  0.0919
  383loPI   C4A 6122  12.648   3.512   7.922 -0.2231 -0.1890  0.3368
  383loPI   C5A 6123  12.502   3.369   7.542 -0.0088  0.2013 -0.1082
  383loPI   C6A 6124  12.611   3.215   7.121 -0.2549 -0.0813 -0.0788
  383loPI   C1B 6125  11.979   4.224   8.869  0.2865 -0.0429  0.1939
  383loPI   C2B 6126  12.025   4.228   8.450 -0.1979  0.0924  0.2289
  383loPI   C3B 6127  12.077   4.161   8.077 -0.1742  0.1176 -0.1126
  383loPI   C4B 6128  12.238   3.808   7.738 -0.0124 -0.3938 -0.3240
  384loPI    C1 6129   4.696   8.749  10.127 -0.0288  0.0974 -0.2921
  384loPI    C2 6130   5.007   8.997  10.170 -0.0627  0.1167 -0.1527
  384loPI    C3 6131   4.753   8.940  10.474 -0.0311 -0.1215 -0.1691
  384loPI   PO4 6132   4.641   8.819   9.882 -0.3057  0.1940  0.1813
  384loPI   GL1 6133   4.428   8.710   9.443 -0.2677  0.1302  0.1673
  384loPI   GL2 6134   4.170   8.799   9.512  0.0731  0.0798  0.0676
  384loPI   C1A 6135   4.413   8.777   9.082  0.0339 -0.1859 -0.1570
  384loPI   C2A 6136   4.372   8.648   8.662 -0.1095 -0.0593 -0.0033
  384loPI   C3A 6137   4.361   8.648   8.162 -0.0988 -0.0557  0.0755
  384loPI   C4A 6138   4.143   8.587   7.833 -0.0682 -0.2118 -0.0707
  384loPI   C5A 6139   3.920   8.321   7.627 -0.2201 -0.0441 -0.1346
  384loPI   C6A 6140   3.838   7.927   7.811 -0.2248  0.2236 -0.0414
  384loPI   C1B 6141   3.942   8.700   9.175 -0.2797  0.3386 -0.1173
  384loPI   C2B 6142   3.882   8.792   8.748 -0.3617  0.1171  0.3103
  384loPI   C3B 6143   3.516   8.965   8.530  0.0287 -0.2541  0.3954
  384loPI   C4B 6144   3.441   9.080   8.159  0.0403  0.3590 -0.0607
  385loPI    C1 6145   6.833   0.082  10.411 -0.1087  0.2006  0.0890
  385loPI    C2 6146   6.990   0.422  10.551  0.0612  0.0494  0.2719
  385loPI    C3 6147   6.688   0.246  10.745 -0.0791  0.1352  0.1340
  385loPI   PO4 6148   6.962   0.026  10.206  0.1656 -0.1378  0.0017
  385loPI   GL1 6149   7.296  -0.152   9.930  0.0094 -0.4044  0.1110
  385loPI   GL2 6150   7.092  -0.061   9.728 -0.0372  0.1995  0.0288
  385loPI   C1A 6151   7.618  -0.118   9.548  0.2834  0.1936  0.0442
  385loPI   C2A 6152   7.517  -0.113   9.059 -0.0570  0.2950 -0.0940
  385loPI   C3A 6153   7.483  -0.209   8.612 -0.1040  0.0065 -0.0883
  385loPI   C4A 6154   7.391  -0.165   8.261  0.5940  0.0335  0.1671
  385loPI   C5A 6155   7.458  -0.102   7.754  0.0324 -0.3008  0.0656
  385loPI   C6A 6156   7.635   0.157   7.358 -0.0411  0.2362 -0.0469
  385loPI   C1B 6157   7.127  -0.108   9.354 -0.1250  0.1466 -0.2254
  385loPI   C2B 6158   7.014  -0.073   8.968  0.3321 -0.0743 -0.1141
  385loPI   C3B 6159   6.948  -0.083   8.497  0.1388  0.0074  0.0219
  385loPI   C4B 6160   6.905   0.051   8.028 -0.0596  0.1163  0.3742
  386loPI    C1 6161   7.473  11.587  10.874  0.0614  0.0620 -0.0742
  386loPI    C2 6162   7.767  11.338  10.984  0.0656  0.0353 -0.1454
  386loPI    C3 6163   7.450  11.198  10.784  0.0602  0.0843 -0.1714
  386loPI   PO4 6164   7.673  11.797  10.788 -0.1109 -0.2126  0.2591
  386loPI   GL1 6165   7.696  12.075  10.533  0.0800 -0.2933  0.0456
  386loPI   GL2 6166   7.673  11.914  10.280  0.1997  0.2581 -0.1631
  386loPI   C1A 6167   8.053  12.269  10.362  0.2328 -0.1242  0.1183
  386loPI   C2A 6168   8.419  12.488  10.106  0.3745  0.0755  0.2183
  386loPI   C3A 6169   8.497  12.632   9.733 -0.1699 -0.1072 -0.0753
  386loPI   C4A 6170   8.476  12.803   9.281 -0.3102 -0.1310 -0.0460
  386loPI   C5A 6171   8.722  12.759   8.935  0.0240  0.0980 -0.0265
  386loPI   C6A 6172   8.868  12.914   8.618  0.0914  0.2793  0.2690
  386loPI   C1B 6173   7.563  11.903   9.916 -0.1601 -0.0438  0.2564
  386loPI   C2B 6174   7.661  12.228   9.513  0.1180  0.0552 -0.1064
  386loPI   C3B 6175   7.511  12.490   9.155 -0.2084 -0.0996  0.3217
  386loPI   C4B 6176   7.672  12.540   8.738 -0.0260 -0.0222 -0.0366
  387loPI    C1 6177   7.911   2.229  10.251  0.0742  0.1750 -0.0090
  387loPI    C2 6178   8.300   2.169  10.321 -0.0004 -0.2087  0.1022
  387loPI    C3 6179   8.082   2.385  10.577  0.1547  0.0839 -0.0070
  387loPI   PO4 6180   7.869   2.342  10.100  0.2015  0.1684  0.0379
  387loPI   GL1 6181   7.716   2.460   9.732 -0.1008  0.2395 -0.1132
  387loPI   GL2 6182   7.877   2.800   9.695  0.1340 -0.0623 -0.2429
  387loPI   C1A 6183   7.684   2.233   9.314  0.3355 -0.1966 -0.0421
  387loPI   C2A 6184   7.577   2.279   8.860  0.0353 -0.1409 -0.1230
  387loPI   C3A 6185   7.453   2.117   8.478 -0.0138  0.2533  0.0169
  387loPI   C4A 6186   7.496   1.999   8.114  0.1512 -0.0018 -0.1403
  387loPI   C5A 6187   7.217   1.783   7.767 -0.0322  0.1239 -0.0227
  387loPI   C6A 6188   6.910   1.903   7.384 -0.1000  0.2661  0.0093
  387loPI   C1B 6189   7.885   2.783   9.325  0.2095 -0.1231  0.1212
  387loPI   C2B 6190   7.872   2.676   8.891  0.2010  0.3075  0.2683
  387loPI   C3B 6191   7.859   2.547   8.541 -0.0336  0.1840 -0.1419
  387loPI   C4B 6192   7.776   2.490   8.146  0.1046  0.3912  0.1195
  388loPI    C1 6193  15.343   5.345  10.383  0.1864  0.1820 -0.1227
  388loPI    C2 6194  15.114   5.370  10.710  0.2155 -0.0295 -0.0847
  388loPI    C3 6195  15.497   5.485  10.725  0.2849 -0.2688  0.0240
  388loPI   PO4 6196  15.131   5.317  10.219 -0.0989 -0.1922 -0.1918
  388loPI   GL1 6197  15.121   5.448   9.763  0.0689  0.1567 -0.1554
  388loPI   GL2 6198  14.884   5.444   9.476  0.1270  0.1404  0.1831
  388loPI   C1A 6199  15.345   5.551   9.310  0.1724  0.2231 -0.0818
  388loPI   C2A 6200  15.370   5.546   8.900  0.0752  0.0690 -0.0779
  388loPI   C3A 6201  15.333   5.492   8.444  0.0436 -0.0588 -0.0915
  388loPI   C4A 6202  15.464   5.391   8.009  0.1213 -0.1506 -0.0228
  388loPI   C5A 6203  15.604   5.613   7.632  0.0502 -0.3311 -0.0510
  388loPI   C6A 6204  15.980   5.731   7.382 -0.1022  0.2551 -0.1948
  388loPI   C1B 6205  14.940   5.176   9.106  0.0616 -0.0017  0.1254
  388loPI   C2B 6206  15.025   5.189   8.667  0.3280  0.0722 -0.0179
  388loPI   C3B 6207  14.957   5.211   8.215 -0.3347 -0.1555 -0.0615
  388loPI   C4B 6208  14.854   4.964   7.812 -0.1740  0.4774  0.0283
  389loPI    C1 6209  15.652  10.031  10.572  0.0823 -0.0016  0.1489
  389loPI    C2 6210  16.000  10.030  10.374  0.0140 -0.1040  0.0277
  389loPI    C3 6211  15.876  10.362  10.559  0.0773 -0.0060 -0.1039
  389loPI   PO4 6212  15.505   9.936  10.344 -0.2140  0.1810 -0.1185
  389loPI   GL1 6213  15.600  10.152   9.905 -0.1112  0.1243  0.1143
  389loPI   GL2 6214  15.784   9.817   9.956  0.1555 -0.2091  0.2819
  389loPI   C1A 6215  15.331  10.213   9.448  0.2759  0.1041 -0.0035
  389loPI   C2A 6216  15.250  10.355   9.098 -0.2218 -0.1430 -0.0080
  389loPI   C3A 6217  15.243  10.543   8.587  0.0788  0.2675 -0.0536
  389loPI   C4A 6218  15.361  10.584   8.127 -0.0324 -0.3369 -0.2028
  389loPI   C5A 6219  15.771  10.505   7.907  0.3035  0.1549 -0.1964
  389loPI   C6A 6220  15.884  10.056   7.923  0.0035  0.0960  0.1141
  389loPI   C1B 6221  15.600   9.786   9.556 -0.2310  0.2146 -0.3236
  389loPI   C2B 6222  15.474   9.892   9.061  0.2666 -0.2316 -0.1645
  389loPI   C3B 6223  15.268   9.990   8.754 -0.1103 -0.0914 -0.1444
  389loPI   C4B 6224  15.139   9.750   8.414 -0.0638 -0.1270 -0.3821
  390loPI    C1 6225  15.990  16.128  10.425  0.0795  0.0692  0.1272
  390loPI    C2 6226  15.854  16.238  10.785 -0.0033  0.1018  0.0862
  390loPI    C3 6227  15.624  16.016  10.544 -0.0468  0.2902 -0.0475
  390loPI   PO4 6228  16.099  16.311  10.274 -0.4782  0.1800  0.1148
  390loPI   GL1 6229  15.978  16.387   9.910  0.1299 -0.0066  0.0018
  390loPI   GL2 6230  15.762  16.551   9.730  0.2150 -0.1698  0.3758
  390loPI   C1A 6231  16.154  16.231   9.498 -0.1856 -0.1746  0.1575
  390loPI   C2A 6232  16.132  16.329   9.031 -0.4351 -0.1648 -0.1894
  390loPI   C3A 6233  16.092  16.693   8.656  0.4193 -0.2449  0.1150
  390loPI   C4A 6234  16.202  16.609   8.273  0.4814 -0.0864  0.0006
  390loPI   C5A 6235  16.434  16.478   7.972 -0.0099 -0.0260  0.1019
  390loPI   C6A 6236  16.823  16.362   7.957 -0.1169 -0.3839  0.0266
  390loPI   C1B 6237  15.796  16.527   9.368 -0.3564 -0.4337  0.1454
  390loPI   C2B 6238  15.707  16.550   8.902 -0.0710 -0.1993 -0.2137
  390loPI   C3B 6239  15.815  16.318   8.502  0.0054 -0.0371 -0.1363
  390loPI   C4B 6240  15.862  16.075   8.126  0.0325 -0.1327 -0.2964
  391loPI    C1 6241   5.742  10.725  10.755  0.0935 -0.0709 -0.0568
  391loPI    C2 6242   5.406  10.555  10.890  0.0891 -0.0430 -0.0327
  391loPI    C3 6243   5.650  10.746  11.144 -0.0441  0.2246 -0.1019
  391loPI   PO4 6244   5.600  10.899  10.519  0.2233  0.1883 -0.3042
  391loPI   GL1 6245   5.536  11.139  10.178 -0.0051 -0.0591  0.2811
  391loPI   GL2 6246   5.325  11.364  10.020  0.2129 -0.2862  0.0249
  391loPI   C1A 6247   5.543  11.076   9.679 -0.3193  0.2964  0.0946
  391loPI   C2A 6248   5.474  11.081   9.167 -0.2992 -0.0923  0.1415
  391loPI   C3A 6249   5.352  11.249   8.789 -0.0936 -0.0995 -0.3716
  391loPI   C4A 6250   5.203  11.517   8.490 -0.0234  0.2699  0.0234
  391loPI   C5A 6251   4.964  11.673   8.138 -0.0027  0.0561 -0.0948
  391loPI   C6A 6252   4.604  11.965   7.905 -0.1036  0.0366  0.0811
  391loPI   C1B 6253   5.111  11.389   9.656  0.1580 -0.2080  0.1539
  391loPI   C2B 6254   5.005  11.416   9.183  0.0357 -0.2734 -0.0490
  391loPI   C3B 6255   4.809  11.622   8.915 -0.3381  0.3756  0.0087
  391loPI   C4B 6256   4.713  11.514   8.607  0.0298 -0.1489 -0.2204
  392loPI    C1 6257  16.434  14.712  10.692  0.1471 -0.1323  0.0491
  392loPI    C2 6258  16.183  14.417  10.790 -0.0779  0.0498  0.0290
  392loPI    C3 6259  16.416  14.584  11.070 -0.1083  0.0008  0.0837
  392loPI   PO4 6260  16.599  14.628  10.545 -0.3359 -0.0957 -0.3119
  392loPI   GL1 6261  16.800  14.617  10.176 -0.1384 -0.0738 -0.0397
  392loPI   GL2 6262  17.100  14.478  10.137  0.1866 -0.0705  0.0541
  392loPI   C1A 6263  16.640  14.514   9.875  0.2254  0.0869 -0.0005
  392loPI   C2A 6264  16.676  14.472   9.374  0.2233  0.1849 -0.0748
  392loPI   C3A 6265  16.814  14.314   9.003 -0.0732 -0.0260  0.0053
  392loPI   C4A 6266  16.708  14.354   8.502 -0.0714  0.0865 -0.3298
  392loPI   C5A 6267  16.674  14.427   8.032 -0.0166 -0.4948  0.4350
  392loPI   C6A 6268  16.563  14.497   7.574  0.2055 -0.0446 -0.1257
  392loPI   C1B 6269  17.144  14.467   9.681 -0.2246  0.1511 -0.1816
  392loPI   C2B 6270  17.167  14.593   9.283 -0.2168  0.1843  0.4503
  392loPI   C3B 6271  17.210  14.599   8.832 -0.1856 -0.3427 -0.0291
  392loPI   C4B 6272  17.170  14.508   8.386 -0.0462 -0.0053 -0.0490
  393loPI    C1 6273   4.818   2.739  10.652 -0.1536  0.1828 -0.2375
  393loPI    C2 6274   4.617   2.674  10.313 -0.0878  0.0361 -0.2490
  393loPI    C3 6275   4.469   2.924  10.588 -0.3253 -0.1290 -0.2233
  393loPI   PO4 6276   5.051   2.772  10.552 -0.1412 -0.2135 -0.0770
  393loPI   GL1 6277   5.062   2.708  10.057 -0.1224  0.0369 -0.2433
  393loPI   GL2 6278   5.298   2.552   9.982 -0.0895 -0.1524  0.1238
  393loPI   C1A 6279   4.889   2.467   9.649  0.0134 -0.3115  0.0353
  393loPI   C2A 6280   4.938   2.518   9.224  0.1167  0.3988  0.3323
  393loPI   C3A 6281   4.888   2.462   8.821  0.2401  0.1126 -0.5755
  393loPI   C4A 6282   4.957   2.379   8.454  0.0675 -0.4687  0.2555
  393loPI   C5A 6283   4.989   2.284   7.978  0.1599 -0.2045  0.0061
  393loPI   C6A 6284   5.011   2.327   7.615 -0.0215 -0.0668  0.1628
  393loPI   C1B 6285   5.443   2.473   9.590 -0.1906  0.1172  0.2034
  393loPI   C2B 6286   5.487   2.449   9.215  0.1188  0.1570  0.1493
  393loPI   C3B 6287   5.372   2.454   8.793 -0.3016  0.0199  0.0999
  393loPI   C4B 6288   5.462   2.367   8.394 -0.1453  0.0286 -0.2139
  394loPI    C1 6289   2.676   9.630  10.076  0.0730 -0.0677 -0.1552
  394loPI    C2 6290   2.567   9.245  10.077 -0.1850  0.0031  0.0080
  394loPI    C3 6291   2.757   9.399  10.393  0.0727 -0.0308 -0.1282
  394loPI   PO4 6292   2.680   9.715   9.829  0.1865  0.1286 -0.1285
  394loPI   GL1 6293   2.434   9.763   9.439 -0.3307 -0.1488 -0.0171
  394loPI   GL2 6294   2.719  10.036   9.478 -0.1385  0.3812 -0.1314
  394loPI   C1A 6295   2.377   9.732   8.975  0.0050  0.2160 -0.0898
  394loPI   C2A 6296   2.533   9.967   8.668 -0.0793 -0.1139 -0.1565
  394loPI   C3A 6297   2.557  10.200   8.234 -0.0505  0.1263  0.1861
  394loPI   C4A 6298   2.618  10.662   7.990  0.2688  0.2007  0.0987
  394loPI   C5A 6299   2.694  11.027   7.796  0.1260  0.0363  0.1204
  394loPI   C6A 6300   2.873  11.542   7.830 -0.1299  0.0520 -0.1193
  394loPI   C1B 6301   2.769  10.063   9.081 -0.0603  0.1510  0.0768
  394loPI   C2B 6302   3.118  10.219   8.765  0.1879 -0.2177 -0.1151
  394loPI   C3B 6303   3.394  10.198   8.384 -0.1167 -0.0985  0.0619
  394loPI   C4B 6304   3.694   9.968   8.095  0.0131 -0.1168 -0.0157
  395loPI    C1 6305  13.099  11.483  10.620  0.0274  0.1908  0.0278
  395loPI    C2 6306  13.471  11.357  10.695 -0.0137 -0.0131 -0.1016
  395loPI    C3 6307  13.172  11.253  10.939  0.0024  0.0968 -0.0340
  395loPI   PO4 6308  13.141  11.423  10.297 -0.5234 -0.0384 -0.0549
  395loPI   GL1 6309  13.241  11.599   9.778 -0.0676  0.0777 -0.0336
  395loPI   GL2 6310  13.243  11.929  10.066  0.1852  0.2607  0.0669
  395loPI   C1A 6311  13.130  11.524   9.404 -0.1253  0.0192 -0.0798
  395loPI   C2A 6312  12.925  11.531   9.023 -0.0699  0.1102  0.0448
  395loPI   C3A 6313  12.817  11.499   8.735 -0.0002  0.1848  0.1287
  395loPI   C4A 6314  12.624  11.600   8.343 -0.1197  0.3092  0.0679
  395loPI   C5A 6315  12.502  11.546   7.949  0.1448  0.0429 -0.0655
  395loPI   C6A 6316  12.729  11.607   7.711  0.0026  0.0726  0.2913
  395loPI   C1B 6317  13.036  12.008   9.691  0.0319  0.0885  0.0261
  395loPI   C2B 6318  12.885  12.180   9.265  0.2205 -0.1282  0.1781
  395loPI   C3B 6319  12.758  12.454   8.978 -0.0271  0.1246  0.0346
  395loPI   C4B 6320  12.933  12.696   8.654 -0.0605 -0.1046  0.0367
  396loPI    C1 6321  17.216  16.056  10.669  0.0054 -0.1030  0.0399
  396loPI    C2 6322  16.841  16.103  10.801 -0.0795  0.0095 -0.2334
  396loPI    C3 6323  17.114  16.388  10.869 -0.0595 -0.0427 -0.0919
  396loPI   PO4 6324  17.099  15.956  10.392  0.1493 -0.0679  0.1847
  396loPI   GL1 6325  17.366  15.933   9.984  0.0041  0.0873 -0.0719
  396loPI   GL2 6326  17.350  16.265  10.068  0.0867 -0.1665 -0.3150
  396loPI   C1A 6327  17.534  15.856   9.557  0.0964 -0.0408 -0.0773
  396loPI   C2A 6328  17.633  15.968   9.093 -0.3977  0.2612  0.1070
  396loPI   C3A 6329  17.706  15.966   8.630 -0.0866  0.0676  0.1914
  396loPI   C4A 6330  17.557  15.902   8.244  0.0727 -0.1436  0.0084
  396loPI   C5A 6331  17.268  16.148   8.067  0.0739  0.0713  0.0938
  396loPI   C6A 6332  17.089  16.150   7.614 -0.1328 -0.2711 -0.0899
  396loPI   C1B 6333  17.331  16.341   9.683 -0.3079 -0.1069 -0.2612
  396loPI   C2B 6334  17.385  16.444   9.303 -0.4022 -0.2052 -0.0911
  396loPI   C3B 6335  17.437  16.341   8.867  0.1401  0.0316  0.1041
  396loPI   C4B 6336  17.314  16.520   8.474  0.1988  0.2653 -0.1082
  397loPI    C1 6337  15.566  12.703  10.220  0.1552  0.2685 -0.1479
  397loPI    C2 6338  15.411  12.870  10.548 -0.1784 -0.0126 -0.1565
  397loPI    C3 6339  15.253  12.534  10.401  0.3366 -0.2150 -0.2699
  397loPI   PO4 6340  15.854  12.669  10.283  0.0440 -0.0007 -0.3139
  397loPI   GL1 6341  16.136  12.617  10.020  0.0901  0.0254 -0.1287
  397loPI   GL2 6342  16.144  12.898   9.910 -0.0118  0.0732 -0.2500
  397loPI   C1A 6343  16.134  12.531   9.606 -0.0825 -0.5672 -0.0227
  397loPI   C2A 6344  16.244  12.497   9.200  0.0821 -0.1109  0.0358
  397loPI   C3A 6345  16.340  12.495   8.711 -0.2144  0.4239  0.0263
  397loPI   C4A 6346  16.396  12.671   8.266 -0.2418  0.4384 -0.0695
  397loPI   C5A 6347  16.805  12.807   8.074  0.1773  0.2708  0.1025
  397loPI   C6A 6348  17.157  13.135   7.913 -0.1334  0.2171 -0.1446
  397loPI   C1B 6349  16.379  12.963   9.490 -0.0164  0.4488  0.0396
  397loPI   C2B 6350  16.462  13.006   9.105 -0.0662  0.2326  0.2816
  397loPI   C3B 6351  16.408  12.967   8.644  0.3905 -0.4419 -0.0092
  397loPI   C4B 6352  16.426  13.152   8.163  0.1771  0.0446  0.4283
  398loPI    C1 6353   3.497  12.521  10.998 -0.0366 -0.0594 -0.0125
  398loPI    C2 6354   3.223  12.231  11.029  0.1610 -0.2869 -0.3322
  398loPI    C3 6355   3.606  12.155  11.116  0.1816 -0.0638 -0.2202
  398loPI   PO4 6356   3.394  12.677  10.814  0.2223  0.1026  0.0850
  398loPI   GL1 6357   3.291  12.732  10.385 -0.0033 -0.0762  0.0218
  398loPI   GL2 6358   2.945  12.738  10.367  0.2423 -0.1094 -0.3381
  398loPI   C1A 6359   3.416  12.922  10.043 -0.1363 -0.1774 -0.2071
  398loPI   C2A 6360   3.433  12.975   9.598  0.3229  0.0598  0.0876
  398loPI   C3A 6361   3.315  13.011   9.194  0.0059 -0.1021  0.1625
  398loPI   C4A 6362   3.292  12.901   8.680  0.2090  0.2599 -0.1628
  398loPI   C5A 6363   3.390  12.720   8.295  0.0918 -0.2153 -0.0622
  398loPI   C6A 6364   3.696  12.473   8.088 -0.2368 -0.1072  0.0644
  398loPI   C1B 6365   2.933  12.835   9.906  0.1024 -0.0249 -0.3985
  398loPI   C2B 6366   2.792  12.902   9.474 -0.1345  0.0768  0.1652
  398loPI   C3B 6367   2.709  13.010   9.130 -0.0078 -0.0399  0.0932
  398loPI   C4B 6368   2.760  13.112   8.697 -0.1165 -0.3110  0.1946
  399loPI    C1 6369   4.192   1.842  10.442 -0.1976  0.1707 -0.1666
  399loPI    C2 6370   3.992   2.164  10.571 -0.1623  0.0596  0.1756
  399loPI    C3 6371   4.221   1.956  10.825  0.0360 -0.0750 -0.1085
  399loPI   PO4 6372   4.179   1.905  10.194  0.3230  0.0215  0.1418
  399loPI   GL1 6373   4.192   1.791   9.726  0.1139 -0.0433 -0.0588
  399loPI   GL2 6374   3.888   1.599   9.894 -0.0538 -0.0798 -0.1666
  399loPI   C1A 6375   4.227   1.723   9.304  0.0635 -0.0039  0.2009
  399loPI   C2A 6376   4.321   1.676   8.869  0.4050  0.0723  0.0288
  399loPI   C3A 6377   4.258   1.515   8.473  0.0349 -0.0921  0.3039
  399loPI   C4A 6378   4.079   1.225   8.158 -0.0688  0.2752 -0.1731
  399loPI   C5A 6379   3.746   1.132   7.844  0.2149 -0.3854  0.1378
  399loPI   C6A 6380   3.312   0.974   7.938  0.1200  0.1295  0.3102
  399loPI   C1B 6381   3.869   1.398   9.455 -0.2434  0.1656  0.0278
  399loPI   C2B 6382   4.003   1.230   8.977  0.0997 -0.1435 -0.2336
  399loPI   C3B 6383   3.930   1.072   8.643 -0.0023  0.0747  0.0192
  399loPI   C4B 6384   3.729   0.861   8.335  0.1279 -0.0279 -0.1437
  400loPI    C1 6385  13.096  14.991  10.416 -0.2187 -0.2062  0.1099
  400loPI    C2 6386  12.789  15.194  10.572  0.0562  0.2652  0.0551
  400loPI    C3 6387  13.052  15.012  10.813 -0.0827  0.1346  0.1096
  400loPI   PO4 6388  12.956  14.986  10.121 -0.0291 -0.0225 -0.1054
  400loPI   GL1 6389  12.615  15.060   9.781 -0.0983  0.0022 -0.2625
  400loPI   GL2 6390  12.882  15.276   9.675 -0.1334 -0.1336  0.0937
  400loPI   C1A 6391  12.300  15.344   9.640 -0.0066  0.0270 -0.1262
  400loPI   C2A 6392  12.357  15.383   9.280  0.3035 -0.2944  0.0162
  400loPI   C3A 6393  12.391  15.485   8.867  0.2525 -0.0117 -0.0184
  400loPI   C4A 6394  12.187  15.371   8.442 -0.2371 -0.5552  0.1768
  400loPI   C5A 6395  12.491  15.543   8.203  0.1415 -0.0387 -0.1572
  400loPI   C6A 6396  12.414  15.940   7.927 -0.0498  0.0667 -0.0763
  400loPI   C1B 6397  12.854  15.489   9.196 -0.0815 -0.1242  0.0938
  400loPI   C2B 6398  12.922  15.759   8.765  0.2307 -0.2219 -0.0792
  400loPI   C3B 6399  12.688  15.994   8.388  0.4651 -0.2897 -0.1404
  400loPI   C4B 6400  12.904  15.833   8.037 -0.0008  0.2136  0.0804
  401loPI    C1 6401   1.301  15.092  10.720 -0.2133 -0.0911 -0.2809
  401loPI    C2 6402   1.065  14.996  11.029 -0.0113 -0.0996 -0.1272
  401loPI    C3 6403   1.452  15.079  11.091 -0.0043  0.0494 -0.3592
  401loPI   PO4 6404   1.123  15.242  10.552 -0.4806  0.0361  0.0566
  401loPI   GL1 6405   1.079  15.567  10.376 -0.2136 -0.1896  0.1887
  401loPI   GL2 6406   0.855  15.704  10.483  0.1262  0.0976 -0.2649
  401loPI   C1A 6407   1.228  15.630   9.850  0.0975  0.0552  0.2837
  401loPI   C2A 6408   1.323  15.592   9.375 -0.1393  0.0596  0.2636
  401loPI   C3A 6409   1.220  15.496   8.944  0.1048  0.2489 -0.2650
  401loPI   C4A 6410   1.381  15.498   8.591 -0.3998  0.0816 -0.1178
  401loPI   C5A 6411   1.106  15.464   8.244 -0.0649  0.2016 -0.2589
  401loPI   C6A 6412   0.998  15.547   7.844  0.1552 -0.2499  0.1343
  401loPI   C1B 6413   0.664  15.789  10.068 -0.1804 -0.0282  0.1026
  401loPI   C2B 6414   0.809  15.769   9.596  0.0634  0.1671 -0.0459
  401loPI   C3B 6415   0.827  15.663   9.187  0.1265 -0.1331 -0.0470
  401loPI   C4B 6416   0.807  15.626   8.771 -0.2265 -0.2371  0.1340
  402loPI    C1 6417  16.445   2.742  10.769 -0.0930 -0.0467  0.2862
  402loPI    C2 6418  16.791   2.934  10.710 -0.0780 -0.2198 -0.2441
  402loPI    C3 6419  16.786   2.590  10.913  0.0535 -0.1954 -0.1983
  402loPI   PO4 6420  16.322   2.810  10.551 -0.0746  0.0837  0.1163
  402loPI   GL1 6421  16.493   3.054  10.236  0.0515  0.2600 -0.0792
  402loPI   GL2 6422  16.300   3.192   9.996 -0.0264 -0.3593 -0.0549
  402loPI   C1A 6423  16.418   2.741   9.908 -0.0131  0.1547 -0.2591
  402loPI   C2A 6424  16.572   2.737   9.518 -0.2145 -0.1905  0.0041
  402loPI   C3A 6425  16.521   2.731   9.139 -0.5425  0.2738 -0.1171
  402loPI   C4A 6426  16.478   2.544   8.710 -0.1827 -0.0399  0.1842
  402loPI   C5A 6427  16.548   2.651   8.329 -0.0278  0.1827  0.1733
  402loPI   C6A 6428  16.377   2.692   8.033  0.0600 -0.2416  0.0159
  402loPI   C1B 6429  16.332   3.208   9.531  0.0710  0.0097 -0.0637
  402loPI   C2B 6430  16.368   3.195   9.044 -0.0354 -0.0263  0.2598
  402loPI   C3B 6431  16.245   3.028   8.586 -0.0420 -0.0674 -0.0735
  402loPI   C4B 6432  16.228   3.086   8.193  0.1225 -0.0772 -0.0399
  403loPI    C1 6433   8.179  11.511  10.664 -0.0974 -0.0949  0.1116
  403loPI    C2 6434   8.366  11.569  11.013 -0.3252 -0.1003  0.2366
  403loPI    C3 6435   8.278  11.198  10.893 -0.2783 -0.0963  0.1897
  403loPI   PO4 6436   8.292  11.616  10.457 -0.1195 -0.1904 -0.0840
  403loPI   GL1 6437   8.108  11.733  10.076 -0.0611  0.1313  0.0049
  403loPI   GL2 6438   8.060  11.466  10.036  0.2277 -0.1122  0.0943
  403loPI   C1A 6439   8.018  12.083   9.883 -0.0297  0.1830  0.0988
  403loPI   C2A 6440   8.139  12.325   9.557 -0.0570  0.0333  0.0325
  403loPI   C3A 6441   8.260  12.367   9.153 -0.0003  0.1332  0.1043
  403loPI   C4A 6442   8.219  12.741   8.788  0.3145  0.1113  0.1422
  403loPI   C5A 6443   8.423  12.943   8.413  0.0899 -0.0694 -0.1403
  403loPI   C6A 6444   8.497  13.348   8.091  0.2156  0.1513  0.1201
  403loPI   C1B 6445   7.795  11.522   9.679 -0.0764 -0.0473 -0.0590
  403loPI   C2B 6446   7.625  11.713   9.389  0.2293  0.0019  0.1252
  403loPI   C3B 6447   7.300  12.007   9.215  0.0935  0.1137 -0.1585
  403loPI   C4B 6448   7.235  12.246   8.874  0.2875 -0.1349  0.1248
  404loPI    C1 6449  14.051   4.556  10.274 -0.0254  0.1144  0.1342
  404loPI    C2 6450  13.756   4.673  10.517 -0.0775 -0.0877  0.1695
  404loPI    C3 6451  13.953   4.333  10.591  0.1001 -0.0031  0.0911
  404loPI   PO4 6452  13.955   4.590   9.987 -0.3294 -0.1640 -0.1873
  404loPI   GL1 6453  13.795   4.706   9.639 -0.0886  0.2724  0.0791
  404loPI   GL2 6454  14.063   4.878   9.618 -0.2812 -0.0495  0.0943
  404loPI   C1A 6455  13.765   4.585   9.087 -0.3361 -0.4859  0.1242
  404loPI   C2A 6456  13.716   4.594   8.563 -0.1333  0.1797 -0.2221
  404loPI   C3A 6457  13.718   4.449   8.194  0.2694  0.1917 -0.1546
  404loPI   C4A 6458  13.842   4.347   7.763 -0.1241 -0.1918 -0.1889
  404loPI   C5A 6459  14.025   4.457   7.336 -0.0353  0.0236 -0.0244
  404loPI   C6A 6460  14.094   4.367   6.989 -0.0090  0.2051  0.0371
  404loPI   C1B 6461  14.073   4.957   9.253  0.0235  0.0814  0.1914
  404loPI   C2B 6462  14.086   4.952   8.767 -0.0741  0.1005 -0.1764
  404loPI   C3B 6463  14.000   5.054   8.398 -0.1840 -0.1036  0.1584
  404loPI   C4B 6464  13.858   4.853   7.941 -0.0258  0.0713 -0.2040
  405loPI    C1 6465   0.024   7.312  10.713 -0.1800 -0.0797 -0.0876
  405loPI    C2 6466   0.144   7.592  10.971 -0.2321 -0.0977 -0.0435
  405loPI    C3 6467   0.376   7.274  10.898 -0.2890 -0.1739  0.1033
  405loPI   PO4 6468  -0.043   7.397  10.543  0.0616 -0.0718 -0.0878
  405loPI   GL1 6469  -0.232   7.450  10.111 -0.0582  0.0372  0.0390
  405loPI   GL2 6470  -0.281   7.779  10.004 -0.2744 -0.2863  0.4721
  405loPI   C1A 6471  -0.419   7.368   9.738  0.0410  0.0155 -0.1091
  405loPI   C2A 6472  -0.428   7.422   9.226  0.0281  0.3719  0.2843
  405loPI   C3A 6473  -0.463   7.429   8.764 -0.1238 -0.1595 -0.0703
  405loPI   C4A 6474  -0.420   7.478   8.269 -0.0195  0.0311  0.2137
  405loPI   C5A 6475  -0.563   7.795   8.002 -0.0850 -0.3546 -0.2788
  405loPI   C6A 6476  -0.386   8.041   7.659 -0.0218 -0.0025  0.0951
  405loPI   C1B 6477  -0.083   7.865   9.578  0.1905  0.0644 -0.1787
  405loPI   C2B 6478   0.054   7.765   9.071  0.1284  0.0175 -0.1103
  405loPI   C3B 6479   0.290   7.620   8.689  0.0809 -0.2385 -0.1480
  405loPI   C4B 6480   0.363   7.910   8.314 -0.1635 -0.0777 -0.0580
  406loPI    C1 6481   9.525  17.255  10.533 -0.0391 -0.0085  0.1689
  406loPI    C2 6482   9.778  17.544  10.422 -0.0290 -0.0619  0.0520
  406loPI    C3 6483   9.862  17.316  10.740  0.0369 -0.0351  0.0541
  406loPI   PO4 6484   9.508  17.137  10.274 -0.0069  0.0881 -0.0131
  406loPI   GL1 6485   9.630  16.839  10.062  0.4003  0.0075 -0.0570
  406loPI   GL2 6486   9.716  16.570   9.927 -0.2957 -0.3486  0.0672
  406loPI   C1A 6487   9.676  17.045   9.624  0.5088 -0.1316 -0.0569
  406loPI   C2A 6488   9.614  17.086   9.253 -0.1727  0.1216 -0.1277
  406loPI   C3A 6489   9.515  17.176   8.819  0.0866 -0.2238 -0.2367
  406loPI   C4A 6490   9.473  17.034   8.464  0.2246 -0.0362 -0.1208
  406loPI   C5A 6491   9.440  16.850   8.013  0.2802 -0.1680  0.0677
  406loPI   C6A 6492   9.770  16.636   7.803  0.2155 -0.1150 -0.3423
  406loPI   C1B 6493   9.670  16.551   9.469 -0.3430  0.1284  0.3532
  406loPI   C2B 6494   9.679  16.606   9.053  0.1712 -0.0324 -0.0030
  406loPI   C3B 6495   9.744  16.636   8.638 -0.3330 -0.2776 -0.1314
  406loPI   C4B 6496   9.674  16.402   8.281  0.3433 -0.2765  0.1477
  407loPI    C1 6497  10.562  15.303  10.850 -0.0238 -0.0406 -0.2258
  407loPI    C2 6498  10.703  15.099  10.537  0.2592 -0.0510 -0.0948
  407loPI    C3 6499  10.828  15.010  10.906 -0.2853 -0.2302  0.0565
  407loPI   PO4 6500  10.538  15.519  10.779  0.1185 -0.0255  0.1475
  407loPI   GL1 6501  10.624  15.735  10.368  0.2038  0.1334  0.0800
  407loPI   GL2 6502  10.670  15.497  10.224  0.1359 -0.0105 -0.1145
  407loPI   C1A 6503  10.709  15.813   9.901 -0.0710 -0.3614 -0.0233
  407loPI   C2A 6504  10.699  16.080   9.522 -0.2313 -0.0950  0.0649
  407loPI   C3A 6505  10.578  16.092   9.142  0.0663  0.2758 -0.0245
  407loPI   C4A 6506  10.394  16.075   8.779  0.4503  0.0352 -0.2242
  407loPI   C5A 6507  10.432  16.041   8.380  0.2176  0.2041 -0.0954
  407loPI   C6A 6508  10.349  15.751   8.027  0.2787  0.0198 -0.0227
  407loPI   C1B 6509  10.683  15.344   9.833  0.0681  0.1060 -0.1684
  407loPI   C2B 6510  10.564  15.151   9.449 -0.2588  0.0418 -0.6028
  407loPI   C3B 6511  10.383  15.113   9.072  0.0978  0.0156 -0.0127
  407loPI   C4B 6512  10.206  15.153   8.662 -0.1446  0.2805  0.2494
  408loPI    C1 6513   3.022  18.140  10.932  0.0387 -0.0771 -0.0299
  408loPI    C2 6514   3.005  18.534  10.999 -0.1141 -0.1271  0.2398
  408loPI    C3 6515   3.360  18.349  10.987 -0.0092  0.0901 -0.3473
  408loPI   PO4 6516   2.849  18.118  10.813 -0.0774  0.2082 -0.1320
  408loPI   GL1 6517   2.764  17.898  10.463 -0.1176 -0.0286 -0.0477
  408loPI   GL2 6518   2.723  18.164  10.354  0.1247 -0.3866  0.0585
  408loPI   C1A 6519   2.842  17.697  10.027 -0.1298  0.1565 -0.0318
  408loPI   C2A 6520   2.874  17.670   9.611  0.0783 -0.1083  0.0279
  408loPI   C3A 6521   2.884  17.534   9.199  0.1091  0.2476  0.0115
  408loPI   C4A 6522   2.920  17.509   8.764 -0.3452 -0.2349  0.4095
  408loPI   C5A 6523   2.759  17.545   8.303 -0.2630 -0.1208  0.2155
  408loPI   C6A 6524   2.480  17.407   8.004  0.3254 -0.2382  0.3274
  408loPI   C1B 6525   2.674  18.164   9.883  0.1662  0.1703 -0.1541
  408loPI   C2B 6526   2.715  18.197   9.387 -0.0378  0.0224  0.2655
  408loPI   C3B 6527   2.691  18.122   8.959 -0.0976  0.0198  0.2688
  408loPI   C4B 6528   2.735  17.981   8.602 -0.0473  0.1153 -0.3109
  409loPI    C1 6529  11.355  11.983  10.440 -0.1047  0.1194  0.0835
  409loPI    C2 6530  11.732  12.047  10.559 -0.0312 -0.0193 -0.0693
  409loPI    C3 6531  11.461  11.905  10.818  0.0412  0.0043  0.0198
  409loPI   PO4 6532  11.356  11.906  10.125  0.2890 -0.5327 -0.2651
  409loPI   GL1 6533  11.067  11.987   9.861 -0.0822  0.4462  0.0199
  409loPI   GL2 6534  10.985  11.664   9.779  0.1494  0.1160 -0.3328
  409loPI   C1A 6535  10.793  12.148   9.620 -0.1310 -0.0768  0.1846
  409loPI   C2A 6536  10.937  12.523   9.341  0.1077  0.1314 -0.4358
  409loPI   C3A 6537  10.847  12.530   9.023 -0.1236  0.2158  0.0747
  409loPI   C4A 6538  10.739  12.517   8.515 -0.2109 -0.1351 -0.3731
  409loPI   C5A 6539  10.571  12.225   8.142  0.3272  0.0652 -0.1602
  409loPI   C6A 6540  10.487  11.899   7.807  0.1052 -0.2682 -0.1815
  409loPI   C1B 6541  11.079  11.694   9.374  0.3178 -0.0313  0.0551
  409loPI   C2B 6542  11.008  11.477   9.058  0.2429 -0.0350  0.1318
  409loPI   C3B 6543  10.727  11.554   8.689 -0.1943 -0.5269 -0.0044
  409loPI   C4B 6544  10.444  11.441   8.284  0.0194 -0.1883 -0.1861
  410loPI    C1 6545   3.339  15.887  10.905  0.0466 -0.0699 -0.0843
  410loPI    C2 6546   3.344  15.947  11.301 -0.0669  0.1967 -0.1212
  410loPI    C3 6547   3.277  15.580  11.155  0.0222  0.0880  0.1063
  410loPI   PO4 6548   3.632  15.972  10.818 -0.1087  0.1918 -0.4178
  410loPI   GL1 6549   4.033  15.942  10.567 -0.0508 -0.1400  0.3015
  410loPI   GL2 6550   3.987  15.672  10.522  0.0832  0.2439 -0.1161
  410loPI   C1A 6551   4.113  16.012  10.187 -0.2356  0.1388 -0.4747
  410loPI   C2A 6552   4.044  16.052   9.715  0.0544 -0.5789  0.0875
  410loPI   C3A 6553   4.069  16.052   9.316 -0.2485  0.0059 -0.0002
  410loPI   C4A 6554   4.081  16.056   8.789 -0.1864  0.0688  0.0946
  410loPI   C5A 6555   4.139  16.183   8.384  0.1396 -0.1142 -0.1504
  410loPI   C6A 6556   4.422  16.213   7.991 -0.2664 -0.0402 -0.1220
  410loPI   C1B 6557   3.779  15.666  10.091 -0.1166 -0.0188  0.1261
  410loPI   C2B 6558   3.765  15.581   9.589 -0.2243 -0.0291  0.2483
  410loPI   C3B 6559   3.847  15.562   9.117  0.2216  0.0850 -0.0010
  410loPI   C4B 6560   3.815  15.632   8.738  0.2070 -0.0421 -0.0318
  411loPI    C1 6561   8.696  12.165  10.674 -0.0524  0.3442 -0.1789
  411loPI    C2 6562   8.981  11.939  10.839  0.0310  0.3219 -0.3515
  411loPI    C3 6563   8.623  11.968  11.015  0.0679  0.1746 -0.2496
  411loPI   PO4 6564   8.800  12.424  10.663  0.2026  0.1745 -0.1443
  411loPI   GL1 6565   9.096  12.662  10.402 -0.1889 -0.0784  0.0510
  411loPI   GL2 6566   8.935  12.372  10.086  0.2230 -0.1951  0.3102
  411loPI   C1A 6567   8.952  12.922  10.012 -0.0488 -0.1122 -0.3970
  411loPI   C2A 6568   9.069  13.032   9.620  0.2026  0.1998  0.0567
  411loPI   C3A 6569   9.391  13.010   9.429  0.3145  0.2193  0.5452
  411loPI   C4A 6570   9.675  13.314   9.193 -0.0206 -0.3164  0.1683
  411loPI   C5A 6571   9.538  13.573   8.786 -0.2437 -0.2736  0.0471
  411loPI   C6A 6572   9.514  13.752   8.398 -0.1667 -0.3065  0.2036
  411loPI   C1B 6573   9.004  12.537   9.670 -0.2916 -0.0130  0.0781
  411loPI   C2B 6574   9.110  12.634   9.256  0.2000 -0.0708 -0.4038
  411loPI   C3B 6575   9.267  12.923   8.902 -0.2105  0.3301 -0.2102
  411loPI   C4B 6576   9.313  13.227   8.408 -0.0223 -0.0657  0.1304
  412loPI    C1 6577  17.701  15.055  10.457 -0.0870  0.0472  0.0484
  412loPI    C2 6578  17.788  14.959  10.836  0.1899  0.2321  0.0350
  412loPI    C3 6579  17.432  15.120  10.746  0.0326 -0.0302  0.1781
  412loPI   PO4 6580  17.907  14.900  10.290  0.2539  0.2438 -0.0126
  412loPI   GL1 6581  17.935  14.431  10.208 -0.1729  0.3852 -0.3798
  412loPI   GL2 6582  18.195  14.334   9.914  0.3761  0.1669 -0.1304
  412loPI   C1A 6583  17.637  14.450   9.849  0.1280  0.1996 -0.0298
  412loPI   C2A 6584  17.651  14.551   9.401 -0.3071  0.1694  0.2781
  412loPI   C3A 6585  17.754  14.464   8.984  0.0913  0.5535 -0.0693
  412loPI   C4A 6586  17.654  14.403   8.639  0.1999 -0.0053  0.0151
  412loPI   C5A 6587  17.629  14.410   8.164 -0.3783  0.0923 -0.2739
  412loPI   C6A 6588  17.646  14.312   7.736  0.0466  0.1390  0.2844
  412loPI   C1B 6589  18.106  14.332   9.492 -0.2844  0.0448 -0.4481
  412loPI   C2B 6590  18.328  14.374   9.112 -0.1210 -0.0646  0.1679
  412loPI   C3B 6591  18.175  14.413   8.729 -0.2263 -0.0329  0.1902
  412loPI   C4B 6592  18.232  14.439   8.295 -0.1656  0.0340  0.1014
  413loPI    C1 6593   8.088   6.512  10.047  0.1157  0.2063  0.0233
  413loPI    C2 6594   7.754   6.674  10.196 -0.0820 -0.1607 -0.0109
  413loPI    C3 6595   8.094   6.690  10.405 -0.1698  0.0291  0.1196
  413loPI   PO4 6596   7.913   6.340   9.772 -0.1729 -0.1689 -0.0709
  413loPI   GL1 6597   7.946   6.489   9.392 -0.1108 -0.0864 -0.0091
  413loPI   GL2 6598   8.187   6.540   9.294  0.1055  0.0985 -0.0195
  413loPI   C1A 6599   7.738   6.174   8.981 -0.1985  0.2929  0.0829
  413loPI   C2A 6600   7.681   6.089   8.499 -0.0542  0.1349  0.4449
  413loPI   C3A 6601   7.648   5.902   8.023 -0.0288 -0.0592  0.1243
  413loPI   C4A 6602   7.375   6.062   7.697 -0.0594 -0.3067  0.0392
  413loPI   C5A 6603   6.996   6.159   7.641 -0.1269 -0.1382 -0.1913
  413loPI   C6A 6604   6.645   6.425   7.675 -0.0883  0.3070 -0.0148
  413loPI   C1B 6605   8.368   6.387   8.929 -0.0887 -0.1766  0.2168
  413loPI   C2B 6606   8.432   6.290   8.464 -0.1742 -0.1549  0.0204
  413loPI   C3B 6607   8.783   6.332   8.185  0.1178  0.3095  0.0187
  413loPI   C4B 6608   8.712   6.571   7.844  0.0866  0.0831 -0.1650
  414loPI    C1 6609  18.453   6.320  10.518 -0.1125 -0.1995 -0.0225
  414loPI    C2 6610  18.558   6.362  10.902  0.0266 -0.1233 -0.0684
  414loPI    C3 6611  18.201   6.208  10.808 -0.1177  0.1063  0.0939
  414loPI   PO4 6612  18.748   6.333  10.365 -0.0888 -0.0341  0.1123
  414loPI   GL1 6613  18.873   6.293   9.956  0.2180  0.1760 -0.1120
  414loPI   GL2 6614  19.207   6.314  10.039 -0.1478  0.2075  0.0015
  414loPI   C1A 6615  18.638   5.998   9.645 -0.0559  0.1486 -0.0444
  414loPI   C2A 6616  18.516   5.651   9.446  0.0984  0.1338  0.3831
  414loPI   C3A 6617  18.271   5.605   9.086 -0.0747  0.2277 -0.3154
  414loPI   C4A 6618  18.316   5.594   8.608  0.0426  0.1247  0.1875
  414loPI   C5A 6619  18.140   5.665   8.173 -0.0865  0.0699  0.2600
  414loPI   C6A 6620  18.047   5.795   7.842  0.1294  0.0608 -0.0755
  414loPI   C1B 6621  19.204   6.271   9.638 -0.2633  0.2273  0.1499
  414loPI   C2B 6622  19.038   6.052   9.165  0.1185  0.1962 -0.2440
  414loPI   C3B 6623  19.080   5.943   8.785 -0.3757 -0.3813  0.0037
  414loPI   C4B 6624  19.343   5.724   8.740 -0.0568  0.0174  0.0841
  415loPI    C1 6625  10.174   3.504   9.517 -0.1310 -0.1073 -0.1409
  415loPI    C2 6626  10.497   3.285   9.607 -0.1593 -0.1115 -0.0493
  415loPI    C3 6627  10.466   3.661   9.740 -0.0876 -0.0339 -0.2483
  415loPI   PO4 6628   9.998   3.374   9.620  0.0220  0.1821 -0.1487
  415loPI   GL1 6629   9.950   3.032   9.347  0.0234 -0.2508 -0.1523
  415loPI   GL2 6630  10.193   2.822   9.503  0.0510  0.0007 -0.2437
  415loPI   C1A 6631  10.058   3.142   8.911  0.0187  0.2429 -0.1024
  415loPI   C2A 6632  10.170   3.144   8.441  0.2976  0.0241 -0.0337
  415loPI   C3A 6633  10.138   3.241   8.029  0.1196  0.3259 -0.0219
  415loPI   C4A 6634   9.833   2.927   7.729 -0.2089  0.0352 -0.1916
  415loPI   C5A 6635   9.504   2.847   7.703  0.0078 -0.1477  0.1395
  415loPI   C6A 6636   9.358   2.759   7.327  0.0087  0.1398 -0.2243
  415loPI   C1B 6637  10.132   2.660   9.068  0.0022  0.1461 -0.1515
  415loPI   C2B 6638  10.124   2.676   8.619  0.3517  0.3739  0.1204
  415loPI   C3B 6639  10.182   2.673   8.181 -0.0002  0.1452  0.2369
  415loPI   C4B 6640  10.276   2.675   7.821  0.3691  0.0592 -0.1720
  416loPI    C1 6641  17.382   0.249  10.440 -0.2885 -0.2555 -0.0645
  416loPI    C2 6642  17.605  -0.082  10.461 -0.0700 -0.0919  0.3057
  416loPI    C3 6643  17.667   0.181  10.166 -0.2997 -0.4117 -0.0384
  416loPI   PO4 6644  17.133   0.162  10.392 -0.1740  0.3665 -0.2363
  416loPI   GL1 6645  17.153   0.100   9.966 -0.0656  0.1467  0.1548
  416loPI   GL2 6646  16.846   0.144   9.811  0.0148  0.2492 -0.1937
  416loPI   C1A 6647  17.440   0.119   9.607  0.2276 -0.1590  0.2026
  416loPI   C2A 6648  17.604   0.127   9.142  0.2420 -0.1571  0.2317
  416loPI   C3A 6649  17.541   0.221   8.723  0.1680 -0.1374 -0.0389
  416loPI   C4A 6650  17.547   0.222   8.363 -0.2829 -0.2049  0.2873
  416loPI   C5A 6651  17.480   0.371   7.917 -0.2584 -0.1246  0.0873
  416loPI   C6A 6652  17.184   0.577   7.735 -0.0090 -0.2881 -0.0518
  416loPI   C1B 6653  16.924   0.171   9.403  0.0435 -0.0469  0.2437
  416loPI   C2B 6654  17.040   0.227   9.024 -0.0067 -0.0835  0.0472
  416loPI   C3B 6655  17.068   0.354   8.577 -0.4220  0.3350 -0.3406
  416loPI   C4B 6656  17.017   0.378   8.190  0.1703 -0.2612  0.0253
  417loPI    C1 6657   7.358  17.092  10.773  0.0126  0.0915 -0.0983
  417loPI    C2 6658   6.985  17.196  10.874 -0.0564 -0.1915 -0.0533
  417loPI    C3 6659   7.257  17.122  11.159  0.0115 -0.0691 -0.0856
  417loPI   PO4 6660   7.451  17.314  10.596  0.0894  0.2277  0.1317
  417loPI   GL1 6661   7.356  17.489  10.095 -0.0488 -0.0177 -0.2462
  417loPI   GL2 6662   7.343  17.787   9.967 -0.2877  0.0805  0.0817
  417loPI   C1A 6663   7.463  17.436   9.659  0.2824  0.2911  0.1123
  417loPI   C2A 6664   7.411  17.387   9.190 -0.1377  0.1051 -0.2499
  417loPI   C3A 6665   7.465  17.455   8.679  0.1696  0.0033  0.3480
  417loPI   C4A 6666   7.471  17.309   8.250  0.1189 -0.1815 -0.4941
  417loPI   C5A 6667   7.125  17.126   8.109  0.2070 -0.5802  0.3328
  417loPI   C6A 6668   7.101  16.761   8.064 -0.3123 -0.3294  0.0032
  417loPI   C1B 6669   7.234  17.859   9.570 -0.1204  0.3381 -0.1768
  417loPI   C2B 6670   7.209  17.889   9.092  0.3169 -0.0786 -0.0876
  417loPI   C3B 6671   7.133  17.902   8.699  0.0498 -0.1220  0.0076
  417loPI   C4B 6672   7.237  17.830   8.299  0.2201  0.0628  0.0182
  418loPI    C1 6673   3.816   3.938  10.007 -0.0079 -0.2126  0.0769
  418loPI    C2 6674   3.564   4.131  10.250 -0.0431  0.1389 -0.2287
  418loPI    C3 6675   3.831   3.874  10.401 -0.3856 -0.0188  0.1269
  418loPI   PO4 6676   3.702   3.929   9.772  0.0426  0.1361 -0.0617
  418loPI   GL1 6677   3.695   3.734   9.392 -0.2312 -0.1119  0.0588
  418loPI   GL2 6678   3.366   3.865   9.397  0.1643 -0.2217 -0.0047
  418loPI   C1A 6679   3.938   3.911   9.095  0.0892 -0.0033  0.0157
  418loPI   C2A 6680   3.824   4.004   8.737 -0.0214  0.0584  0.2804
  418loPI   C3A 6681   3.700   3.976   8.258  0.0605  0.0709 -0.3235
  418loPI   C4A 6682   3.535   4.261   7.966 -0.0059 -0.1964  0.2384
  418loPI   C5A 6683   3.240   4.226   7.561 -0.0388 -0.2494 -0.0764
  418loPI   C6A 6684   2.896   3.937   7.260 -0.2223 -0.0717 -0.0448
  418loPI   C1B 6685   3.422   3.761   8.969 -0.2117  0.2351 -0.0297
  418loPI   C2B 6686   3.451   3.668   8.528 -0.5368  0.1095  0.1392
  418loPI   C3B 6687   3.597   3.505   8.096 -0.1830  0.1688  0.0201
  418loPI   C4B 6688   3.629   3.221   7.692  0.0729 -0.0478 -0.0276
  419loPI    C1 6689  16.894   5.765  10.339 -0.2322  0.0366 -0.1338
  419loPI    C2 6690  16.810   5.519  10.643 -0.0671  0.2822  0.1154
  419loPI    C3 6691  16.519   5.737  10.477 -0.1712  0.0936  0.0477
  419loPI   PO4 6692  17.132   5.652  10.257 -0.0740 -0.2893 -0.1110
  419loPI   GL1 6693  17.405   5.472  10.069  0.1169 -0.0522  0.0036
  419loPI   GL2 6694  17.777   5.399  10.113 -0.0062  0.3063  0.3716
  419loPI   C1A 6695  17.382   5.356   9.576 -0.2431 -0.0041 -0.0329
  419loPI   C2A 6696  17.446   5.249   9.028 -0.1377  0.2488 -0.0526
  419loPI   C3A 6697  17.486   5.267   8.582  0.1450 -0.2241 -0.0765
  419loPI   C4A 6698  17.608   5.204   8.169  0.1201 -0.1344  0.0776
  419loPI   C5A 6699  17.986   5.237   7.901  0.0073 -0.1418 -0.1044
  419loPI   C6A 6700  18.315   5.351   7.661  0.1033  0.0693 -0.0690
  419loPI   C1B 6701  17.973   5.467   9.679  0.1661 -0.1131  0.0141
  419loPI   C2B 6702  17.940   5.313   9.238  0.3113  0.1641  0.1648
  419loPI   C3B 6703  17.979   5.114   8.836  0.0884 -0.1006 -0.2772
  419loPI   C4B 6704  18.125   5.165   8.445  0.3230 -0.2945 -0.0386
  420loPI    C1 6705   7.097   4.059  10.107 -0.0238 -0.0031 -0.0275
  420loPI    C2 6706   6.825   3.949  10.378  0.0736  0.1152  0.1199
  420loPI    C3 6707   7.197   4.041  10.494  0.1108  0.1841 -0.0517
  420loPI   PO4 6708   7.118   3.878   9.868 -0.0874  0.0802  0.0347
  420loPI   GL1 6709   7.126   3.903   9.465  0.3786 -0.0322  0.1918
  420loPI   GL2 6710   7.475   4.081   9.546 -0.0643  0.3880 -0.2081
  420loPI   C1A 6711   6.970   3.638   9.101 -0.0155 -0.0803 -0.2034
  420loPI   C2A 6712   6.991   3.615   8.717 -0.0248  0.2309  0.1108
  420loPI   C3A 6713   7.002   3.640   8.246 -0.3028  0.0205 -0.1217
  420loPI   C4A 6714   6.926   3.588   7.820  0.1097  0.1481 -0.1545
  420loPI   C5A 6715   6.767   3.733   7.393 -0.2409  0.0427  0.0390
  420loPI   C6A 6716   6.865   3.965   6.932 -0.4978  0.1132  0.0037
  420loPI   C1B 6717   7.568   3.827   9.196 -0.0184  0.1824 -0.0886
  420loPI   C2B 6718   7.508   3.638   8.855 -0.0027 -0.0086  0.1744
  420loPI   C3B 6719   7.444   3.575   8.453 -0.2736  0.2100 -0.1619
  420loPI   C4B 6720   7.478   3.763   8.037  0.0229 -0.0384  0.0153
  421loPI    C1 6721   1.817  13.091  10.737  0.1384  0.2292  0.1031
  421loPI    C2 6722   1.563  13.166  11.036  0.0376  0.2033  0.0244
  421loPI    C3 6723   1.425  13.027  10.687  0.1485  0.2849 -0.0523
  421loPI   PO4 6724   1.966  13.278  10.703 -0.2581  0.1004  0.1381
  421loPI   GL1 6725   2.093  13.574  10.440  0.1482 -0.0957  0.0937
  421loPI   GL2 6726   1.864  13.850  10.440  0.0073  0.0999 -0.0174
  421loPI   C1A 6727   2.021  13.632   9.941 -0.0968 -0.1354  0.0718
  421loPI   C2A 6728   2.051  13.650   9.516  0.1488  0.2562  0.1998
  421loPI   C3A 6729   2.057  13.645   9.039 -0.2127 -0.1690 -0.2355
  421loPI   C4A 6730   2.077  13.618   8.569 -0.0244 -0.0746  0.1461
  421loPI   C5A 6731   1.808  13.505   8.215  0.3847  0.1174  0.1653
  421loPI   C6A 6732   1.759  13.429   7.803  0.2641 -0.0190 -0.2374
  421loPI   C1B 6733   2.160  14.075  10.119 -0.0635 -0.0774  0.0212
  421loPI   C2B 6734   2.373  14.016   9.639 -0.1873  0.1510  0.1481
  421loPI   C3B 6735   2.520  13.780   9.352  0.4443  0.0388  0.1239
  421loPI   C4B 6736   2.591  13.542   9.035 -0.0113 -0.0077 -0.0242
  422loPI    C1 6737   8.823  17.612  10.400  0.1524  0.2584 -0.1765
  422loPI    C2 6738   8.628  17.942  10.284 -0.0798  0.1907  0.0125
  422loPI    C3 6739   8.695  17.875  10.673 -0.1065 -0.0248 -0.0185
  422loPI   PO4 6740   9.102  17.544  10.231  0.1286  0.0234  0.0457
  422loPI   GL1 6741   9.304  17.405   9.821 -0.2157 -0.2861  0.0280
  422loPI   GL2 6742   9.372  17.721   9.593 -0.0585  0.1336  0.0486
  422loPI   C1A 6743   9.259  17.244   9.509  0.1891  0.1906  0.3231
  422loPI   C2A 6744   9.085  17.131   9.085 -0.2491  0.1040  0.0131
  422loPI   C3A 6745   9.037  17.214   8.670  0.2390 -0.0373  0.0341
  422loPI   C4A 6746   8.932  17.001   8.391  0.0670 -0.1513 -0.0783
  422loPI   C5A 6747   8.971  17.208   8.029  0.1717  0.1463  0.3259
  422loPI   C6A 6748   9.110  16.991   7.518 -0.0449 -0.0303 -0.1177
  422loPI   C1B 6749   9.367  17.604   9.117  0.1419 -0.0077  0.0144
  422loPI   C2B 6750   9.239  17.682   8.673 -0.0908  0.0274 -0.3370
  422loPI   C3B 6751   9.267  17.686   8.246  0.1351 -0.0060 -0.0183
  422loPI   C4B 6752   9.523  17.371   8.035 -0.0187 -0.1005  0.1617
  423loPI    C1 6753   1.711  16.424  11.071  0.1059 -0.0754  0.0626
  423loPI    C2 6754   1.623  16.771  11.248 -0.1098 -0.0962 -0.0009
  423loPI    C3 6755   1.975  16.594  11.319  0.1239  0.2793 -0.1922
  423loPI   PO4 6756   1.665  16.457  10.831 -0.0728 -0.1250 -0.0935
  423loPI   GL1 6757   1.583  16.784  10.463 -0.3830  0.3900 -0.1364
  423loPI   GL2 6758   1.801  16.890  10.257  0.4702  0.0894 -0.1739
  423loPI   C1A 6759   1.206  16.854  10.276 -0.0891  0.0595  0.1289
  423loPI   C2A 6760   1.102  16.898   9.910  0.1678  0.0389 -0.2132
  423loPI   C3A 6761   1.099  16.983   9.460  0.1088  0.0041 -0.2121
  423loPI   C4A 6762   1.225  16.945   8.953  0.3470  0.4506 -0.0769
  423loPI   C5A 6763   1.236  17.106   8.522 -0.4026  0.2901 -0.2133
  423loPI   C6A 6764   1.274  16.994   8.066  0.1296 -0.3326  0.2146
  423loPI   C1B 6765   1.600  16.956   9.873 -0.1450  0.1046  0.0347
  423loPI   C2B 6766   1.633  16.949   9.385  0.0936 -0.3460  0.1091
  423loPI   C3B 6767   1.826  16.883   8.966 -0.1452 -0.2751  0.0233
  423loPI   C4B 6768   1.695  16.905   8.551 -0.0058 -0.0903  0.1873
  424loPI    C1 6769   7.433   9.898  10.154 -0.0576  0.1099 -0.1220
  424loPI    C2 6770   7.248  10.252  10.165 -0.4410 -0.0873  0.0076
  424loPI    C3 6771   7.405  10.098  10.499  0.2420  0.2149 -0.1566
  424loPI   PO4 6772   7.240   9.761  10.065  0.3511 -0.0405 -0.0794
  424loPI   GL1 6773   6.974   9.619   9.829 -0.1736 -0.2013 -0.3712
  424loPI   GL2 6774   6.659   9.396   9.897 -0.0391  0.2594  0.3510
  424loPI   C1A 6775   6.846   9.432   9.462 -0.0725 -0.2019  0.0469
  424loPI   C2A 6776   6.755   9.624   9.141  0.0237 -0.2135  0.0353
  424loPI   C3A 6777   6.532   9.813   8.663  0.1701 -0.0328  0.0385
  424loPI   C4A 6778   6.535  10.129   8.358  0.2295  0.1865 -0.3286
  424loPI   C5A 6779   6.416  10.553   8.107  0.0620 -0.2659 -0.0435
  424loPI   C6A 6780   6.033  10.461   7.991  0.0447 -0.2566 -0.0785
  424loPI   C1B 6781   6.378   9.499   9.640  0.2527  0.0808 -0.0563
  424loPI   C2B 6782   6.138   9.746   9.329 -0.0331  0.2314 -0.1409
  424loPI   C3B 6783   6.194   9.995   8.977  0.0065 -0.2056  0.1589
  424loPI   C4B 6784   6.068   9.997   8.545 -0.0312  0.0778 -0.1868
  425loPI    C1 6785   5.011   1.323  10.393 -0.0375  0.1189  0.0902
  425loPI    C2 6786   5.061   1.255  10.784 -0.0702  0.0964  0.0906
  425loPI    C3 6787   4.731   1.125  10.599 -0.1270  0.2421  0.0879
  425loPI   PO4 6788   5.251   1.307  10.245 -0.1478 -0.0348 -0.0157
  425loPI   GL1 6789   5.306   1.407   9.859 -0.0198 -0.2330 -0.4041
  425loPI   GL2 6790   5.344   1.030   9.836 -0.1332  0.1192 -0.0310
  425loPI   C1A 6791   5.367   1.538   9.450  0.0160  0.1229  0.1167
  425loPI   C2A 6792   5.360   1.549   8.958  0.2982 -0.1806 -0.3176
  425loPI   C3A 6793   5.440   1.583   8.517  0.1701 -0.0312  0.1537
  425loPI   C4A 6794   5.327   1.556   7.987 -0.2457  0.1273  0.0541
  425loPI   C5A 6795   5.053   1.741   7.786 -0.2040  0.0930 -0.0059
  425loPI   C6A 6796   4.887   1.744   7.401 -0.0919  0.0570 -0.2588
  425loPI   C1B 6797   5.246   0.665   9.550  0.1485  0.1863 -0.0604
  425loPI   C2B 6798   5.225   0.651   9.133 -0.1680 -0.3207  0.0371
  425loPI   C3B 6799   5.265   0.497   8.743 -0.4352  0.1056 -0.1135
  425loPI   C4B 6800   5.240   0.620   8.341  0.2698  0.1248 -0.1065
  426loPI    C1 6801  10.067  12.820  10.635 -0.1726 -0.0330 -0.0416
  426loPI    C2 6802   9.799  13.093  10.753 -0.0126  0.1139 -0.0139
  426loPI    C3 6803  10.148  13.059  10.945  0.0979  0.1037 -0.2140
  426loPI   PO4 6804  10.154  12.911  10.432  0.0364  0.0560 -0.1715
  426loPI   GL1 6805  10.206  12.842  10.030  0.0249 -0.1770 -0.0456
  426loPI   GL2 6806   9.995  12.511   9.817 -0.0394  0.1292  0.3670
  426loPI   C1A 6807  10.407  13.111   9.734 -0.2632 -0.1630 -0.0232
  426loPI   C2A 6808  10.383  13.290   9.284  0.1803  0.0660 -0.2771
  426loPI   C3A 6809  10.124  13.271   8.910  0.0525  0.0518 -0.2869
  426loPI   C4A 6810  10.001  13.419   8.545 -0.1090  0.3855  0.0071
  426loPI   C5A 6811   9.779  13.417   8.157  0.2360  0.0263 -0.0152
  426loPI   C6A 6812   9.439  13.231   7.947 -0.3656  0.1266  0.0785
  426loPI   C1B 6813  10.000  12.851   9.562 -0.2759 -0.0899 -0.2076
  426loPI   C2B 6814   9.929  12.923   9.152 -0.0457  0.0252 -0.1954
  426loPI   C3B 6815   9.743  13.034   8.768  0.1550 -0.2739  0.0968
  426loPI   C4B 6816   9.871  12.939   8.320  0.0949  0.2215 -0.2941
  427loPI    C1 6817  13.562   2.264  10.661 -0.1920 -0.2225  0.1910
  427loPI    C2 6818  13.947   2.345  10.585 -0.2336 -0.2594 -0.0684
  427loPI    C3 6819  13.784   2.454  10.934 -0.0257 -0.1172 -0.0142
  427loPI   PO4 6820  13.495   2.318  10.415 -0.0744 -0.0002 -0.1848
  427loPI   GL1 6821  13.163   2.294  10.033  0.1433 -0.3174 -0.3150
  427loPI   GL2 6822  13.391   2.488   9.965 -0.1672  0.1392  0.0424
  427loPI   C1A 6823  13.326   2.008   9.686  0.2516 -0.2999  0.4810
  427loPI   C2A 6824  13.318   2.085   9.226  0.1538  0.0361  0.1625
  427loPI   C3A 6825  13.382   1.991   8.884 -0.0824 -0.0092  0.2199
  427loPI   C4A 6826  13.270   1.871   8.411 -0.3478  0.0966 -0.1220
  427loPI   C5A 6827  13.144   1.726   8.096 -0.1235 -0.0427  0.3436
  427loPI   C6A 6828  13.290   1.489   7.742 -0.0038  0.1203 -0.0181
  427loPI   C1B 6829  13.433   2.484   9.572  0.0363  0.0579  0.2052
  427loPI   C2B 6830  13.557   2.501   9.124 -0.1352  0.0796 -0.0135
  427loPI   C3B 6831  13.564   2.419   8.719  0.1969  0.3452  0.1868
  427loPI   C4B 6832  13.573   2.316   8.274 -0.1714 -0.1645 -0.2132
  428loPI    C1 6833  15.177   6.101  10.222  0.1747  0.0318  0.0429
  428loPI    C2 6834  15.169   5.837  10.523  0.3014  0.1704  0.1698
  428loPI    C3 6835  14.866   6.093  10.473  0.1133 -0.0873 -0.0362
  428loPI   PO4 6836  15.172   6.052   9.995 -0.2481  0.3587  0.0233
  428loPI   GL1 6837  15.346   6.322   9.594  0.4221 -0.0319 -0.1006
  428loPI   GL2 6838  15.649   6.223   9.516  0.0652  0.2804 -0.1365
  428loPI   C1A 6839  15.414   6.429   9.133 -0.2411 -0.0057  0.0011
  428loPI   C2A 6840  15.455   6.408   8.662 -0.0264 -0.2935  0.0020
  428loPI   C3A 6841  15.394   6.291   8.277  0.3239  0.1305 -0.3999
  428loPI   C4A 6842  15.375   6.149   7.878 -0.2849  0.0972  0.1268
  428loPI   C5A 6843  15.014   6.334   7.567  0.3678  0.2701  0.2340
  428loPI   C6A 6844  14.705   6.661   7.578  0.0483 -0.1014  0.2913
  428loPI   C1B 6845  15.669   5.957   9.270  0.0513  0.2890  0.2440
  428loPI   C2B 6846  15.748   5.957   8.685  0.2620 -0.1580 -0.0791
  428loPI   C3B 6847  15.652   5.876   8.195  0.3419  0.0017 -0.4130
  428loPI   C4B 6848  15.830   6.024   7.835 -0.2144 -0.1639 -0.2552
  429loPI    C1 6849   5.238   4.159  10.043 -0.0037  0.0692 -0.1168
  429loPI    C2 6850   5.615   4.251  10.142  0.0144 -0.0533 -0.0707
  429loPI    C3 6851   5.357   4.541  10.047 -0.0093  0.0716  0.3531
  429loPI   PO4 6852   5.253   4.002   9.802  0.2173 -0.1758  0.2118
  429loPI   GL1 6853   5.140   3.931   9.340  0.3985 -0.0248 -0.1904
  429loPI   GL2 6854   5.408   3.950   9.299 -0.0719  0.2463  0.2308
  429loPI   C1A 6855   4.841   3.936   9.081 -0.2223  0.0531 -0.1222
  429loPI   C2A 6856   4.859   3.909   8.628  0.2963 -0.6931  0.0851
  429loPI   C3A 6857   4.822   3.786   8.180  0.0465 -0.0388  0.2120
  429loPI   C4A 6858   4.753   4.058   7.733 -0.1985  0.2987  0.0398
  429loPI   C5A 6859   4.581   4.198   7.318  0.1606 -0.0885  0.4737
  429loPI   C6A 6860   4.533   3.976   7.027 -0.2146 -0.1127  0.2161
  429loPI   C1B 6861   5.299   3.811   8.870  0.0564  0.0401 -0.1283
  429loPI   C2B 6862   5.261   3.695   8.460 -0.2746  0.0001  0.2630
  429loPI   C3B 6863   5.308   3.844   8.031 -0.0125  0.1163  0.1807
  429loPI   C4B 6864   5.334   3.572   7.622  0.2899 -0.2988  0.0157
  430loPI    C1 6865  15.677   1.638  10.577  0.1849 -0.0107 -0.1929
  430loPI    C2 6866  15.695   1.416  10.909 -0.2392 -0.0893 -0.2170
  430loPI    C3 6867  15.724   1.814  10.933  0.2137 -0.1216 -0.1413
  430loPI   PO4 6868  15.536   1.424  10.440 -0.3833  0.0873  0.1712
  430loPI   GL1 6869  15.538   1.159  10.002 -0.0793 -0.0438  0.0066
  430loPI   GL2 6870  15.772   0.898   9.944  0.0242 -0.1996 -0.0921
  430loPI   C1A 6871  15.539   1.393   9.590 -0.2038  0.0449 -0.0190
  430loPI   C2A 6872  15.547   1.482   9.142 -0.0927  0.2209 -0.0149
  430loPI   C3A 6873  15.528   1.380   8.786 -0.0616  0.3093  0.3667
  430loPI   C4A 6874  15.685   1.310   8.328 -0.0077 -0.1552 -0.5042
  430loPI   C5A 6875  15.532   1.322   7.969 -0.0361 -0.0936  0.1365
  430loPI   C6A 6876  15.470   1.585   7.672 -0.0633  0.0064  0.2869
  430loPI   C1B 6877  15.802   0.961   9.552 -0.1135  0.1933 -0.0414
  430loPI   C2B 6878  15.699   1.012   9.077 -0.1575  0.1930  0.3792
  430loPI   C3B 6879  15.727   0.955   8.681 -0.1852 -0.0305  0.0387
  430loPI   C4B 6880  15.828   0.871   8.188  0.1014 -0.4134 -0.0951
  431loPI    C1 6881  18.107  10.487  10.708  0.2445  0.1636  0.0083
  431loPI    C2 6882  18.228  10.868  10.735 -0.0489  0.2442  0.2309
  431loPI    C3 6883  18.209  10.640  11.063 -0.0525  0.0931  0.1269
  431loPI   PO4 6884  18.002  10.466  10.542 -0.0518 -0.0371 -0.4790
  431loPI   GL1 6885  18.069  10.476  10.058 -0.0192 -0.0455  0.0876
  431loPI   GL2 6886  18.227  10.176  10.152 -0.0295  0.1401 -0.0793
  431loPI   C1A 6887  18.150  10.593   9.607  0.3019  0.0918 -0.1149
  431loPI   C2A 6888  18.043  10.812   9.235 -0.0235  0.0752 -0.0076
  431loPI   C3A 6889  18.148  10.764   8.829 -0.0759  0.1813 -0.1052
  431loPI   C4A 6890  18.466  10.652   8.369  0.2924 -0.0933 -0.2186
  431loPI   C5A 6891  18.985  10.744   8.116  0.2550 -0.0189 -0.0014
  431loPI   C6A 6892  19.054  10.558   7.727 -0.1211  0.1677 -0.1815
  431loPI   C1B 6893  18.355  10.157   9.682 -0.0094  0.2836  0.2931
  431loPI   C2B 6894  18.321  10.230   9.210 -0.0261 -0.3091 -0.1299
  431loPI   C3B 6895  18.470  10.324   8.791 -0.0169  0.2737 -0.0273
  431loPI   C4B 6896  18.360  10.231   8.250  0.2460 -0.0966  0.2101
  432loPI    C1 6897   4.096   0.814  10.560 -0.2363  0.2618 -0.0609
  432loPI    C2 6898   4.218   1.019  10.881  0.1248  0.0880 -0.0830
  432loPI    C3 6899   4.067   0.651  10.924  0.1066  0.0929 -0.1053
  432loPI   PO4 6900   4.379   0.880  10.386 -0.0836  0.0237  0.0622
  432loPI   GL1 6901   4.570   0.784   9.888 -0.0781 -0.2035  0.1124
  432loPI   GL2 6902   4.743   1.052  10.069  0.0542  0.1011 -0.0026
  432loPI   C1A 6903   4.696   0.761   9.522 -0.2929  0.1689  0.1381
  432loPI   C2A 6904   4.766   0.755   9.186  0.3364  0.2386  0.0267
  432loPI   C3A 6905   4.712   0.644   8.801  0.1066  0.0849 -0.2903
  432loPI   C4A 6906   4.683   0.590   8.315 -0.1377  0.0927 -0.0264
  432loPI   C5A 6907   4.834   0.683   7.964  0.2453  0.2075  0.2584
  432loPI   C6A 6908   4.883   1.060   7.745  0.4247  0.2012 -0.1694
  432loPI   C1B 6909   4.901   1.155   9.713 -0.0293  0.1543 -0.2927
  432loPI   C2B 6910   5.047   1.113   9.339 -0.2505 -0.2568  0.4773
  432loPI   C3B 6911   5.035   1.076   8.909 -0.2829 -0.1448 -0.1165
  432loPI   C4B 6912   4.951   1.020   8.442  0.1079  0.2288 -0.1542
  433loPI    C1 6913   0.531   3.496  10.898 -0.0961  0.1827 -0.1848
  433loPI    C2 6914   0.426   3.139  11.045  0.0565  0.2879  0.1898
  433loPI    C3 6915   0.206   3.463  11.128 -0.0859  0.2832 -0.1555
  433loPI   PO4 6916   0.577   3.468  10.602  0.3176 -0.0018 -0.0229
  433loPI   GL1 6917   0.404   3.529  10.241  0.2854 -0.0570 -0.0887
  433loPI   GL2 6918   0.494   3.251  10.091 -0.0799 -0.2606  0.1825
  433loPI   C1A 6919   0.736   3.653   9.904  0.0405  0.0067 -0.0338
  433loPI   C2A 6920   0.630   3.577   9.498  0.1489  0.1854 -0.1542
  433loPI   C3A 6921   0.650   3.589   9.043 -0.3348  0.0348  0.1012
  433loPI   C4A 6922   0.574   3.487   8.674  0.1361 -0.0147  0.0870
  433loPI   C5A 6923   0.570   3.522   8.178 -0.2148 -0.0670 -0.2363
  433loPI   C6A 6924   0.767   3.449   7.836  0.2293 -0.0684 -0.3576
  433loPI   C1B 6925   0.337   3.228   9.688  0.2406 -0.1593 -0.3913
  433loPI   C2B 6926   0.290   3.199   9.227  0.0004  0.0787  0.2047
  433loPI   C3B 6927   0.155   3.202   8.820  0.2035  0.1360  0.1525
  433loPI   C4B 6928   0.264   3.134   8.420 -0.1140 -0.0147  0.3667
  434loPI    C1 6929  11.095   9.223  10.335  0.1488  0.1399  0.1328
  434loPI    C2 6930  10.848   8.925  10.434  0.2129 -0.0034 -0.1296
  434loPI    C3 6931  10.801   9.286  10.599 -0.1899 -0.0201 -0.1964
  434loPI   PO4 6932  11.110   9.226  10.107 -0.0584 -0.2636 -0.1132
  434loPI   GL1 6933  10.918   9.183   9.654 -0.5194 -0.4863  0.1300
  434loPI   GL2 6934  11.099   8.861   9.548  0.2892  0.1841  0.0510
  434loPI   C1A 6935  11.025   9.276   9.270 -0.0810 -0.0073 -0.3308
  434loPI   C2A 6936  11.220   9.398   8.905 -0.0289 -0.2336 -0.0511
  434loPI   C3A 6937  11.161   9.351   8.492  0.0823 -0.2711  0.0945
  434loPI   C4A 6938  10.981   9.357   8.073 -0.0282  0.0532 -0.1927
  434loPI   C5A 6939  11.036   9.560   7.702 -0.0351  0.0400  0.1505
  434loPI   C6A 6940  10.823   9.935   7.477 -0.0121  0.1877  0.0813
  434loPI   C1B 6941  11.136   8.786   9.098 -0.1423  0.2129 -0.0014
  434loPI   C2B 6942  11.151   8.711   8.678  0.2336 -0.0757  0.1618
  434loPI   C3B 6943  10.997   8.909   8.295 -0.0084  0.1338 -0.1246
  434loPI   C4B 6944  10.668   8.838   7.955  0.1406  0.0768 -0.0962
  435loPI    C1 6945   6.177  14.249  11.031  0.2367  0.0072 -0.1465
  435loPI    C2 6946   6.165  14.319  11.424  0.1338 -0.1778 -0.1154
  435loPI    C3 6947   6.144  14.624  11.166 -0.0468 -0.0746  0.0187
  435loPI   PO4 6948   6.373  14.092  11.047 -0.1713  0.1092 -0.0008
  435loPI   GL1 6949   6.625  13.957  10.741  0.3174 -0.4849 -0.1143
  435loPI   GL2 6950   6.801  14.251  10.603 -0.0483 -0.0076  0.0222
  435loPI   C1A 6951   6.370  13.888  10.364  0.0561 -0.0624 -0.0679
  435loPI   C2A 6952   6.185  13.910   9.947 -0.2622  0.0131  0.0478
  435loPI   C3A 6953   6.254  13.855   9.476 -0.1301 -0.1415  0.1284
  435loPI   C4A 6954   6.380  13.957   9.051  0.2209  0.0413 -0.1072
  435loPI   C5A 6955   6.459  13.984   8.603 -0.3622 -0.2388  0.4315
  435loPI   C6A 6956   6.271  14.165   8.163  0.0703 -0.1815  0.4339
  435loPI   C1B 6957   7.028  14.412  10.224 -0.0691  0.2298  0.0142
  435loPI   C2B 6958   7.086  14.324   9.860  0.1380  0.2585  0.1348
  435loPI   C3B 6959   7.086  14.300   9.475 -0.0051 -0.2257 -0.0787
  435loPI   C4B 6960   7.225  14.154   9.036  0.2556 -0.1665  0.0567
  436loPI    C1 6961   9.337  15.925  11.109 -0.2624 -0.1302 -0.0577
  436loPI    C2 6962   9.276  16.212  11.381 -0.0673 -0.0203 -0.1278
  436loPI    C3 6963   9.341  15.836  11.499  0.1900  0.0579 -0.0130
  436loPI   PO4 6964   9.260  16.109  10.883  0.2164 -0.1767  0.2452
  436loPI   GL1 6965   9.055  16.136  10.443  0.1911 -0.2208 -0.0277
  436loPI   GL2 6966   8.675  16.222  10.415  0.3041 -0.1355 -0.0169
  436loPI   C1A 6967   8.929  16.076   9.925  0.1443 -0.0596  0.3377
  436loPI   C2A 6968   8.896  16.061   9.437 -0.0116  0.0569  0.1039
  436loPI   C3A 6969   8.634  15.852   9.124  0.0500  0.0065  0.1273
  436loPI   C4A 6970   8.577  15.765   8.582  0.0933  0.0029 -0.2726
  436loPI   C5A 6971   8.730  15.721   8.224  0.3360 -0.1243  0.1342
  436loPI   C6A 6972   8.719  15.426   7.903  0.1357 -0.0026  0.0700
  436loPI   C1B 6973   8.605  16.408  10.073  0.0628 -0.1011  0.1097
  436loPI   C2B 6974   8.574  16.453   9.713 -0.1980  0.0443 -0.0131
  436loPI   C3B 6975   8.753  16.459   9.185 -0.2998 -0.3969  0.2124
  436loPI   C4B 6976   8.849  16.334   8.724  0.0375  0.1494 -0.2490
  437loPI    C1 6977   2.608  13.883  11.224 -0.0791  0.0223  0.3081
  437loPI    C2 6978   2.461  13.511  11.205 -0.0074  0.0034  0.0950
  437loPI    C3 6979   2.753  13.598  11.464  0.2394 -0.1835 -0.1160
  437loPI   PO4 6980   2.708  13.938  10.934  0.3795  0.0336 -0.2655
  437loPI   GL1 6981   2.811  13.615  10.585 -0.2154 -0.0725 -0.0312
  437loPI   GL2 6982   2.966  13.753  10.313 -0.0274 -0.1759 -0.1793
  437loPI   C1A 6983   2.508  13.585  10.147  0.1796  0.2343 -0.2843
  437loPI   C2A 6984   2.459  13.431   9.684  0.1040  0.0091  0.1818
  437loPI   C3A 6985   2.256  13.230   9.284 -0.3732 -0.0825  0.3599
  437loPI   C4A 6986   2.308  13.156   8.836 -0.0143  0.0563  0.2610
  437loPI   C5A 6987   2.153  13.151   8.425  0.0541  0.2461  0.0718
  437loPI   C6A 6988   2.095  13.128   8.096 -0.2489  0.2278  0.2211
  437loPI   C1B 6989   2.909  13.972   9.890 -0.1885 -0.1076  0.2124
  437loPI   C2B 6990   2.931  14.015   9.505 -0.1260  0.0313  0.1819
  437loPI   C3B 6991   2.936  14.043   9.096  0.3677 -0.0910  0.0750
  437loPI   C4B 6992   2.902  13.787   8.750 -0.0377 -0.1523  0.1694
  438loPI    C1 6993   2.178   0.278  11.012 -0.0313  0.2598  0.0326
  438loPI    C2 6994   1.988   0.286  11.364 -0.0039  0.1013  0.0520
  438loPI    C3 6995   2.059  -0.063  11.184 -0.0769  0.1860 -0.1440
  438loPI   PO4 6996   2.020   0.362  10.821  0.1981 -0.0365  0.0238
  438loPI   GL1 6997   2.227   0.487  10.402 -0.0594  0.1867 -0.0348
  438loPI   GL2 6998   2.197   0.249  10.393  0.1286 -0.2716  0.0334
  438loPI   C1A 6999   2.228   0.558   9.904 -0.1049 -0.0265 -0.0254
  438loPI   C2A 7000   2.269   0.614   9.379 -0.0660  0.2877  0.0119
  438loPI   C3A 7001   2.219   0.581   8.915  0.0073  0.0637  0.0847
  438loPI   C4A 7002   2.364   0.571   8.457  0.0422  0.2538 -0.0042
  438loPI   C5A 7003   2.582   0.429   8.157 -0.2422  0.0062 -0.0298
  438loPI   C6A 7004   2.688   0.645   7.768 -0.2709 -0.0006 -0.1076
  438loPI   C1B 7005   1.855   0.250  10.025 -0.0167  0.2412  0.1636
  438loPI   C2B 7006   1.941   0.266   9.540 -0.5529 -0.0597 -0.3125
  438loPI   C3B 7007   1.949   0.204   9.106  0.0059 -0.1989 -0.0871
  438loPI   C4B 7008   1.979   0.178   8.669  0.2198 -0.0638 -0.0860
  439loPI    C1 7009   2.748  12.891  10.833 -0.0574 -0.1897 -0.0065
  439loPI    C2 7010   3.014  13.134  10.659  0.0165 -0.1559  0.1519
  439loPI    C3 7011   2.808  13.259  10.979 -0.3931 -0.0803 -0.1322
  439loPI   PO4 7012   2.866  12.618  10.835 -0.0207 -0.0260  0.0361
  439loPI   GL1 7013   3.051  12.290  10.609 -0.3747 -0.0533  0.0094
  439loPI   GL2 7014   2.789  12.168  10.500 -0.0662 -0.0775  0.1016
  439loPI   C1A 7015   3.297  12.108  10.324  0.0132  0.4603  0.1440
  439loPI   C2A 7016   3.258  11.960   9.949 -0.0417 -0.1250  0.0777
  439loPI   C3A 7017   3.310  12.005   9.546 -0.2955  0.2794 -0.2622
  439loPI   C4A 7018   3.122  12.061   9.164  0.0065 -0.0374 -0.0455
  439loPI   C5A 7019   3.246  12.129   8.800  0.0761  0.0483  0.3384
  439loPI   C6A 7020   3.547  12.401   8.622 -0.0503  0.1883 -0.1878
  439loPI   C1B 7021   2.883  12.346  10.052  0.2368 -0.2122  0.1084
  439loPI   C2B 7022   2.746  12.402   9.586  0.1118  0.2229 -0.2543
  439loPI   C3B 7023   2.687  12.507   9.212 -0.0822  0.2484  0.1282
  439loPI   C4B 7024   2.649  12.237   8.732 -0.2899 -0.0937 -0.3785
  440loPI    C1 7025  11.069   8.388  10.390 -0.1677 -0.3091  0.2188
  440loPI    C2 7026  11.388   8.176  10.273 -0.1034 -0.0199 -0.1515
  440loPI    C3 7027  11.183   8.067  10.599  0.2082 -0.3685 -0.0655
  440loPI   PO4 7028  10.919   8.420  10.246  0.0487 -0.1812 -0.0236
  440loPI   GL1 7029  10.728   8.355   9.775  0.2010 -0.4081 -0.1597
  440loPI   GL2 7030  10.653   7.995   9.762 -0.0098  0.0141 -0.4866
  440loPI   C1A 7031  10.900   8.429   9.421 -0.2234 -0.1262  0.0128
  440loPI   C2A 7032  11.025   8.327   8.971 -0.1472  0.0820 -0.1882
  440loPI   C3A 7033  11.069   8.265   8.527  0.3481 -0.1421  0.1427
  440loPI   C4A 7034  11.237   8.379   8.122  0.0198  0.2078 -0.1814
  440loPI   C5A 7035  11.047   8.417   7.772  0.2887 -0.0308  0.2012
  440loPI   C6A 7036  10.984   8.356   7.398  0.1516 -0.0576  0.3332
  440loPI   C1B 7037  10.862   7.836   9.396  0.1841  0.1440 -0.1579
  440loPI   C2B 7038  10.842   7.866   8.852  0.0640 -0.1645 -0.1356
  440loPI   C3B 7039  10.729   7.911   8.465 -0.0572 -0.2388 -0.0208
  440loPI   C4B 7040  10.889   7.993   8.018 -0.1102  0.0956 -0.1283
  441loPI    C1 7041   5.154  14.650  10.765 -0.3170  0.0585 -0.2320
  441loPI    C2 7042   4.902  14.349  10.844  0.0722 -0.1832  0.1307
  441loPI    C3 7043   5.246  14.277  10.652  0.0448  0.0793 -0.0220
  441loPI   PO4 7044   5.089  14.779  10.730  0.1223  0.0850  0.0545
  441loPI   GL1 7045   4.953  14.974  10.326  0.2092  0.1337  0.1640
  441loPI   GL2 7046   5.120  14.734  10.241 -0.0344 -0.0093  0.1405
  441loPI   C1A 7047   4.987  14.982   9.787  0.1259  0.0223 -0.2333
  441loPI   C2A 7048   4.948  15.001   9.370 -0.0865  0.2444  0.1266
  441loPI   C3A 7049   5.046  14.948   8.974  0.1122  0.2109  0.1417
  441loPI   C4A 7050   4.890  14.820   8.569 -0.0048  0.0404 -0.0330
  441loPI   C5A 7051   5.057  14.586   8.194 -0.1578  0.1470  0.0122
  441loPI   C6A 7052   4.824  14.502   7.798  0.1543  0.0487  0.0864
  441loPI   C1B 7053   5.327  14.424  10.163  0.0938 -0.0597  0.2006
  441loPI   C2B 7054   5.243  14.354   9.789  0.2277  0.0325  0.0036
  441loPI   C3B 7055   5.164  14.502   9.361 -0.2522 -0.1706  0.1472
  441loPI   C4B 7056   5.179  14.454   8.885 -0.0598  0.0591 -0.1211
  442loPI    C1 7057  13.934  13.922  10.338 -0.2519 -0.0957  0.1540
  442loPI    C2 7058  13.666  14.216  10.296 -0.0059  0.1305  0.1395
  442loPI    C3 7059  13.670  13.995  10.629 -0.1716  0.1645  0.1645
  442loPI   PO4 7060  14.106  14.009  10.282  0.2054  0.0338 -0.0297
  442loPI   GL1 7061  14.392  14.066  10.000  0.2084 -0.2872 -0.0255
  442loPI   GL2 7062  14.456  13.786   9.783  0.2745  0.2446 -0.1704
  442loPI   C1A 7063  14.271  14.174   9.583  0.0657  0.1344 -0.0422
  442loPI   C2A 7064  14.368  14.150   9.162 -0.3310 -0.2825 -0.0027
  442loPI   C3A 7065  14.434  14.102   8.764  0.1221  0.2002  0.0606
  442loPI   C4A 7066  14.410  14.451   8.363 -0.0904  0.1723  0.1987
  442loPI   C5A 7067  14.564  14.770   8.100 -0.0855  0.1646  0.2876
  442loPI   C6A 7068  14.323  14.978   7.848  0.4106 -0.1289  0.1155
  442loPI   C1B 7069  14.652  13.701   9.476 -0.0324  0.0541 -0.3584
  442loPI   C2B 7070  14.590  13.689   9.007 -0.0198  0.1593 -0.0070
  442loPI   C3B 7071  14.699  13.746   8.511 -0.1098  0.3404  0.3201
  442loPI   C4B 7072  14.764  14.097   8.205 -0.0530 -0.1854  0.1224
  443loPI    C1 7073   9.350  15.051  10.938  0.1854  0.1876 -0.0025
  443loPI    C2 7074   9.257  15.350  11.186  0.3274  0.1827  0.0577
  443loPI    C3 7075   9.595  15.143  11.240  0.1943 -0.0376  0.0611
  443loPI   PO4 7076   9.078  15.123  10.725  0.0262  0.2498 -0.3373
  443loPI   GL1 7077   9.011  15.124  10.247 -0.0735  0.1815 -0.2256
  443loPI   GL2 7078   9.317  15.312  10.118  0.0028  0.1235 -0.0767
  443loPI   C1A 7079   8.983  14.973   9.860  0.0102  0.0378  0.1426
  443loPI   C2A 7080   9.095  14.933   9.521  0.2073 -0.0027  0.0242
  443loPI   C3A 7081   8.969  14.889   9.118 -0.1851 -0.2655 -0.0610
  443loPI   C4A 7082   8.975  14.774   8.728 -0.1970 -0.0775  0.0162
  443loPI   C5A 7083   8.997  14.335   8.546 -0.0029  0.1302  0.0591
  443loPI   C6A 7084   9.247  14.047   8.666 -0.2011  0.1781  0.3747
  443loPI   C1B 7085   9.385  15.306   9.728  0.1885 -0.1351  0.0207
  443loPI   C2B 7086   9.316  15.277   9.291 -0.0401  0.2110  0.0325
  443loPI   C3B 7087   9.234  15.323   8.858 -0.1612  0.0745 -0.1403
  443loPI   C4B 7088   9.256  15.451   8.462  0.1559  0.3578  0.1905
  444loPI    C1 7089   7.596  16.595  10.752 -0.2104 -0.1637  0.3441
  444loPI    C2 7090   7.797  16.258  10.677 -0.1762 -0.1320  0.2930
  444loPI    C3 7091   7.945  16.526  10.934  0.0076  0.0396  0.0133
  444loPI   PO4 7092   7.490  16.640  10.597  0.0936 -0.0495 -0.0289
  444loPI   GL1 7093   7.535  16.467  10.262 -0.1443 -0.0336  0.0024
  444loPI   GL2 7094   7.232  16.594  10.198 -0.1143  0.1517 -0.0088
  444loPI   C1A 7095   7.545  16.270   9.903  0.0627 -0.2771  0.0863
  444loPI   C2A 7096   7.546  16.108   9.517 -0.0305 -0.1257 -0.2033
  444loPI   C3A 7097   7.497  16.059   9.126 -0.0031  0.0289 -0.0787
  444loPI   C4A 7098   7.561  16.029   8.710 -0.1422 -0.1701 -0.1714
  444loPI   C5A 7099   7.453  16.037   8.201  0.0498  0.5800  0.0449
  444loPI   C6A 7100   7.445  15.968   7.738 -0.1445  0.1285 -0.1325
  444loPI   C1B 7101   7.238  16.641   9.829 -0.3514 -0.1529 -0.0490
  444loPI   C2B 7102   7.243  16.553   9.422  0.0232 -0.1279  0.1806
  444loPI   C3B 7103   7.294  16.542   8.970  0.0474 -0.1781  0.0271
  444loPI   C4B 7104   7.332  16.435   8.534  0.0800 -0.4311 -0.0045
  445loPI    C1 7105  11.610  11.502  10.435  0.0909  0.0100 -0.0530
  445loPI    C2 7106  11.688  11.147  10.604  0.2633 -0.0253 -0.2036
  445loPI    C3 7107  11.485  11.426  10.807  0.0397 -0.2454 -0.1205
  445loPI   PO4 7108  11.677  11.374  10.146 -0.1904 -0.2738 -0.0393
  445loPI   GL1 7109  11.345  11.282   9.852  0.2125  0.0018 -0.1621
  445loPI   GL2 7110  11.455  11.605   9.772 -0.0046  0.0506  0.2134
  445loPI   C1A 7111  11.276  11.157   9.420 -0.2823 -0.0486 -0.0704
  445loPI   C2A 7112  11.321  11.096   9.112  0.0267 -0.2421  0.0423
  445loPI   C3A 7113  11.247  11.207   8.724  0.1991  0.2388  0.1677
  445loPI   C4A 7114  11.085  11.375   8.312  0.0865 -0.2017  0.0215
  445loPI   C5A 7115  10.843  11.454   7.928 -0.2523 -0.0137 -0.0928
  445loPI   C6A 7116  10.463  11.354   7.780  0.2864  0.2710 -0.2693
  445loPI   C1B 7117  11.610  11.631   9.425 -0.0271  0.0437  0.2344
  445loPI   C2B 7118  11.470  11.568   9.101 -0.1251 -0.1851  0.2719
  445loPI   C3B 7119  11.246  11.766   8.765 -0.0557 -0.0160 -0.0857
  445loPI   C4B 7120  11.331  11.852   8.302 -0.1833  0.1290  0.0911
  446loPI    C1 7121   2.162   1.407  10.883  0.0717  0.0562 -0.0280
  446loPI    C2 7122   2.479   1.539  11.089  0.0827 -0.0730  0.0387
  446loPI    C3 7123   2.270   1.224  11.222 -0.0999  0.0379  0.0174
  446loPI   PO4 7124   2.226   1.352  10.635 -0.1419 -0.2178 -0.0299
  446loPI   GL1 7125   2.388   1.284  10.292  0.1837 -0.1204  0.0154
  446loPI   GL2 7126   2.474   0.881  10.327  0.3596  0.0101 -0.1895
  446loPI   C1A 7127   2.372   1.460   9.943 -0.1604 -0.0443 -0.1509
  446loPI   C2A 7128   2.370   1.546   9.538 -0.1467  0.0017  0.0710
  446loPI   C3A 7129   2.313   1.529   9.140  0.0639 -0.0637  0.1213
  446loPI   C4A 7130   2.372   1.430   8.772 -0.3839  0.0719 -0.1084
  446loPI   C5A 7131   2.217   1.472   8.319  0.3282 -0.0450 -0.0013
  446loPI   C6A 7132   2.015   1.740   8.004  0.3057  0.2924 -0.2127
  446loPI   C1B 7133   2.625   0.953   9.932 -0.3292  0.2274 -0.1201
  446loPI   C2B 7134   2.570   1.044   9.512 -0.0448  0.1702 -0.0416
  446loPI   C3B 7135   2.551   1.076   9.073  0.0637 -0.4273  0.1761
  446loPI   C4B 7136   2.561   0.999   8.637 -0.2009  0.2433 -0.1011
  447loPI    C1 7137   2.811   6.803  10.232 -0.0942 -0.0178 -0.1019
  447loPI    C2 7138   2.529   6.753   9.953  0.0785 -0.1987 -0.2474
  447loPI    C3 7139   2.515   6.540  10.291 -0.1219  0.0088 -0.1219
  447loPI   PO4 7140   3.079   6.811  10.044 -0.0705 -0.1842 -0.3212
  447loPI   GL1 7141   3.080   7.052   9.757 -0.0944  0.2296 -0.0112
  447loPI   GL2 7142   2.751   7.144   9.838 -0.5684 -0.3147  0.2237
  447loPI   C1A 7143   3.116   6.970   9.388  0.0697 -0.1496  0.0501
  447loPI   C2A 7144   3.198   6.947   8.946 -0.0863  0.0622  0.0301
  447loPI   C3A 7145   3.112   6.911   8.584 -0.0784 -0.1258  0.0565
  447loPI   C4A 7146   3.122   6.684   8.166 -0.0045 -0.1503  0.0336
  447loPI   C5A 7147   3.314   6.588   7.856 -0.2385  0.0466 -0.1126
  447loPI   C6A 7148   3.362   6.270   7.688 -0.0518  0.1031  0.1525
  447loPI   C1B 7149   2.602   6.870   9.439  0.0620  0.0631 -0.3348
  447loPI   C2B 7150   2.729   6.864   9.097  0.1778  0.1922 -0.1240
  447loPI   C3B 7151   2.610   6.836   8.687 -0.3281 -0.0228 -0.0587
  447loPI   C4B 7152   2.704   6.934   8.262  0.1926  0.2284  0.1202
  448loPI    C1 7153   5.139  11.012  10.626 -0.0561  0.0218 -0.0382
  448loPI    C2 7154   4.993  11.115  10.984 -0.1746  0.2513 -0.1505
  448loPI    C3 7155   5.386  11.140  10.913 -0.1191 -0.0313  0.0402
  448loPI   PO4 7156   5.044  11.061  10.469  0.0424 -0.0657 -0.0661
  448loPI   GL1 7157   5.116  10.919   9.955 -0.1076  0.0080  0.2458
  448loPI   GL2 7158   4.863  10.948   9.907  0.2220  0.0461 -0.0092
  448loPI   C1A 7159   5.104  10.873   9.497 -0.1979  0.0789  0.0754
  448loPI   C2A 7160   4.963  10.881   9.167 -0.1401 -0.1015  0.0693
  448loPI   C3A 7161   4.833  10.984   8.776  0.2517 -0.1868  0.0360
  448loPI   C4A 7162   4.674  11.014   8.443 -0.0542 -0.0315  0.0513
  448loPI   C5A 7163   4.606  10.978   8.021 -0.1226  0.0544  0.2005
  448loPI   C6A 7164   4.668  10.938   7.577 -0.0900 -0.1840 -0.3359
  448loPI   C1B 7165   4.676  11.114   9.442  0.0855 -0.2338  0.3918
  448loPI   C2B 7166   4.462  11.201   9.020  0.0481  0.0166 -0.0498
  448loPI   C3B 7167   4.218  11.207   8.722 -0.2566 -0.0324 -0.0727
  448loPI   C4B 7168   4.173  11.031   8.266  0.4351  0.1374  0.1959
  449loPI    C1 7169   6.048  12.613  11.048  0.0484  0.0704 -0.0026
  449loPI    C2 7170   6.374  12.805  11.178  0.2543 -0.2469 -0.0375
  449loPI    C3 7171   6.372  12.405  11.160 -0.1794 -0.2539  0.0682
  449loPI   PO4 7172   5.944  12.690  10.769  0.1897  0.0201 -0.1794
  449loPI   GL1 7173   5.794  12.738  10.430 -0.0245 -0.0879  0.1842
  449loPI   GL2 7174   5.606  13.007  10.472  0.0195 -0.1356  0.1881
  449loPI   C1A 7175   5.803  12.632  10.013 -0.4171 -0.2359 -0.2609
  449loPI   C2A 7176   5.747  12.480   9.608 -0.0661  0.2068 -0.2151
  449loPI   C3A 7177   5.923  12.550   9.195  0.1489  0.3983  0.3232
  449loPI   C4A 7178   6.147  12.720   8.878  0.4048 -0.5316 -0.1971
  449loPI   C5A 7179   6.267  12.742   8.399 -0.0721 -0.0900  0.1187
  449loPI   C6A 7180   6.616  12.826   8.172  0.1671 -0.1194 -0.0268
  449loPI   C1B 7181   5.512  13.112  10.076  0.0196 -0.1300 -0.0270
  449loPI   C2B 7182   5.496  12.921   9.642  0.1951 -0.0829 -0.1020
  449loPI   C3B 7183   5.583  12.911   9.165  0.0307  0.0457  0.2057
  449loPI   C4B 7184   5.678  12.760   8.764  0.0277 -0.0682 -0.1796
  450loPI    C1 7185   5.787  17.329  10.823 -0.0664 -0.0813  0.0170
  450loPI    C2 7186   6.110  17.226  11.034 -0.0971 -0.0833  0.0632
  450loPI    C3 7187   5.756  17.263  11.216 -0.0872  0.1011  0.0473
  450loPI   PO4 7188   5.779  17.137  10.679  0.2643  0.0915  0.1503
  450loPI   GL1 7189   5.896  16.767  10.597 -0.0642  0.3742 -0.1522
  450loPI   GL2 7190   6.102  16.496  10.465 -0.2921 -0.0251  0.1367
  450loPI   C1A 7191   5.740  16.708  10.139 -0.1097 -0.1659 -0.1364
  450loPI   C2A 7192   5.708  16.738   9.744  0.0855 -0.3301  0.0779
  450loPI   C3A 7193   5.699  16.728   9.274 -0.1367 -0.0998  0.1557
  450loPI   C4A 7194   5.845  16.617   8.818  0.0753 -0.0299 -0.2406
  450loPI   C5A 7195   5.764  16.476   8.454 -0.2620  0.4220  0.1483
  450loPI   C6A 7196   5.886  16.063   8.293  0.0330 -0.0314  0.3360
  450loPI   C1B 7197   5.997  16.224  10.163 -0.0102 -0.2369 -0.0970
  450loPI   C2B 7198   5.854  16.187   9.681 -0.1101  0.0873  0.1948
  450loPI   C3B 7199   5.960  16.253   9.204  0.1923  0.0270 -0.2451
  450loPI   C4B 7200   5.980  16.160   8.743  0.0330  0.0237  0.0453
  451loPI    C1 7201   2.160  17.124  11.191  0.1885 -0.1676 -0.0993
  451loPI    C2 7202   2.385  17.072  11.518 -0.0013 -0.2278  0.0234
  451loPI    C3 7203   1.986  17.062  11.545 -0.0187 -0.2593 -0.2154
  451loPI   PO4 7204   2.270  17.260  10.987  0.0326 -0.1305  0.1567
  451loPI   GL1 7205   2.326  17.128  10.595  0.1434  0.4559  0.1849
  451loPI   GL2 7206   1.994  17.230  10.573  0.0298 -0.2347  0.2882
  451loPI   C1A 7207   2.474  17.043  10.294 -0.2190 -0.1948  0.2319
  451loPI   C2A 7208   2.466  17.122   9.851 -0.0877  0.0103  0.0061
  451loPI   C3A 7209   2.484  17.235   9.460  0.2083 -0.2175  0.2488
  451loPI   C4A 7210   2.574  17.209   8.997  0.0558  0.0152  0.4748
  451loPI   C5A 7211   2.371  17.165   8.438  0.1502 -0.0293 -0.1309
  451loPI   C6A 7212   2.053  17.360   8.255  0.0616 -0.1688  0.1305
  451loPI   C1B 7213   2.050  17.311  10.129 -0.2621 -0.1745 -0.3627
  451loPI   C2B 7214   2.008  17.184   9.710 -0.2693  0.1322  0.3160
  451loPI   C3B 7215   2.052  17.259   9.296  0.0377 -0.0222  0.1313
  451loPI   C4B 7216   2.008  17.298   8.836 -0.0384  0.1713 -0.1255
  452loPI    C1 7217  16.101   5.381  10.559  0.1820  0.0089 -0.2354
  452loPI    C2 7218  16.001   5.364  10.946 -0.1037  0.0439 -0.3049
  452loPI    C3 7219  16.376   5.456  10.839  0.0927 -0.4039 -0.0299
  452loPI   PO4 7220  15.881   5.473  10.419  0.2282  0.0349 -0.0507
  452loPI   GL1 7221  15.933   5.292   9.960 -0.2423  0.1471 -0.0676
  452loPI   GL2 7222  15.603   5.282   9.929  0.2214  0.3799  0.0648
  452loPI   C1A 7223  15.839   5.447   9.489 -0.0540  0.0127  0.1482
  452loPI   C2A 7224  15.887   5.530   8.998 -0.1576 -0.2154 -0.1459
  452loPI   C3A 7225  15.936   5.489   8.574  0.0307  0.2925  0.0681
  452loPI   C4A 7226  15.967   5.420   8.079 -0.0907 -0.1131  0.0943
  452loPI   C5A 7227  16.079   5.148   7.683  0.1063 -0.3046 -0.0701
  452loPI   C6A 7228  16.130   4.792   7.362 -0.2504  0.1803 -0.1721
  452loPI   C1B 7229  15.474   5.084   9.615 -0.1711  0.0121 -0.1826
  452loPI   C2B 7230  15.488   5.070   9.164  0.0384 -0.2118 -0.1398
  452loPI   C3B 7231  15.477   5.064   8.683 -0.2639 -0.0379 -0.1522
  452loPI   C4B 7232  15.625   5.019   8.288 -0.1484 -0.2621  0.2518
  453loPI    C1 7233  11.809  13.911  10.470 -0.1133 -0.2210 -0.0919
  453loPI    C2 7234  11.918  13.801  10.839 -0.0232  0.0551 -0.0338
  453loPI    C3 7235  11.803  13.525  10.573  0.1658 -0.1725  0.1170
  453loPI   PO4 7236  11.715  14.155  10.499 -0.3648 -0.1637  0.2923
  453loPI   GL1 7237  11.611  14.432  10.247  0.1236 -0.2305 -0.1977
  453loPI   GL2 7238  11.347  14.322  10.063  0.1508  0.2545  0.0687
  453loPI   C1A 7239  11.788  14.503   9.858 -0.1365  0.1300 -0.0310
  453loPI   C2A 7240  11.737  14.574   9.440 -0.1162 -0.0878  0.3868
  453loPI   C3A 7241  11.712  14.710   9.022  0.2041 -0.1316 -0.4087
  453loPI   C4A 7242  11.482  14.618   8.603 -0.0981 -0.0363  0.1614
  453loPI   C5A 7243  11.580  14.461   8.220  0.0753 -0.1145 -0.0607
  453loPI   C6A 7244  11.658  14.588   7.890 -0.1380  0.0558 -0.2105
  453loPI   C1B 7245  11.329  14.319   9.578  0.4164 -0.0626  0.2181
  453loPI   C2B 7246  11.275  14.275   9.089 -0.0001  0.2469  0.3362
  453loPI   C3B 7247  11.169  14.187   8.727 -0.2294 -0.0278  0.0945
  453loPI   C4B 7248  11.228  14.078   8.278  0.2286  0.0486  0.0789
  454loPI    C1 7249   8.099  17.967  10.507  0.2045 -0.2163  0.1031
  454loPI    C2 7250   8.331  18.153  10.775 -0.0611  0.1488  0.0882
  454loPI    C3 7251   7.966  18.028  10.880  0.0317 -0.1766  0.0359
  454loPI   PO4 7252   8.103  18.067  10.335 -0.1765 -0.1609 -0.1866
  454loPI   GL1 7253   8.328  18.198   9.979  0.2884  0.0618 -0.2415
  454loPI   GL2 7254   8.281  17.845   9.914 -0.2719  0.0607  0.3829
  454loPI   C1A 7255   8.144  18.328   9.621  0.3628  0.0781 -0.3063
  454loPI   C2A 7256   8.061  18.253   9.090  0.0511  0.1573  0.1298
  454loPI   C3A 7257   8.019  18.239   8.700 -0.0130  0.1411 -0.0471
  454loPI   C4A 7258   7.955  18.307   8.260 -0.1742  0.2137 -0.0095
  454loPI   C5A 7259   7.931  18.194   7.865  0.3989 -0.0528  0.2443
  454loPI   C6A 7260   7.868  17.706   7.646  0.0639 -0.0372 -0.2992
  454loPI   C1B 7261   8.288  17.864   9.463 -0.1032  0.2025  0.0551
  454loPI   C2B 7262   8.235  17.798   9.083 -0.0767 -0.0859 -0.1731
  454loPI   C3B 7263   8.271  17.702   8.550  0.0236 -0.0191  0.0655
  454loPI   C4B 7264   8.239  17.796   8.046  0.4916 -0.1128  0.1471
  455loPI    C1 7265  18.448   6.801  10.374  0.1327  0.0717 -0.0940
  455loPI    C2 7266  18.726   6.860  10.655 -0.0697  0.0598  0.1113
  455loPI    C3 7267  18.347   6.787  10.761 -0.1266 -0.0560 -0.1640
  455loPI   PO4 7268  18.465   7.025  10.186  0.0583  0.2015  0.1312
  455loPI   GL1 7269  18.587   7.230   9.907 -0.0918  0.2930  0.1892
  455loPI   GL2 7270  18.706   7.477   9.753  0.0141  0.0720  0.1433
  455loPI   C1A 7271  18.671   6.930   9.585 -0.1743 -0.3119 -0.1176
  455loPI   C2A 7272  18.683   6.882   9.175  0.0345  0.0296 -0.0752
  455loPI   C3A 7273  18.823   6.868   8.760  0.1982  0.2506  0.0300
  455loPI   C4A 7274  18.839   6.862   8.267 -0.3542 -0.0762 -0.0703
  455loPI   C5A 7275  18.924   6.906   7.803 -0.2175  0.1555 -0.0139
  455loPI   C6A 7276  19.288   6.697   7.680  0.1056 -0.1723 -0.0743
  455loPI   C1B 7277  18.437   7.314   9.378  0.2759  0.0110  0.0130
  455loPI   C2B 7278  18.505   7.284   8.948 -0.0683  0.0539 -0.1079
  455loPI   C3B 7279  18.459   7.242   8.587  0.0060 -0.0161  0.2275
  455loPI   C4B 7280  18.630   7.457   8.233 -0.2482  0.2495 -0.1234
  456loPI    C1 7281   9.370   8.210  10.171 -0.0096 -0.0558 -0.0668
  456loPI    C2 7282   9.216   8.570  10.254  0.0575  0.0011 -0.1864
  456loPI    C3 7283   9.528   8.432  10.464 -0.2079 -0.1522  0.1158
  456loPI   PO4 7284   9.464   8.173   9.924  0.0108  0.0574 -0.1116
  456loPI   GL1 7285   9.406   7.997   9.468  0.2116  0.1619  0.2363
  456loPI   GL2 7286   9.266   7.737   9.374  0.1648  0.1819  0.0842
  456loPI   C1A 7287   9.308   8.032   8.957 -0.0370  0.2900 -0.0172
  456loPI   C2A 7288   9.387   7.989   8.565  0.0188  0.2897 -0.3064
  456loPI   C3A 7289   9.303   7.878   8.071 -0.4079 -0.2091 -0.2419
  456loPI   C4A 7290   9.410   7.821   7.659 -0.0670 -0.1397 -0.0913
  456loPI   C5A 7291   9.463   8.145   7.413 -0.2195 -0.2773  0.2285
  456loPI   C6A 7292   9.502   8.535   7.125 -0.0738 -0.1296 -0.1123
  456loPI   C1B 7293   9.690   7.803   9.120  0.0905  0.0528 -0.0276
  456loPI   C2B 7294   9.845   7.777   8.720  0.2778 -0.0182 -0.0320
  456loPI   C3B 7295   9.764   7.871   8.339 -0.2261 -0.1522  0.2903
  456loPI   C4B 7296   9.752   8.066   7.947 -0.2533 -0.1203  0.2050
  457loPI    C1 7297  11.063   0.192  10.435 -0.2042 -0.0434 -0.1958
  457loPI    C2 7298  10.871  -0.087  10.647 -0.0192 -0.1019 -0.1039
  457loPI    C3 7299  10.964   0.264  10.816 -0.1377 -0.0330 -0.1803
  457loPI   PO4 7300  11.223   0.095  10.292 -0.1097  0.1708  0.0347
  457loPI   GL1 7301  11.115  -0.039   9.938  0.2520  0.0786  0.0706
  457loPI   GL2 7302  11.072   0.270   9.799  0.0409 -0.1265  0.0609
  457loPI   C1A 7303  10.937  -0.327   9.738 -0.2577 -0.0613  0.0290
  457loPI   C2A 7304  10.708  -0.400   9.346  0.0194  0.0414  0.1247
  457loPI   C3A 7305  10.681  -0.439   8.907 -0.2850  0.0277 -0.2706
  457loPI   C4A 7306  10.557  -0.527   8.480 -0.3547  0.0059  0.0409
  457loPI   C5A 7307  10.659  -0.771   8.081 -0.0480 -0.1204 -0.0442
  457loPI   C6A 7308  10.755  -0.898   7.573  0.0324 -0.5508  0.2435
  457loPI   C1B 7309  11.039   0.097   9.388  0.2730 -0.0912 -0.2007
  457loPI   C2B 7310  11.081   0.016   9.017  0.0748  0.0081  0.1935
  457loPI   C3B 7311  10.924  -0.074   8.608 -0.2769 -0.1427 -0.0277
  457loPI   C4B 7312  10.923  -0.249   8.189  0.0605 -0.0866 -0.2172
  458loPI    C1 7313  13.701   9.518  10.177  0.1744 -0.1116  0.0755
  458loPI    C2 7314  13.535   9.868  10.276  0.1077 -0.0838 -0.1285
  458loPI    C3 7315  13.669   9.623  10.561 -0.1882 -0.0600  0.0354
  458loPI   PO4 7316  13.765   9.607   9.867  0.2427 -0.0512  0.2485
  458loPI   GL1 7317  13.861   9.402   9.537 -0.0297  0.2130 -0.1394
  458loPI   GL2 7318  13.486   9.511   9.451 -0.0758  0.0195 -0.4058
  458loPI   C1A 7319  13.774   9.469   9.043 -0.1623 -0.3253 -0.4525
  458loPI   C2A 7320  13.862   9.623   8.682 -0.1809  0.3663  0.2877
  458loPI   C3A 7321  14.072   9.821   8.241 -0.0248 -0.0868  0.0280
  458loPI   C4A 7322  14.207   9.890   7.920 -0.0409 -0.1038 -0.0484
  458loPI   C5A 7323  14.558   9.911   7.665 -0.0092 -0.2250  0.0441
  458loPI   C6A 7324  14.797   9.788   7.171 -0.0606 -0.1873  0.0864
  458loPI   C1B 7325  13.276   9.559   9.015  0.2739 -0.0058 -0.1575
  458loPI   C2B 7326  13.387   9.469   8.480 -0.0049 -0.2395 -0.5660
  458loPI   C3B 7327  13.253   9.189   8.184 -0.1508  0.1811  0.1289
  458loPI   C4B 7328  13.177   9.041   7.791  0.2760 -0.2711 -0.0113
  459loPI    C1 7329   0.602   5.949  10.379 -0.1122 -0.0291  0.1233
  459loPI    C2 7330   0.577   5.696  10.687  0.2935  0.0506  0.2272
  459loPI    C3 7331   0.535   6.090  10.747 -0.0339  0.0366  0.1125
  459loPI   PO4 7332   0.561   5.646  10.206  0.1527 -0.1552  0.0133
  459loPI   GL1 7333   0.611   5.645   9.875 -0.3512 -0.0518 -0.1527
  459loPI   GL2 7334   0.893   5.847   9.909  0.0636 -0.0992 -0.4133
  459loPI   C1A 7335   0.527   5.651   9.474  0.0172 -0.1577  0.1515
  459loPI   C2A 7336   0.326   5.582   9.025 -0.1837 -0.5288  0.0884
  459loPI   C3A 7337   0.408   5.619   8.509 -0.1665 -0.3567  0.1306
  459loPI   C4A 7338   0.596   5.866   8.198  0.0287  0.2958  0.3356
  459loPI   C5A 7339   0.917   5.779   7.828 -0.2501  0.2443 -0.0826
  459loPI   C6A 7340   1.375   5.879   7.847  0.0229  0.1107 -0.1345
  459loPI   C1B 7341   1.055   5.936   9.501  0.1488  0.2501  0.2801
  459loPI   C2B 7342   1.108   5.910   9.124  0.0019  0.3123 -0.0780
  459loPI   C3B 7343   1.436   5.885   8.750 -0.0144  0.0558 -0.0315
  459loPI   C4B 7344   1.482   6.013   8.416 -0.0013 -0.0626  0.1757
  460loPI    C1 7345   9.562   1.189  10.454 -0.2326 -0.0489 -0.2071
  460loPI    C2 7346   9.803   1.495  10.365  0.2051 -0.3334 -0.0328
  460loPI    C3 7347   9.657   1.457  10.735 -0.2667 -0.0618 -0.1832
  460loPI   PO4 7348   9.507   1.102  10.233 -0.1237  0.0816  0.0328
  460loPI   GL1 7349   9.279   0.979   9.849  0.2236 -0.1652 -0.0732
  460loPI   GL2 7350   8.972   1.108   9.746  0.2992  0.3875 -0.4032
  460loPI   C1A 7351   9.515   0.977   9.569 -0.1106 -0.0420  0.5620
  460loPI   C2A 7352   9.494   0.918   9.191 -0.2116  0.0864  0.0771
  460loPI   C3A 7353   9.521   0.902   8.689 -0.1742 -0.1071  0.2427
  460loPI   C4A 7354   9.425   0.890   8.297 -0.1090 -0.0338  0.0493
  460loPI   C5A 7355   9.305   0.998   7.934 -0.0175 -0.1707  0.1362
  460loPI   C6A 7356   9.349   1.110   7.525 -0.0565 -0.0125  0.1833
  460loPI   C1B 7357   9.037   0.849   9.305 -0.1661 -0.0755 -0.0471
  460loPI   C2B 7358   9.102   0.709   8.985  0.3571  0.1607  0.1657
  460loPI   C3B 7359   9.109   0.564   8.609 -0.1060 -0.1414 -0.0625
  460loPI   C4B 7360   9.121   0.525   8.205 -0.2048 -0.1488 -0.2111
  461loPI    C1 7361  16.947   9.459  10.222 -0.0067  0.1324 -0.4027
  461loPI    C2 7362  16.579   9.444  10.377  0.0645 -0.0483 -0.2473
  461loPI    C3 7363  16.833   9.729  10.495  0.1407 -0.2245  0.0225
  461loPI   PO4 7364  16.884   9.410   9.964 -0.0256  0.0018  0.0781
  461loPI   GL1 7365  16.910   9.343   9.495 -0.0974  0.0914 -0.0879
  461loPI   GL2 7366  17.079   9.671   9.501  0.0324  0.0574  0.0965
  461loPI   C1A 7367  17.072   9.258   9.144 -0.2674  0.1779 -0.2061
  461loPI   C2A 7368  16.939   9.170   8.768 -0.0592 -0.0241 -0.0279
  461loPI   C3A 7369  16.917   8.960   8.419  0.0445 -0.0407  0.2162
  461loPI   C4A 7370  16.629   9.096   8.080 -0.1349  0.0080  0.2744
  461loPI   C5A 7371  16.315   9.141   7.657  0.1277  0.0781 -0.1021
  461loPI   C6A 7372  16.141   9.253   7.187  0.1313  0.1465  0.0468
  461loPI   C1B 7373  17.119   9.794   9.010  0.0781 -0.2353 -0.2007
  461loPI   C2B 7374  17.113   9.735   8.606  0.1955  0.1256 -0.0215
  461loPI   C3B 7375  17.147   9.405   8.362  0.2013  0.4679  0.1573
  461loPI   C4B 7376  17.052   9.322   7.891  0.0005 -0.1121  0.3218
  462loPI    C1 7377   7.945   8.996   9.997  0.2006  0.0013  0.3954
  462loPI    C2 7378   7.847   8.685  10.228  0.0518  0.0043  0.3373
  462loPI    C3 7379   7.761   9.057  10.347 -0.0779  0.0023  0.2516
  462loPI   PO4 7380   7.872   8.964   9.744  0.1948  0.0930 -0.0056
  462loPI   GL1 7381   7.908   9.080   9.350  0.2525  0.2656 -0.2481
  462loPI   GL2 7382   7.805   9.412   9.464 -0.1487 -0.0428 -0.0000
  462loPI   C1A 7383   7.817   9.144   8.851  0.0247 -0.0916 -0.2557
  462loPI   C2A 7384   7.734   9.253   8.458  0.1943  0.0674 -0.0231
  462loPI   C3A 7385   7.349   9.396   8.262  0.3005 -0.0163  0.0237
  462loPI   C4A 7386   7.137   9.729   8.034 -0.1950 -0.1786 -0.1579
  462loPI   C5A 7387   6.742   9.920   7.995 -0.1580 -0.0254  0.4799
  462loPI   C6A 7388   6.474  10.141   7.757 -0.0166 -0.2371  0.1762
  462loPI   C1B 7389   7.722   9.653   9.111 -0.1837 -0.0726  0.0212
  462loPI   C2B 7390   7.550   9.606   8.694  0.1076 -0.2272 -0.0896
  462loPI   C3B 7391   7.472   9.907   8.442 -0.1004 -0.0149 -0.0061
  462loPI   C4B 7392   7.544  10.101   8.056 -0.1739 -0.1639  0.0785
  463loPI    C1 7393  13.090  10.945  10.500  0.1155  0.1874  0.1168
  463loPI    C2 7394  12.950  10.696  10.780 -0.2379  0.1464 -0.0914
  463loPI    C3 7395  13.332  10.815  10.792 -0.1570 -0.1293  0.2068
  463loPI   PO4 7396  12.836  10.975  10.276  0.0801  0.0869  0.0715
  463loPI   GL1 7397  12.734  10.899   9.764  0.0647 -0.5331 -0.2316
  463loPI   GL2 7398  12.883  11.272   9.795 -0.0285  0.2811  0.0426
  463loPI   C1A 7399  12.795  10.688   9.478  0.3354  0.3282 -0.1059
  463loPI   C2A 7400  12.711  10.605   9.122  0.3368  0.0558 -0.1120
  463loPI   C3A 7401  12.496  10.650   8.735  0.1546  0.0730 -0.0707
  463loPI   C4A 7402  12.191  10.926   8.399  0.0212  0.0931  0.1350
  463loPI   C5A 7403  11.931  11.015   8.108  0.0504  0.3831 -0.1974
  463loPI   C6A 7404  11.814  10.937   7.622 -0.1207  0.2615 -0.2820
  463loPI   C1B 7405  12.924  11.112   9.298  0.1676  0.1290 -0.2574
  463loPI   C2B 7406  12.804  11.038   8.919 -0.0713  0.0582 -0.0601
  463loPI   C3B 7407  12.740  11.079   8.523 -0.0604 -0.2237  0.1405
  463loPI   C4B 7408  12.817  11.080   8.047 -0.3183  0.1567 -0.0592
  464loPI    C1 7409  15.712  14.381  10.686 -0.2389  0.0412  0.1198
  464loPI    C2 7410  15.652  14.056  10.911 -0.1863  0.1567  0.3032
  464loPI    C3 7411  15.557  14.417  11.053 -0.0745  0.2388  0.1714
  464loPI   PO4 7412  15.692  14.291  10.478  0.0778 -0.1505  0.1466
  464loPI   GL1 7413  15.645  14.326  10.047  0.0337 -0.0281  0.2982
  464loPI   GL2 7414  15.694  14.705  10.038 -0.0557 -0.1986  0.1633
  464loPI   C1A 7415  15.758  14.370   9.534  0.1260 -0.0030 -0.0916
  464loPI   C2A 7416  15.869  14.420   9.163 -0.1871  0.0412  0.1296
  464loPI   C3A 7417  15.832  14.686   8.765 -0.1206 -0.1261  0.0464
  464loPI   C4A 7418  15.721  14.927   8.213  0.3226  0.1062 -0.3571
  464loPI   C5A 7419  15.673  14.644   7.846 -0.1625 -0.0567  0.0196
  464loPI   C6A 7420  15.613  14.216   7.701  0.0084 -0.0530  0.1333
  464loPI   C1B 7421  16.099  14.557   9.856 -0.3381  0.0068 -0.1116
  464loPI   C2B 7422  16.255  14.270   9.514 -0.1414 -0.3223 -0.1200
  464loPI   C3B 7423  16.425  14.045   9.229  0.2494  0.3807 -0.2659
  464loPI   C4B 7424  16.484  13.978   8.791 -0.1962  0.1398 -0.2484
  465loPI    C1 7425   8.717   9.946  10.602  0.2060 -0.2768  0.2433
  465loPI    C2 7426   8.759   9.556  10.526 -0.0087 -0.2645  0.0479
  465loPI    C3 7427   8.397   9.705  10.608 -0.0152 -0.0204 -0.3964
  465loPI   PO4 7428   8.873  10.070  10.374 -0.1343  0.0599  0.2029
  465loPI   GL1 7429   8.969  10.061   9.953 -0.2987  0.1870  0.0548
  465loPI   GL2 7430   8.761  10.207   9.887  0.2561 -0.2950  0.0412
  465loPI   C1A 7431   9.028  10.115   9.490  0.2243  0.2548  0.1280
  465loPI   C2A 7432   8.995  10.113   9.095 -0.1054 -0.1494 -0.1877
  465loPI   C3A 7433   9.058  10.229   8.710  0.2127 -0.1291 -0.1069
  465loPI   C4A 7434   8.894  10.187   8.138 -0.0954  0.2251  0.0765
  465loPI   C5A 7435   8.748  10.399   7.682  0.0252  0.1435  0.2783
  465loPI   C6A 7436   8.923  10.282   7.325  0.1960  0.0289  0.2140
  465loPI   C1B 7437   8.652  10.387   9.597  0.0611 -0.3388  0.0600
  465loPI   C2B 7438   8.548  10.264   9.295 -0.0363  0.2005  0.0904
  465loPI   C3B 7439   8.470  10.249   8.885  0.1706  0.0266  0.0468
  465loPI   C4B 7440   8.354  10.213   8.465 -0.2654 -0.1964 -0.2707
  466loPI    C1 7441  12.920  17.453  10.554 -0.0843  0.0572 -0.0881
  466loPI    C2 7442  13.047  17.346  10.917 -0.1951  0.0383 -0.0546
  466loPI    C3 7443  12.713  17.185  10.767 -0.0700 -0.0652 -0.2258
  466loPI   PO4 7444  13.037  17.402  10.408  0.1388 -0.1051  0.2392
  466loPI   GL1 7445  12.991  17.400   9.954  0.1910  0.1244  0.1151
  466loPI   GL2 7446  12.817  17.609  10.009 -0.1451 -0.0177 -0.1118
  466loPI   C1A 7447  13.049  17.095   9.680  0.2138 -0.0324 -0.0384
  466loPI   C2A 7448  12.955  16.922   9.296 -0.0489 -0.0775  0.1705
  466loPI   C3A 7449  12.929  16.808   8.936  0.1758 -0.0530 -0.3154
  466loPI   C4A 7450  12.710  16.881   8.522  0.1481  0.0711 -0.1936
  466loPI   C5A 7451  12.843  16.824   8.129  0.1244  0.1345  0.0277
  466loPI   C6A 7452  13.156  16.973   7.943 -0.0707  0.0067  0.1069
  466loPI   C1B 7453  12.859  17.700   9.574 -0.1012 -0.1885 -0.2826
  466loPI   C2B 7454  12.970  17.450   9.178 -0.2357  0.0685  0.2972
  466loPI   C3B 7455  12.939  17.256   8.767  0.1225 -0.1924 -0.0516
  466loPI   C4B 7456  12.910  17.283   8.376  0.1831  0.1168 -0.0217
  467loPI    C1 7457   2.324   9.330  10.725 -0.0561  0.0608  0.2086
  467loPI    C2 7458   2.043   9.328  11.009 -0.1691 -0.2604  0.0988
  467loPI    C3 7459   2.392   9.143  11.072 -0.2023 -0.3502  0.0224
  467loPI   PO4 7460   2.258   9.296  10.433 -0.2602  0.1506 -0.0477
  467loPI   GL1 7461   2.036   9.314  10.100 -0.2378 -0.1218 -0.3872
  467loPI   GL2 7462   2.184   9.538   9.800  0.0400  0.5219 -0.0417
  467loPI   C1A 7463   1.737   9.350   9.758 -0.1495 -0.0203  0.4709
  467loPI   C2A 7464   1.514   9.323   9.331 -0.1494 -0.1465  0.1195
  467loPI   C3A 7465   1.582   9.455   8.865 -0.0135  0.1135  0.0287
  467loPI   C4A 7466   1.637   9.497   8.380  0.3821 -0.4582 -0.2974
  467loPI   C5A 7467   1.315   9.482   8.042  0.1509 -0.0219 -0.1862
  467loPI   C6A 7468   0.985   9.796   7.809  0.3035 -0.0986  0.4411
  467loPI   C1B 7469   2.189   9.306   9.348 -0.0823  0.0324 -0.1449
  467loPI   C2B 7470   2.056   9.291   8.916 -0.1242  0.0693  0.0789
  467loPI   C3B 7471   1.941   9.129   8.454  0.2955  0.0269  0.1656
  467loPI   C4B 7472   1.839   9.051   8.077  0.0337  0.0730  0.1884
  468loPI    C1 7473   1.492   5.043  10.658 -0.1123  0.0220  0.1186
  468loPI    C2 7474   1.372   4.669  10.731 -0.3728  0.0905  0.0545
  468loPI    C3 7475   1.634   4.846  10.976 -0.1672 -0.1683  0.0266
  468loPI   PO4 7476   1.519   5.031  10.405  0.1002 -0.1110 -0.0534
  468loPI   GL1 7477   1.369   4.784  10.109  0.0291  0.1559  0.3673
  468loPI   GL2 7478   1.662   4.875   9.935 -0.0883  0.3154  0.3764
  468loPI   C1A 7479   1.245   4.483   9.736 -0.3196 -0.2667 -0.0536
  468loPI   C2A 7480   1.271   4.337   9.285  0.0610 -0.3906  0.1669
  468loPI   C3A 7481   1.275   4.498   8.827  0.2561 -0.1031 -0.4307
  468loPI   C4A 7482   1.375   4.607   8.433 -0.0572 -0.2844  0.1228
  468loPI   C5A 7483   1.029   4.525   8.213  0.2142 -0.2225 -0.0017
  468loPI   C6A 7484   0.702   4.240   8.362 -0.1070 -0.1364  0.0543
  468loPI   C1B 7485   1.532   4.751   9.425  0.2253 -0.3323 -0.0288
  468loPI   C2B 7486   1.519   4.951   8.958  0.0299  0.1405 -0.1452
  468loPI   C3B 7487   1.579   5.091   8.509  0.3138 -0.2598  0.0068
  468loPI   C4B 7488   1.599   4.992   8.148 -0.2553  0.3043 -0.2104
  469loPI    C1 7489   9.243   5.831   9.985  0.1013  0.1090 -0.0527
  469loPI    C2 7490   9.145   6.162  10.187  0.0295  0.1375 -0.1334
  469loPI    C3 7491   9.197   5.817  10.382  0.5736  0.2934  0.0150
  469loPI   PO4 7492   9.186   5.840   9.761  0.0511 -0.0681  0.1972
  469loPI   GL1 7493   9.124   5.813   9.369 -0.0384  0.1406 -0.0917
  469loPI   GL2 7494   9.268   6.136   9.323  0.3076  0.0706 -0.0490
  469loPI   C1A 7495   9.117   5.565   8.940 -0.0754  0.0266  0.1580
  469loPI   C2A 7496   9.143   5.591   8.477  0.2226 -0.1395  0.5638
  469loPI   C3A 7497   9.092   5.729   8.133  0.1864  0.0341  0.4094
  469loPI   C4A 7498   8.846   5.628   7.746  0.1540 -0.0599 -0.1154
  469loPI   C5A 7499   8.780   5.656   7.283 -0.1515  0.1697 -0.2155
  469loPI   C6A 7500   8.530   5.657   6.989 -0.1138 -0.1616  0.1053
  469loPI   C1B 7501   9.154   6.070   8.871 -0.3087  0.0997  0.2938
  469loPI   C2B 7502   9.179   6.138   8.466 -0.2663  0.1076  0.1052
  469loPI   C3B 7503   9.280   6.208   7.975 -0.0047 -0.0401 -0.0235
  469loPI   C4B 7504   8.867   6.117   7.733  0.0093 -0.1242 -0.0130
  470loPI    C1 7505  10.514   0.231  10.566  0.0601 -0.1674  0.0496
  470loPI    C2 7506  10.698   0.585  10.543 -0.0470 -0.1201 -0.0879
  470loPI    C3 7507  10.558   0.456  10.895  0.3579 -0.2136  0.0444
  470loPI   PO4 7508  10.365   0.171  10.416  0.3670  0.0550  0.1337
  470loPI   GL1 7509  10.624   0.084  10.010  0.0796  0.1168 -0.4518
  470loPI   GL2 7510  10.676  -0.180  10.167 -0.1085  0.1108 -0.1811
  470loPI   C1A 7511  10.582   0.137   9.580 -0.1606  0.1605 -0.2518
  470loPI   C2A 7512  10.608   0.041   9.117  0.1285 -0.0748  0.2813
  470loPI   C3A 7513  10.446  -0.042   8.644  0.0422  0.0111 -0.2009
  470loPI   C4A 7514  10.411  -0.144   8.167 -0.1110 -0.1314 -0.0873
  470loPI   C5A 7515  10.157  -0.444   8.092  0.0441  0.2150  0.0391
  470loPI   C6A 7516  10.126  -0.859   7.894 -0.0090  0.0538 -0.0302
  470loPI   C1B 7517  10.362  -0.293   9.836 -0.1365 -0.2367  0.0172
  470loPI   C2B 7518  10.169  -0.475   9.401  0.2706 -0.0098  0.1189
  470loPI   C3B 7519  10.191  -0.459   8.964  0.0112 -0.1755  0.1996
  470loPI   C4B 7520  10.096  -0.604   8.571 -0.0177 -0.0267  0.1360
  471loPI    C1 7521   7.145  14.616  11.122  0.3685  0.1585 -0.1316
  471loPI    C2 7522   7.434  14.409  11.305  0.1008 -0.0245  0.0949
  471loPI    C3 7523   7.203  14.658  11.516  0.0951  0.1250 -0.0855
  471loPI   PO4 7524   7.226  14.653  10.878  0.1541 -0.0551 -0.0523
  471loPI   GL1 7525   6.955  14.731  10.587 -0.2422 -0.0167 -0.2477
  471loPI   GL2 7526   7.110  14.896  10.254  0.0148  0.4015  0.0094
  471loPI   C1A 7527   6.650  14.677  10.335 -0.3381 -0.0204  0.0723
  471loPI   C2A 7528   6.568  14.630   9.915  0.2842 -0.2810  0.2282
  471loPI   C3A 7529   6.559  14.804   9.518  0.4654 -0.0375 -0.0492
  471loPI   C4A 7530   6.640  14.889   9.066 -0.0613 -0.0997 -0.0690
  471loPI   C5A 7531   6.543  14.655   8.731  0.2962 -0.1384 -0.0015
  471loPI   C6A 7532   6.381  14.644   8.294  0.0627 -0.0336 -0.2127
  471loPI   C1B 7533   7.014  14.858   9.848 -0.1475 -0.1773  0.0174
  471loPI   C2B 7534   7.066  14.799   9.348 -0.4426 -0.0367  0.0269
  471loPI   C3B 7535   7.028  14.724   8.887  0.0597  0.0024  0.0276
  471loPI   C4B 7536   7.277  14.705   8.452 -0.1091  0.0243 -0.0269
  472loPI    C1 7537  11.680   0.958  10.629  0.1529  0.1678  0.0115
  472loPI    C2 7538  11.560   0.772  10.962  0.1167  0.0485 -0.0674
  472loPI    C3 7539  11.892   0.652  10.775  0.0782  0.0452 -0.1339
  472loPI   PO4 7540  11.428   1.011  10.388  0.1356 -0.2187  0.0277
  472loPI   GL1 7541  11.526   1.074  10.033  0.1477 -0.0476 -0.3054
  472loPI   GL2 7542  11.243   1.092   9.916  0.0280  0.3796  0.0793
  472loPI   C1A 7543  11.503   1.160   9.535 -0.3501  0.0271  0.0456
  472loPI   C2A 7544  11.605   1.177   9.093  0.0554 -0.0301 -0.1195
  472loPI   C3A 7545  11.619   1.037   8.670  0.2087  0.2704  0.1912
  472loPI   C4A 7546  11.535   0.892   8.267 -0.0273 -0.0221 -0.3251
  472loPI   C5A 7547  11.764   0.951   7.914 -0.0018  0.1688 -0.2753
  472loPI   C6A 7548  11.457   1.181   7.567 -0.0875 -0.0227  0.3243
  472loPI   C1B 7549  10.942   1.042   9.563 -0.0532  0.0662 -0.0111
  472loPI   C2B 7550  11.150   1.001   9.238 -0.0201  0.0066  0.4561
  472loPI   C3B 7551  11.020   0.867   8.864  0.0582  0.0196  0.0635
  472loPI   C4B 7552  10.997   1.031   8.408  0.1206  0.1340  0.1065
  473loPI    C1 7553  10.679   3.285  10.275 -0.2098  0.3035  0.2035
  473loPI    C2 7554  10.325   3.319  10.092 -0.2064  0.0151  0.1387
  473loPI    C3 7555  10.367   3.067  10.400 -0.0530  0.0356  0.1349
  473loPI   PO4 7556  10.800   3.230  10.028 -0.0198  0.0131 -0.2568
  473loPI   GL1 7557  10.964   3.581   9.796 -0.2676 -0.1332 -0.0240
  473loPI   GL2 7558  11.204   3.671   9.854 -0.2213  0.0813  0.0664
  473loPI   C1A 7559  10.800   3.710   9.377  0.2069  0.2781 -0.1438
  473loPI   C2A 7560  10.677   3.482   8.978  0.1550  0.1254 -0.1307
  473loPI   C3A 7561  10.472   3.489   8.733  0.0678  0.1460  0.4064
  473loPI   C4A 7562  10.370   3.591   8.289 -0.2198 -0.0544  0.0898
  473loPI   C5A 7563  10.464   3.803   7.849  0.1681  0.0353  0.3362
  473loPI   C6A 7564  10.658   4.085   7.619  0.1228  0.2984  0.0280
  473loPI   C1B 7565  11.398   3.547   9.407  0.2825 -0.0702 -0.0544
  473loPI   C2B 7566  11.515   3.457   9.008 -0.0345 -0.3549  0.2602
  473loPI   C3B 7567  11.496   3.318   8.587 -0.0172  0.1122 -0.4122
  473loPI   C4B 7568  11.599   3.280   8.134  0.1758 -0.1061 -0.0900
  474loPI    C1 7569   7.533   5.583  10.267  0.1058 -0.2014  0.0144
  474loPI    C2 7570   7.141   5.557  10.344  0.1151 -0.2012  0.0618
  474loPI    C3 7571   7.388   5.721  10.613  0.0801  0.2384 -0.1641
  474loPI   PO4 7572   7.526   5.765  10.027  0.2109  0.1270 -0.2783
  474loPI   GL1 7573   7.393   5.897   9.633  0.0804  0.1487 -0.0370
  474loPI   GL2 7574   7.154   5.597   9.550  0.1580 -0.2148 -0.0133
  474loPI   C1A 7575   7.328   5.924   9.214 -0.0306 -0.0776  0.2773
  474loPI   C2A 7576   7.249   5.883   8.804  0.0894 -0.0562  0.0448
  474loPI   C3A 7577   7.133   6.040   8.497 -0.3269  0.1367  0.0364
  474loPI   C4A 7578   7.169   5.873   8.116 -0.0034 -0.1576 -0.0757
  474loPI   C5A 7579   7.138   5.618   7.661  0.0797 -0.2060 -0.1276
  474loPI   C6A 7580   6.831   5.479   7.326  0.1182  0.0350  0.1670
  474loPI   C1B 7581   7.224   5.451   9.133  0.0209  0.1001 -0.0329
  474loPI   C2B 7582   7.132   5.455   8.802 -0.1504 -0.2016 -0.1900
  474loPI   C3B 7583   7.126   5.414   8.395  0.0627 -0.1595 -0.0398
  474loPI   C4B 7584   7.145   5.174   8.026  0.0883  0.1584 -0.0591
  475loPI    C1 7585  10.999   5.470  10.326  0.0406  0.0971 -0.1233
  475loPI    C2 7586  11.200   5.778  10.484  0.3197 -0.0024 -0.2766
  475loPI    C3 7587  11.284   5.405  10.599 -0.3941 -0.0023  0.3198
  475loPI   PO4 7588  10.978   5.571   9.973  0.1345 -0.1690  0.1036
  475loPI   GL1 7589  11.185   5.794   9.570  0.3249 -0.1969 -0.0896
  475loPI   GL2 7590  11.408   5.986   9.506 -0.0623  0.0804 -0.2682
  475loPI   C1A 7591  10.971   5.799   9.240  0.1092 -0.1850  0.1426
  475loPI   C2A 7592  11.036   5.941   8.777 -0.2712  0.0427  0.3448
  475loPI   C3A 7593  11.090   5.970   8.357  0.2281  0.0843  0.1924
  475loPI   C4A 7594  11.222   5.887   8.041  0.2244 -0.3373  0.2726
  475loPI   C5A 7595  11.334   5.888   7.587  0.0848  0.2949 -0.0632
  475loPI   C6A 7596  11.156   5.915   7.150  0.2556 -0.1407 -0.0437
  475loPI   C1B 7597  11.425   6.126   9.150  0.2041 -0.1047 -0.3546
  475loPI   C2B 7598  11.446   6.225   8.770  0.3455  0.3942 -0.5955
  475loPI   C3B 7599  11.556   6.149   8.359 -0.1412  0.0039  0.1211
  475loPI   C4B 7600  11.592   6.338   7.997  0.2525 -0.1109 -0.0608
  476loPI    C1 7601   2.798   6.109  10.430 -0.1769  0.0578 -0.1196
  476loPI    C2 7602   2.755   6.369  10.731 -0.1764 -0.1263  0.0409
  476loPI    C3 7603   2.436   6.173  10.589 -0.1707 -0.0668 -0.0545
  476loPI   PO4 7604   2.862   6.171  10.208 -0.0784 -0.1542 -0.0127
  476loPI   GL1 7605   2.836   6.290   9.833  0.1080 -0.0940  0.0055
  476loPI   GL2 7606   2.502   6.216   9.868 -0.0180  0.0719  0.1882
  476loPI   C1A 7607   2.903   6.439   9.460 -0.1205  0.1281 -0.0459
  476loPI   C2A 7608   3.064   6.453   9.075 -0.2734 -0.1541 -0.0622
  476loPI   C3A 7609   3.227   6.443   8.678  0.0561 -0.0089  0.2359
  476loPI   C4A 7610   2.948   6.300   8.345  0.0462  0.1828  0.0109
  476loPI   C5A 7611   2.802   6.386   7.923 -0.1694 -0.0896 -0.1876
  476loPI   C6A 7612   2.665   6.686   7.711  0.1566 -0.3024 -0.3926
  476loPI   C1B 7613   2.396   6.436   9.460 -0.1383 -0.0438  0.4637
  476loPI   C2B 7614   2.326   6.601   9.065 -0.0529  0.0758 -0.3677
  476loPI   C3B 7615   2.106   6.608   8.737 -0.2094  0.1989  0.0623
  476loPI   C4B 7616   1.787   6.883   8.615 -0.3664 -0.0172  0.0359
  477loPI    C1 7617   2.119   1.946  10.942  0.0171 -0.0145 -0.0966
  477loPI    C2 7618   1.829   2.222  10.933 -0.1631 -0.2075 -0.3482
  477loPI    C3 7619   1.875   1.990  11.256  0.0742  0.2008 -0.0810
  477loPI   PO4 7620   2.179   1.928  10.716 -0.3183  0.1903  0.1815
  477loPI   GL1 7621   2.182   1.851  10.300 -0.1248  0.1475  0.3249
  477loPI   GL2 7622   1.981   1.660  10.288  0.0767 -0.0568 -0.1094
  477loPI   C1A 7623   2.212   1.974   9.924 -0.3413 -0.2611 -0.0318
  477loPI   C2A 7624   2.260   2.026   9.489  0.1316  0.2879 -0.2149
  477loPI   C3A 7625   2.178   2.054   9.110  0.1554 -0.0725 -0.2864
  477loPI   C4A 7626   2.187   1.967   8.732  0.1545  0.3142  0.3612
  477loPI   C5A 7627   2.230   2.103   8.330  0.1498  0.0975  0.0008
  477loPI   C6A 7628   2.322   2.137   7.857 -0.0544 -0.0081  0.0115
  477loPI   C1B 7629   1.873   1.558   9.818  0.0191  0.1714 -0.0446
  477loPI   C2B 7630   1.851   1.582   9.332  0.2808 -0.0410  0.0102
  477loPI   C3B 7631   1.885   1.605   8.862  0.1744 -0.2514 -0.4227
  477loPI   C4B 7632   1.741   1.679   8.441 -0.5388  0.0159  0.0521
  478loPI    C1 7633  13.141  17.931  10.296 -0.0064 -0.0021  0.0055
  478loPI    C2 7634  12.743  17.934  10.334 -0.0089 -0.1951  0.0058
  478loPI    C3 7635  12.975  17.935  10.660 -0.0051  0.1200  0.0051
  478loPI   PO4 7636  13.295  17.777  10.146  0.1613 -0.0437  0.0291
  478loPI   GL1 7637  13.531  17.826   9.761 -0.0506 -0.1767 -0.0293
  478loPI   GL2 7638  13.410  17.516   9.754 -0.0720  0.0272  0.3049
  478loPI   C1A 7639  13.651  17.845   9.353 -0.0843 -0.1527 -0.3202
  478loPI   C2A 7640  13.628  17.778   8.985  0.2943  0.1718 -0.1656
  478loPI   C3A 7641  13.566  18.084   8.628 -0.0466 -0.0993 -0.2299
  478loPI   C4A 7642  13.684  18.071   8.228 -0.1511  0.2911 -0.1130
  478loPI   C5A 7643  14.024  17.847   8.071 -0.2349 -0.4417  0.1918
  478loPI   C6A 7644  14.174  17.667   7.682  0.1806 -0.0568 -0.0761
  478loPI   C1B 7645  13.391  17.335   9.410 -0.0478  0.0490 -0.0989
  478loPI   C2B 7646  13.377  17.252   8.960 -0.1463  0.1215 -0.1455
  478loPI   C3B 7647  13.613  17.286   8.554  0.1104  0.1228  0.1685
  478loPI   C4B 7648  13.911  16.952   8.308 -0.0668  0.6024 -0.1395
  479loPI    C1 7649  11.113  10.925  10.905 -0.1585 -0.0833 -0.0431
  479loPI    C2 7650  11.189  11.226  11.158 -0.2887 -0.1012  0.0178
  479loPI    C3 7651  11.477  10.963  11.068 -0.1353  0.1170 -0.1383
  479loPI   PO4 7652  11.112  11.058  10.707 -0.1786 -0.0489  0.0175
  479loPI   GL1 7653  11.192  11.033  10.249  0.1331  0.1793  0.1404
  479loPI   GL2 7654  11.142  10.651  10.184 -0.3181 -0.3297  0.3089
  479loPI   C1A 7655  10.893  11.054   9.808  0.2975 -0.3032 -0.2816
  479loPI   C2A 7656  10.794  11.288   9.473  0.0262  0.3403 -0.0638
  479loPI   C3A 7657  10.534  11.295   9.083 -0.1319  0.2004 -0.0726
  479loPI   C4A 7658  10.243  11.432   8.769  0.1242  0.0995 -0.4819
  479loPI   C5A 7659   9.961  11.584   8.538 -0.1714 -0.2158  0.1211
  479loPI   C6A 7660   9.813  11.636   8.070 -0.3445  0.2327  0.0275
  479loPI   C1B 7661  11.384  10.789   9.787  0.2613  0.0904 -0.0300
  479loPI   C2B 7662  11.595  10.717   9.332 -0.3497  0.2343 -0.3254
  479loPI   C3B 7663  11.587  10.680   8.903  0.2998 -0.0541 -0.1210
  479loPI   C4B 7664  11.589  10.780   8.478 -0.2258 -0.2141 -0.0575
  480loPI    C1 7665  17.040  11.550  10.733 -0.1863 -0.0282  0.0142
  480loPI    C2 7666  17.189  11.179  10.728 -0.1852 -0.0319  0.2222
  480loPI    C3 7667  17.265  11.420  11.037 -0.0664  0.1927  0.0213
  480loPI   PO4 7668  17.110  11.650  10.584 -0.1347 -0.0745 -0.1392
  480loPI   GL1 7669  17.138  11.900  10.195 -0.3319 -0.2594  0.0294
  480loPI   GL2 7670  17.407  11.836   9.966  0.0236  0.0938  0.2399
  480loPI   C1A 7671  16.991  12.015   9.758 -0.0821 -0.0251  0.1985
  480loPI   C2A 7672  16.993  12.001   9.309 -0.0390  0.2117  0.0156
  480loPI   C3A 7673  16.796  12.086   8.931  0.1047 -0.2596 -0.1267
  480loPI   C4A 7674  16.910  11.911   8.474 -0.0745 -0.4554 -0.0341
  480loPI   C5A 7675  16.898  11.818   8.038 -0.3036  0.1116  0.1203
  480loPI   C6A 7676  17.243  11.745   7.634  0.0830 -0.2583  0.1277
  480loPI   C1B 7677  17.417  12.114   9.527 -0.2150  0.2853  0.0668
  480loPI   C2B 7678  17.459  12.038   9.159 -0.2033 -0.3575  0.0904
  480loPI   C3B 7679  17.326  11.834   8.773 -0.0321  0.0807  0.0741
  480loPI   C4B 7680  17.351  11.762   8.240  0.0193  0.0700 -0.0785
  481loPI    C1 7681   8.262  16.958  10.811 -0.2928  0.1372  0.0719
  481loPI    C2 7682   8.403  16.727  11.106  0.0070  0.0396 -0.1424
  481loPI    C3 7683   8.426  17.125  11.136 -0.2020  0.0374  0.0782
  481loPI   PO4 7684   8.298  16.734  10.560 -0.1808 -0.0237 -0.2652
  481loPI   GL1 7685   8.018  16.611  10.346 -0.1019  0.0108 -0.0226
  481loPI   GL2 7686   8.141  17.004  10.184 -0.2113 -0.0400  0.3207
  481loPI   C1A 7687   8.084  16.417   9.981 -0.1120  0.2337  0.0355
  481loPI   C2A 7688   7.968  16.344   9.613  0.3227 -0.1792  0.1659
  481loPI   C3A 7689   7.836  16.385   9.121  0.1243  0.0064 -0.1952
  481loPI   C4A 7690   7.843  16.489   8.743 -0.1320 -0.0839  0.2205
  481loPI   C5A 7691   7.783  16.332   8.338  0.3013 -0.1261 -0.0993
  481loPI   C6A 7692   8.084  16.186   8.086  0.2729  0.0471  0.3603
  481loPI   C1B 7693   8.172  16.854   9.725  0.0380  0.2289 -0.3516
  481loPI   C2B 7694   8.283  16.711   9.247  0.0939 -0.1277 -0.3185
  481loPI   C3B 7695   8.165  16.846   8.859  0.0101 -0.0630 -0.1469
  481loPI   C4B 7696   8.175  16.900   8.354 -0.0487 -0.2553  0.1817
  482loPI    C1 7697  14.527   7.559  10.046 -0.0611 -0.1474 -0.0379
  482loPI    C2 7698  14.388   7.492  10.415 -0.0682 -0.1268 -0.0367
  482loPI    C3 7699  14.471   7.865  10.298 -0.2518 -0.1111 -0.1219
  482loPI   PO4 7700  14.427   7.365   9.830 -0.0351  0.0645  0.2591
  482loPI   GL1 7701  14.257   7.467   9.414 -0.0641  0.1447  0.1499
  482loPI   GL2 7702  14.090   7.119   9.398  0.3931 -0.0590 -0.0019
  482loPI   C1A 7703  14.286   7.438   9.017 -0.0698 -0.0259 -0.0380
  482loPI   C2A 7704  14.375   7.450   8.655  0.1625 -0.0216 -0.0903
  482loPI   C3A 7705  14.500   7.454   8.363  0.3100  0.0226  0.0508
  482loPI   C4A 7706  14.471   7.217   7.867 -0.0763  0.1951 -0.3484
  482loPI   C5A 7707  14.659   7.125   7.509 -0.1644 -0.2643 -0.2755
  482loPI   C6A 7708  14.816   7.192   7.121  0.3628 -0.0637  0.1527
  482loPI   C1B 7709  14.151   6.977   8.920  0.0006 -0.0008  0.0219
  482loPI   C2B 7710  14.163   6.861   8.509 -0.0590 -0.0781  0.1840
  482loPI   C3B 7711  14.085   6.928   8.144  0.0411 -0.4558  0.2340
  482loPI   C4B 7712  13.757   6.841   7.797  0.1694 -0.2269 -0.0076
  483loPI    C1 7713  16.122   0.291  10.255  0.0468 -0.0198  0.0435
  483loPI    C2 7714  15.863   0.005  10.147  0.2216 -0.0844 -0.2139
  483loPI    C3 7715  15.883   0.123  10.529  0.0737 -0.3402 -0.1241
  483loPI   PO4 7716  16.116   0.461  10.041  0.2996  0.1667 -0.3305
  483loPI   GL1 7717  16.499   0.668  10.036 -0.0991 -0.0858 -0.1193
  483loPI   GL2 7718  16.360   0.898   9.955 -0.0207  0.0316 -0.0579
  483loPI   C1A 7719  16.723   0.682   9.679  0.1222  0.0929  0.2935
  483loPI   C2A 7720  16.701   0.602   9.236 -0.0691 -0.0134  0.1796
  483loPI   C3A 7721  16.842   0.726   8.828 -0.1990  0.3454 -0.1752
  483loPI   C4A 7722  16.808   0.852   8.507  0.2996 -0.0741  0.0525
  483loPI   C5A 7723  16.964   0.902   8.048 -0.1276 -0.0273  0.0079
  483loPI   C6A 7724  17.118   1.075   7.675  0.2287  0.0229  0.0931
  483loPI   C1B 7725  16.296   0.844   9.581 -0.1811  0.3586 -0.0947
  483loPI   C2B 7726  16.208   0.950   9.213  0.1234  0.3077 -0.0021
  483loPI   C3B 7727  16.347   0.933   8.887 -0.2531 -0.2427 -0.0735
  483loPI   C4B 7728  16.308   0.952   8.352  0.2859  0.0779  0.3360
  484loPI    C1 7729  14.893   4.745  10.232 -0.2354  0.0036  0.0725
  484loPI    C2 7730  15.173   4.899  10.474 -0.0657  0.0924 -0.1767
  484loPI    C3 7731  14.981   4.564  10.578  0.1344  0.0294 -0.0038
  484loPI   PO4 7732  14.848   4.960   9.982 -0.0758  0.0719 -0.6017
  484loPI   GL1 7733  14.794   4.948   9.637 -0.1152  0.0151 -0.0732
  484loPI   GL2 7734  14.541   5.087   9.378  0.1517  0.1443  0.0496
  484loPI   C1A 7735  15.114   4.792   9.334 -0.1642 -0.0162  0.0478
  484loPI   C2A 7736  15.117   4.749   8.907 -0.2366 -0.1098  0.2491
  484loPI   C3A 7737  15.217   4.656   8.477 -0.3065 -0.2455 -0.0257
  484loPI   C4A 7738  15.317   4.757   8.004  0.1640  0.1967  0.0002
  484loPI   C5A 7739  15.365   5.030   7.617 -0.1987  0.3381 -0.1530
  484loPI   C6A 7740  15.228   5.351   7.304 -0.0309 -0.2502  0.0296
  484loPI   C1B 7741  14.515   4.938   9.019  0.1841 -0.3209  0.0229
  484loPI   C2B 7742  14.687   4.852   8.581  0.0697 -0.0161 -0.1885
  484loPI   C3B 7743  14.781   4.615   8.154  0.0194 -0.0460 -0.0394
  484loPI   C4B 7744  15.082   4.272   8.011  0.0843 -0.4465  0.0815
  485loPI    C1 7745   1.161  13.632  11.122  0.1519 -0.1041 -0.0092
  485loPI    C2 7746   1.469  13.569  11.368  0.0117 -0.2751  0.1253
  485loPI    C3 7747   1.096  13.500  11.494 -0.0662 -0.2943 -0.1121
  485loPI   PO4 7748   1.245  13.481  10.831  0.1087 -0.0618 -0.1982
  485loPI   GL1 7749   1.337  13.743  10.521 -0.0497 -0.1474 -0.3439
  485loPI   GL2 7750   1.106  13.556  10.368 -0.0641 -0.1009 -0.1120
  485loPI   C1A 7751   1.448  13.855  10.134 -0.2209  0.2187  0.2087
  485loPI   C2A 7752   1.582  13.715   9.754  0.0672  0.2270  0.1983
  485loPI   C3A 7753   1.647  13.726   9.242 -0.1463  0.0976  0.0675
  485loPI   C4A 7754   1.551  13.680   8.881  0.3481 -0.1777 -0.0093
  485loPI   C5A 7755   1.538  13.866   8.425 -0.3036 -0.1891  0.2710
  485loPI   C6A 7756   1.418  13.859   8.006 -0.2143 -0.0089  0.2099
  485loPI   C1B 7757   1.227  13.435  10.023 -0.1200  0.0636 -0.4848
  485loPI   C2B 7758   1.219  13.302   9.553  0.0606  0.1411  0.1313
  485loPI   C3B 7759   1.309  13.313   9.083 -0.0729 -0.0711  0.4949
  485loPI   C4B 7760   1.231  13.267   8.682 -0.1863 -0.3316 -0.2286
  486loPI    C1 7761  14.775  12.691  10.582 -0.1425 -0.3016 -0.0598
  486loPI    C2 7762  14.437  12.870  10.698 -0.0242 -0.0037 -0.1661
  486loPI    C3 7763  14.484  12.477  10.754 -0.1981  0.0326  0.2747
  486loPI   PO4 7764  14.784  12.786  10.228  0.2037 -0.1299  0.1808
  486loPI   GL1 7765  14.573  12.834   9.784  0.0332 -0.0507 -0.0702
  486loPI   GL2 7766  14.697  12.534   9.627  0.1991 -0.4423  0.1871
  486loPI   C1A 7767  14.722  12.956   9.332 -0.0796 -0.2338 -0.1694
  486loPI   C2A 7768  14.880  12.827   8.897 -0.0792  0.1097 -0.2260
  486loPI   C3A 7769  14.927  12.858   8.557  0.1019 -0.0733  0.2255
  486loPI   C4A 7770  14.907  12.487   8.327  0.0802 -0.1305 -0.0812
  486loPI   C5A 7771  15.120  12.164   8.148 -0.0118 -0.1092 -0.0573
  486loPI   C6A 7772  15.502  12.014   8.308 -0.0099 -0.2095 -0.0077
  486loPI   C1B 7773  14.806  12.463   9.212 -0.0457 -0.0465  0.2493
  486loPI   C2B 7774  14.664  12.301   8.775  0.1473  0.1157  0.0238
  486loPI   C3B 7775  14.511  12.104   8.330 -0.0905 -0.1411 -0.0894
  486loPI   C4B 7776  14.363  12.015   7.868  0.0830  0.0596 -0.2705
  487loPI    C1 7777  17.998   4.837  10.575  0.2155 -0.0232 -0.0465
  487loPI    C2 7778  18.171   4.750  10.926 -0.0721 -0.0123  0.1010
  487loPI    C3 7779  18.260   5.091  10.738  0.0230  0.0194  0.2031
  487loPI   PO4 7780  18.052   4.700  10.431 -0.1568  0.0400  0.2393
  487loPI   GL1 7781  17.856   4.841  10.031  0.2993  0.1628  0.1265
  487loPI   GL2 7782  17.786   5.023   9.709  0.3093  0.0017  0.1179
  487loPI   C1A 7783  17.932   4.499   9.770  0.0210  0.0992 -0.4264
  487loPI   C2A 7784  17.917   4.205   9.456 -0.0767  0.0014 -0.0497
  487loPI   C3A 7785  17.888   4.281   9.070 -0.1443  0.0622 -0.0639
  487loPI   C4A 7786  17.843   4.314   8.746  0.1880 -0.0793 -0.1956
  487loPI   C5A 7787  17.824   4.208   8.380  0.1318  0.3417 -0.2153
  487loPI   C6A 7788  17.625   4.401   8.001 -0.1307 -0.1416  0.2172
  487loPI   C1B 7789  17.550   4.898   9.470  0.1809  0.3411 -0.3569
  487loPI   C2B 7790  17.664   4.729   9.138  0.3233 -0.0598 -0.0015
  487loPI   C3B 7791  17.666   4.739   8.679  0.3297 -0.0243 -0.1699
  487loPI   C4B 7792  17.768   4.774   8.300  0.1689  0.2363 -0.1035
  488loPI    C1 7793  17.986   0.238  10.629  0.0263  0.1367  0.0873
  488loPI    C2 7794  17.931   0.246  11.025  0.2308  0.3137  0.1138
  488loPI    C3 7795  17.685   0.451  10.785  0.2709  0.4283  0.1698
  488loPI   PO4 7796  18.224   0.252  10.575  0.1673 -0.2152 -0.0018
  488loPI   GL1 7797  18.488   0.425  10.310 -0.1089 -0.1404  0.0276
  488loPI   GL2 7798  18.504   0.087  10.251 -0.0535  0.1004  0.1311
  488loPI   C1A 7799  18.735   0.508  10.027 -0.0818  0.1505 -0.2863
  488loPI   C2A 7800  18.822   0.451   9.564  0.3589 -0.0995 -0.0604
  488loPI   C3A 7801  18.902   0.378   9.094  0.1793 -0.1532  0.0260
  488loPI   C4A 7802  18.949   0.485   8.597 -0.0032 -0.1472  0.1400
  488loPI   C5A 7803  19.125   0.831   8.314 -0.1042  0.1039 -0.0594
  488loPI   C6A 7804  18.815   1.169   8.148 -0.1474 -0.0744  0.1157
  488loPI   C1B 7805  18.568   0.104   9.770 -0.1317  0.2370 -0.3498
  488loPI   C2B 7806  18.628   0.005   9.302  0.1622 -0.2566 -0.0672
  488loPI   C3B 7807  18.497  -0.065   8.954 -0.0471 -0.1755 -0.0038
  488loPI   C4B 7808  18.588   0.047   8.430  0.3208 -0.2888 -0.2245
  489loPI    C1 7809  10.147   3.845  10.146  0.0935  0.0958 -0.0444
  489loPI    C2 7810   9.848   3.957  10.387  0.0779 -0.0329 -0.0030
  489loPI    C3 7811  10.102   3.671  10.503 -0.2062 -0.4277 -0.3245
  489loPI   PO4 7812   9.987   3.884   9.877 -0.3066  0.3041  0.2303
  489loPI   GL1 7813   9.934   3.907   9.437 -0.1557  0.0274 -0.0620
  489loPI   GL2 7814   9.877   4.184   9.239  0.0831 -0.0363  0.0678
  489loPI   C1A 7815   9.986   3.694   9.033 -0.2573 -0.2598  0.3350
  489loPI   C2A 7816   9.989   3.555   8.610 -0.0069  0.0220  0.0961
  489loPI   C3A 7817   9.854   3.562   8.321 -0.3682  0.6061 -0.1100
  489loPI   C4A 7818   9.715   3.485   7.898  0.0141  0.3529  0.2612
  489loPI   C5A 7819   9.480   3.684   7.545  0.6691 -0.0746 -0.0543
  489loPI   C6A 7820   9.595   3.993   7.315 -0.1633  0.0679 -0.1738
  489loPI   C1B 7821  10.000   4.147   8.767  0.0771  0.0266 -0.0840
  489loPI   C2B 7822  10.069   3.960   8.307  0.0840  0.1646  0.1003
  489loPI   C3B 7823   9.930   3.890   7.847 -0.4283  0.1445 -0.2110
  489loPI   C4B 7824   9.987   3.603   7.459  0.1510 -0.0740 -0.0968
  490loPI    C1 7825   8.037   0.422  10.677  0.0685 -0.1116 -0.2212
  490loPI    C2 7826   7.982   0.033  10.751 -0.0095 -0.0691 -0.0490
  490loPI    C3 7827   8.334   0.204  10.833  0.0052 -0.0900 -0.0680
  490loPI   PO4 7828   7.941   0.439  10.404  0.1558 -0.2315 -0.0307
  490loPI   GL1 7829   7.743   0.589  10.035  0.1783  0.0154 -0.0849
  490loPI   GL2 7830   7.587   0.814   9.930 -0.0729 -0.2677  0.1657
  490loPI   C1A 7831   7.859   0.318   9.642  0.3662 -0.1360 -0.0170
  490loPI   C2A 7832   7.898   0.252   9.220 -0.3415 -0.0761 -0.1684
  490loPI   C3A 7833   7.815   0.201   8.799 -0.3459 -0.3313 -0.1890
  490loPI   C4A 7834   7.699   0.335   8.361  0.0314 -0.1915 -0.0864
  490loPI   C5A 7835   7.858   0.203   7.962  0.2493  0.2917  0.1416
  490loPI   C6A 7836   8.245   0.289   7.751  0.0061 -0.0160 -0.1494
  490loPI   C1B 7837   7.682   0.785   9.551 -0.1077  0.0359  0.0632
  490loPI   C2B 7838   7.635   0.787   9.182  0.0480 -0.1881 -0.0094
  490loPI   C3B 7839   7.659   0.736   8.708 -0.1824  0.2592 -0.0888
  490loPI   C4B 7840   7.652   0.810   8.265  0.2557  0.0680  0.2694
  491loPI    C1 7841  13.177  10.177  10.263  0.0323  0.0713 -0.1292
  491loPI    C2 7842  12.946  10.497  10.330 -0.0377 -0.0236  0.0926
  491loPI    C3 7843  13.345  10.531  10.342 -0.0455  0.0448  0.1656
  491loPI   PO4 7844  13.132  10.155  10.026  0.0554 -0.1996  0.2269
  491loPI   GL1 7845  13.196  10.195   9.602 -0.0823 -0.2340 -0.4497
  491loPI   GL2 7846  13.176   9.910   9.509  0.3228  0.1028  0.0008
  491loPI   C1A 7847  13.175  10.467   9.279  0.0102 -0.1381  0.4760
  491loPI   C2A 7848  13.015  10.407   8.838  0.0815  0.0166 -0.2823
  491loPI   C3A 7849  13.137  10.260   8.434 -0.0487 -0.0847 -0.1330
  491loPI   C4A 7850  13.348  10.336   8.143 -0.1743 -0.1076  0.0280
  491loPI   C5A 7851  13.127  10.633   7.879  0.1534  0.2603 -0.0877
  491loPI   C6A 7852  13.133  10.333   7.560 -0.0412 -0.0370  0.0451
  491loPI   C1B 7853  13.074  10.000   9.100  0.0686  0.2897  0.1049
  491loPI   C2B 7854  13.009   9.850   8.685 -0.0662 -0.0181  0.0907
  491loPI   C3B 7855  13.142   9.855   8.183  0.1358  0.0890  0.0225
  491loPI   C4B 7856  13.579   9.499   7.990  0.1192  0.0825 -0.3880
  492loPI    C1 7857   3.778  14.915  11.048 -0.2095 -0.1843 -0.2589
  492loPI    C2 7858   3.653  15.226  11.267  0.2984 -0.0343 -0.1703
  492loPI    C3 7859   3.575  14.853  11.387  0.2430  0.0520  0.0666
  492loPI   PO4 7860   3.666  14.918  10.837  0.1114 -0.0522 -0.2080
  492loPI   GL1 7861   3.639  14.899  10.491 -0.0655 -0.3078 -0.0334
  492loPI   GL2 7862   3.449  15.130  10.345  0.2526 -0.0344 -0.1858
  492loPI   C1A 7863   3.579  14.723  10.032 -0.0266 -0.4144  0.2346
  492loPI   C2A 7864   3.585  14.759   9.639  0.3680 -0.2816  0.1280
  492loPI   C3A 7865   3.655  14.709   9.255 -0.0949 -0.3367 -0.0685
  492loPI   C4A 7866   3.650  14.879   8.891  0.4369  0.0006 -0.2500
  492loPI   C5A 7867   3.784  15.130   8.548 -0.0732 -0.1452 -0.3439
  492loPI   C6A 7868   3.670  15.471   8.272 -0.4798 -0.0097 -0.0295
  492loPI   C1B 7869   3.428  15.245   9.881  0.3244  0.1002 -0.1238
  492loPI   C2B 7870   3.507  15.234   9.449  0.1935 -0.5145 -0.1787
  492loPI   C3B 7871   3.426  15.329   8.936  0.1207 -0.4125 -0.2129
  492loPI   C4B 7872   3.281  15.533   8.590  0.1272 -0.0270  0.0206
  493loPI    C1 7873   3.640   0.834  10.668 -0.0002 -0.3274  0.0072
  493loPI    C2 7874   3.527   0.741  11.040 -0.1813 -0.0982  0.0120
  493loPI    C3 7875   3.694   1.097  10.965  0.0677 -0.2337 -0.0873
  493loPI   PO4 7876   3.400   0.774  10.542  0.1852  0.1823 -0.1257
  493loPI   GL1 7877   3.357   0.526  10.144  0.0754  0.1089  0.0965
  493loPI   GL2 7878   3.014   0.587  10.085 -0.0124  0.1370  0.2773
  493loPI   C1A 7879   3.370   0.420   9.721 -0.0229 -0.1151 -0.2166
  493loPI   C2A 7880   3.261   0.488   9.254 -0.0713  0.2546 -0.1561
  493loPI   C3A 7881   3.396   0.258   8.756  0.2850  0.1288  0.0920
  493loPI   C4A 7882   3.500   0.273   8.350  0.1732  0.0646  0.0613
  493loPI   C5A 7883   3.589   0.530   7.975 -0.1672  0.0162 -0.0137
  493loPI   C6A 7884   3.447   0.551   7.624 -0.1272  0.1761  0.0746
  493loPI   C1B 7885   2.816   0.531   9.751  0.2126  0.1586  0.0137
  493loPI   C2B 7886   2.780   0.532   9.349 -0.1125 -0.0560 -0.1583
  493loPI   C3B 7887   2.707   0.605   8.980  0.0600 -0.2002  0.0316
  493loPI   C4B 7888   2.907   0.517   8.574  0.4855 -0.0976  0.3857
  494loPI    C1 7889   1.338   1.980  10.731 -0.2312 -0.0216  0.0658
  494loPI    C2 7890   1.673   1.772  10.794 -0.0837  0.2400  0.1613
  494loPI    C3 7891   1.444   1.879  11.103 -0.1914  0.1682  0.1069
  494loPI   PO4 7892   1.334   2.213  10.563 -0.0714 -0.0460 -0.0970
  494loPI   GL1 7893   1.283   2.081  10.149 -0.1630  0.1770  0.0153
  494loPI   GL2 7894   1.610   2.007   9.992 -0.0390  0.1751 -0.1401
  494loPI   C1A 7895   1.172   2.068   9.680  0.3173 -0.1370  0.1167
  494loPI   C2A 7896   1.163   2.082   9.185 -0.0886  0.1528 -0.1532
  494loPI   C3A 7897   1.200   2.148   8.731 -0.1093 -0.1536  0.0461
  494loPI   C4A 7898   1.231   2.049   8.280  0.0291  0.1233 -0.0245
  494loPI   C5A 7899   1.219   2.327   7.978 -0.0796  0.0859 -0.1545
  494loPI   C6A 7900   1.047   2.465   7.569 -0.3770  0.1230  0.0629
  494loPI   C1B 7901   1.696   1.986   9.571  0.1192  0.0731  0.2514
  494loPI   C2B 7902   1.667   2.064   9.181  0.0224 -0.4761 -0.1894
  494loPI   C3B 7903   1.711   2.087   8.703  0.1013 -0.2134 -0.1080
  494loPI   C4B 7904   1.721   2.162   8.238 -0.2351 -0.1879 -0.2211
  495loPI    C1 7905  10.027   9.113  10.355  0.1761 -0.1375 -0.0209
  495loPI    C2 7906   9.738   8.836  10.349  0.0346  0.0045  0.1280
  495loPI    C3 7907   9.776   9.080  10.664  0.0286  0.2903 -0.0878
  495loPI   PO4 7908   9.989   9.115  10.006 -0.0024  0.0175  0.1748
  495loPI   GL1 7909   9.993   9.348   9.756 -0.3643  0.2053 -0.4187
  495loPI   GL2 7910   9.993   9.726   9.713  0.1519  0.5256  0.0827
  495loPI   C1A 7911  10.247   9.228   9.377  0.0813 -0.0114 -0.2499
  495loPI   C2A 7912  10.242   9.411   8.917  0.1360 -0.0162 -0.4535
  495loPI   C3A 7913  10.226   9.580   8.537 -0.2216  0.3322 -0.0043
  495loPI   C4A 7914  10.341   9.777   8.071 -0.0025  0.1100 -0.1433
  495loPI   C5A 7915  10.267  10.106   7.704 -0.2799 -0.0447  0.1011
  495loPI   C6A 7916  10.410  10.452   7.426  0.1890  0.1080 -0.0613
  495loPI   C1B 7917  10.200   9.728   9.338 -0.1130  0.0076  0.1351
  495loPI   C2B 7918  10.237   9.955   8.930 -0.1321 -0.2815  0.2592
  495loPI   C3B 7919  10.364  10.059   8.504  0.1140  0.1190 -0.0495
  495loPI   C4B 7920  10.056  10.247   8.113  0.1394  0.1381 -0.2404
  496loPI    C1 7921   5.750   0.402  10.622  0.0870 -0.0254  0.0444
  496loPI    C2 7922   5.682   0.096  10.870  0.0022  0.0042  0.0581
  496loPI    C3 7923   5.493   0.443  10.925 -0.1658 -0.0503 -0.1637
  496loPI   PO4 7924   5.728   0.289  10.342  0.1932 -0.1400 -0.1022
  496loPI   GL1 7925   5.626   0.192  10.060 -0.1914 -0.1721 -0.0846
  496loPI   GL2 7926   5.489   0.338   9.873 -0.2236 -0.0287 -0.2100
  496loPI   C1A 7927   5.902   0.037   9.700  0.0673  0.0387 -0.5393
  496loPI   C2A 7928   6.041   0.052   9.302 -0.1371 -0.2568 -0.1375
  496loPI   C3A 7929   6.014   0.096   8.884 -0.2011 -0.0198 -0.0944
  496loPI   C4A 7930   5.963   0.084   8.420 -0.2475 -0.2380 -0.2702
  496loPI   C5A 7931   6.012   0.030   8.028  0.1729 -0.0583 -0.1964
  496loPI   C6A 7932   5.705  -0.005   7.795 -0.1524  0.2863  0.0139
  496loPI   C1B 7933   5.451   0.104   9.513  0.0025 -0.0803  0.1757
  496loPI   C2B 7934   5.380   0.087   9.019  0.0567  0.2862 -0.0755
  496loPI   C3B 7935   5.515   0.114   8.643  0.2299 -0.0578 -0.0959
  496loPI   C4B 7936   5.521   0.092   8.253 -0.0742  0.0021  0.0714
  497loPI    C1 7937   6.568   3.542  10.108  0.1029 -0.4153  0.1569
  497loPI    C2 7938   6.360   3.619  10.440 -0.0116  0.1073 -0.0263
  497loPI    C3 7939   6.200   3.393  10.152 -0.1438  0.1286  0.0296
  497loPI   PO4 7940   6.559   3.773   9.943 -0.0264 -0.2831  0.0164
  497loPI   GL1 7941   6.501   3.755   9.449  0.1410 -0.0343  0.0908
  497loPI   GL2 7942   6.510   3.476   9.370  0.0761 -0.2232 -0.0209
  497loPI   C1A 7943   6.357   3.758   8.991  0.0349 -0.2317  0.2659
  497loPI   C2A 7944   6.319   3.725   8.534  0.0655 -0.1356 -0.1996
  497loPI   C3A 7945   6.524   3.693   8.130  0.3063 -0.1476 -0.1600
  497loPI   C4A 7946   6.430   3.596   7.821 -0.0325 -0.0055 -0.2712
  497loPI   C5A 7947   6.244   3.823   7.500  0.0604 -0.0492 -0.1183
  497loPI   C6A 7948   6.118   3.891   7.071  0.1132  0.4064  0.1034
  497loPI   C1B 7949   6.632   3.256   9.090 -0.1109  0.0549 -0.1580
  497loPI   C2B 7950   6.578   3.290   8.658  0.0575  0.3097 -0.0385
  497loPI   C3B 7951   6.612   3.234   8.243 -0.2069  0.0429 -0.0328
  497loPI   C4B 7952   6.518   3.096   7.853  0.1251  0.0914  0.0298
  498loPI    C1 7953   8.710   2.453  10.032 -0.3119 -0.1564 -0.2831
  498loPI    C2 7954   8.563   2.819   9.964  0.2750  0.1309 -0.0747
  498loPI    C3 7955   8.451   2.617  10.290 -0.0273  0.1328 -0.1741
  498loPI   PO4 7956   8.794   2.382   9.810 -0.0186 -0.0582 -0.0250
  498loPI   GL1 7957   8.626   2.185   9.426  0.0456 -0.1393  0.0274
  498loPI   GL2 7958   8.892   1.934   9.348 -0.3379 -0.2266 -0.1775
  498loPI   C1A 7959   8.531   2.119   9.051  0.0852 -0.1027 -0.1045
  498loPI   C2A 7960   8.520   2.055   8.666 -0.0552 -0.0757 -0.2539
  498loPI   C3A 7961   8.467   1.970   8.187  0.1756  0.2430 -0.0928
  498loPI   C4A 7962   8.497   1.843   7.804 -0.4499  0.2942  0.1519
  498loPI   C5A 7963   8.462   2.067   7.464 -0.0046  0.1519 -0.3400
  498loPI   C6A 7964   7.990   2.197   7.233  0.0368 -0.3137 -0.0006
  498loPI   C1B 7965   8.822   1.757   8.935 -0.1245  0.2337  0.1338
  498loPI   C2B 7966   8.715   1.608   8.526  0.1361 -0.1671  0.1609
  498loPI   C3B 7967   8.781   1.495   8.193  0.2064  0.0407  0.2341
  498loPI   C4B 7968   8.870   1.467   7.706  0.0245 -0.1391 -0.2080
  499loPI    C1 7969   4.034  15.991  11.076  0.2089 -0.1820  0.1859
  499loPI    C2 7970   3.832  15.672  11.208  0.0642 -0.1738 -0.0119
  499loPI    C3 7971   3.839  16.008  11.425 -0.0282 -0.2156  0.0564
  499loPI   PO4 7972   4.268  15.789  10.990 -0.0177 -0.2245 -0.0539
  499loPI   GL1 7973   4.484  15.857  10.716  0.0629  0.1124  0.3132
  499loPI   GL2 7974   4.858  16.045  10.684 -0.2134 -0.1064  0.0600
  499loPI   C1A 7975   4.576  15.850  10.304 -0.2118 -0.0349  0.1488
  499loPI   C2A 7976   4.678  16.012   9.899  0.2311  0.3350  0.2435
  499loPI   C3A 7977   4.488  15.954   9.514 -0.1277 -0.0242 -0.0937
  499loPI   C4A 7978   4.595  16.055   9.152  0.0312 -0.0353  0.1254
  499loPI   C5A 7979   4.714  16.029   8.669  0.0385  0.0671  0.2452
  499loPI   C6A 7980   4.666  15.809   8.246 -0.2753 -0.3273  0.1697
  499loPI   C1B 7981   5.069  15.984  10.320  0.1153  0.1639 -0.0406
  499loPI   C2B 7982   5.138  15.828   9.951 -0.0629 -0.1101  0.1784
  499loPI   C3B 7983   5.050  15.823   9.476 -0.0920 -0.0908  0.3668
  499loPI   C4B 7984   5.055  16.021   9.050  0.1361  0.0764  0.0170
  500loPI    C1 7985   6.723  12.117  10.909  0.0071 -0.1725  0.0529
  500loPI    C2 7986   6.897  11.868  11.170  0.2692 -0.0227  0.0241
  500loPI    C3 7987   7.072  12.216  11.078 -0.0687  0.1518  0.0258
  500loPI   PO4 7988   6.673  11.927  10.737 -0.0135  0.1027  0.2938
  500loPI   GL1 7989   6.760  11.998  10.336  0.1316  0.2476 -0.3079
  500loPI   GL2 7990   6.454  12.108  10.299 -0.0272  0.3363 -0.1998
  500loPI   C1A 7991   7.001  11.816  10.070  0.0318 -0.2714 -0.3713
  500loPI   C2A 7992   7.074  11.968   9.717 -0.2066  0.2570  0.0724
  500loPI   C3A 7993   6.854  12.098   9.277  0.3278 -0.0077  0.1923
  500loPI   C4A 7994   6.745  12.030   8.792  0.0922  0.0954  0.2978
  500loPI   C5A 7995   6.669  11.746   8.499  0.0045 -0.2362 -0.1592
  500loPI   C6A 7996   6.360  11.407   8.232  0.0070 -0.1692  0.1224
  500loPI   C1B 7997   6.552  12.116   9.876  0.0157 -0.3890  0.0250
  500loPI   C2B 7998   6.423  11.946   9.580  0.3683  0.0749 -0.1846
  500loPI   C3B 7999   6.252  11.712   9.427 -0.1785  0.2304  0.1711
  500loPI   C4B 8000   5.918  11.356   9.352  0.3010 -0.0181  0.2255
  501loPI    C1 8001   7.888   8.289   9.931 -0.0569 -0.1351 -0.0906
  501loPI    C2 8002   7.696   8.077  10.211 -0.1460  0.1501  0.0684
  501loPI    C3 8003   8.056   8.233  10.289 -0.1332  0.1584 -0.0062
  501loPI   PO4 8004   7.678   8.416   9.796 -0.0453  0.0276 -0.0283
  501loPI   GL1 8005   7.358   8.199   9.557 -0.0409  0.4737 -0.3328
  501loPI   GL2 8006   7.579   8.053   9.459 -0.1169  0.0016  0.0614
  501loPI   C1A 8007   7.153   8.470   9.348 -0.1405  0.1489 -0.3585
  501loPI   C2A 8008   6.887   8.446   8.942 -0.0538 -0.1523  0.3326
  501loPI   C3A 8009   6.888   8.402   8.551 -0.2147  0.1526  0.0825
  501loPI   C4A 8010   6.830   8.476   8.134  0.0063 -0.3700 -0.0719
  501loPI   C5A 8011   7.102   8.831   7.776  0.2875  0.0108 -0.2020
  501loPI   C6A 8012   7.337   9.109   7.748  0.1881  0.4175 -0.1338
  501loPI   C1B 8013   7.667   8.147   9.108 -0.0887 -0.5523 -0.1203
  501loPI   C2B 8014   7.722   8.355   8.781  0.1580 -0.0230  0.2094
  501loPI   C3B 8015   7.789   8.344   8.343  0.0180 -0.0065 -0.1163
  501loPI   C4B 8016   7.895   8.123   8.036 -0.0433 -0.0708  0.0353
  502loPI    C1 8017   0.570   7.787  10.257  0.3278 -0.2164  0.1400
  502loPI    C2 8018   0.182   7.728  10.178  0.2756  0.0698  0.1744
  502loPI    C3 8019   0.306   7.764  10.556  0.3344 -0.0073  0.1627
  502loPI   PO4 8020   0.674   7.596  10.025  0.1364 -0.1514 -0.2200
  502loPI   GL1 8021   0.713   7.284   9.773 -0.2494  0.1158  0.0216
  502loPI   GL2 8022   0.612   7.392   9.388  0.0074 -0.1372 -0.2874
  502loPI   C1A 8023   1.093   7.392   9.449 -0.1471  0.1751  0.1653
  502loPI   C2A 8024   1.079   7.522   9.014 -0.1338  0.2508  0.1185
  502loPI   C3A 8025   1.074   7.257   8.710  0.3319 -0.0762 -0.0629
  502loPI   C4A 8026   1.098   7.178   8.325  0.0347  0.0484 -0.0867
  502loPI   C5A 8027   1.210   7.081   7.949  0.0647  0.6732 -0.1278
  502loPI   C6A 8028   1.238   7.092   7.424  0.0986 -0.0426 -0.0904
  502loPI   C1B 8029   0.522   7.325   8.990  0.1380  0.0760  0.2095
  502loPI   C2B 8030   0.553   7.275   8.550 -0.2382  0.0356  0.0788
  502loPI   C3B 8031   0.694   7.308   8.139  0.0608  0.2804 -0.3259
  502loPI   C4B 8032   0.829   7.296   7.728 -0.2604  0.2083  0.1214
  503loPI    C1 8033   2.547   7.285  10.426 -0.2084  0.1774 -0.3274
  503loPI    C2 8034   2.318   7.365  10.744 -0.1306 -0.1647 -0.1815
  503loPI    C3 8035   2.642   7.588  10.669 -0.0247 -0.2170  0.1067
  503loPI   PO4 8036   2.428   7.071  10.327 -0.3811  0.0692  0.2613
  503loPI   GL1 8037   2.042   7.181  10.054 -0.0031 -0.0945  0.1643
  503loPI   GL2 8038   2.247   7.347   9.859 -0.2533 -0.0527 -0.1556
  503loPI   C1A 8039   1.810   7.204   9.627 -0.2299 -0.1644 -0.6689
  503loPI   C2A 8040   1.589   7.443   9.323 -0.1277 -0.0076 -0.2794
  503loPI   C3A 8041   1.743   7.814   9.006 -0.0218  0.0137 -0.0417
  503loPI   C4A 8042   1.738   7.938   8.569 -0.1121  0.1947 -0.1064
  503loPI   C5A 8043   1.759   7.963   8.155  0.2029 -0.0225 -0.0153
  503loPI   C6A 8044   1.980   8.199   7.878 -0.2080 -0.3357  0.0965
  503loPI   C1B 8045   2.275   7.240   9.374  0.0397 -0.1905  0.0725
  503loPI   C2B 8046   2.232   7.132   8.872 -0.1575 -0.0417 -0.2046
  503loPI   C3B 8047   2.225   7.038   8.384  0.0820  0.3516 -0.1608
  503loPI   C4B 8048   2.216   6.936   7.989  0.2723 -0.1031  0.2405
  504loPI    C1 8049   7.622   4.739   9.977 -0.0696 -0.0718  0.0647
  504loPI    C2 8050   7.843   4.992  10.194 -0.0287  0.0209 -0.0837
  504loPI    C3 8051   7.950   4.608  10.165 -0.1132 -0.0241  0.1750
  504loPI   PO4 8052   7.518   4.898   9.746  0.2804 -0.2783 -0.1885
  504loPI   GL1 8053   7.591   5.092   9.315  0.0632 -0.0327 -0.0999
  504loPI   GL2 8054   7.789   4.871   9.294 -0.1523  0.2340 -0.0258
  504loPI   C1A 8055   7.469   5.097   8.877 -0.1434  0.1676  0.2545
  504loPI   C2A 8056   7.433   5.055   8.472 -0.2366  0.1555  0.0522
  504loPI   C3A 8057   7.538   4.846   8.090  0.3285  0.0375  0.0660
  504loPI   C4A 8058   7.455   4.901   7.662  0.3340 -0.3632 -0.0396
  504loPI   C5A 8059   7.349   5.139   7.290  0.0440 -0.2554  0.0697
  504loPI   C6A 8060   7.293   5.556   7.198  0.1736 -0.0287  0.0279
  504loPI   C1B 8061   7.892   4.762   9.033 -0.1428  0.0592 -0.1377
  504loPI   C2B 8062   7.559   4.538   8.849  0.5046 -0.1362  0.1925
  504loPI   C3B 8063   7.554   4.506   8.453 -0.0107 -0.2154  0.1332
  504loPI   C4B 8064   7.494   4.361   8.002  0.0924  0.1054 -0.0279
  505loPI    C1 8065   0.471  15.402  10.669 -0.2418  0.1605  0.2232
  505loPI    C2 8066   0.362  15.678  10.400 -0.1757 -0.0328 -0.0053
  505loPI    C3 8067   0.487  15.791  10.763  0.0365  0.2482 -0.1618
  505loPI   PO4 8068   0.273  15.281  10.685 -0.2320  0.1471 -0.0074
  505loPI   GL1 8069   0.250  15.071  10.317  0.0711  0.1398  0.0890
  505loPI   GL2 8070   0.059  14.992  10.156  0.1394  0.2622  0.0938
  505loPI   C1A 8071   0.353  15.273   9.874  0.0708 -0.1010  0.2347
  505loPI   C2A 8072   0.413  15.201   9.395  0.2568 -0.3019  0.0618
  505loPI   C3A 8073   0.454  15.277   8.915  0.1081 -0.0086 -0.2021
  505loPI   C4A 8074   0.518  15.248   8.436 -0.3146  0.2250 -0.1458
  505loPI   C5A 8075   0.784  14.946   8.174  0.1747 -0.0543 -0.0828
  505loPI   C6A 8076   1.051  14.682   7.873  0.2257 -0.2921  0.2467
  505loPI   C1B 8077   0.043  14.893   9.701 -0.1855 -0.2820 -0.2721
  505loPI   C2B 8078   0.173  14.801   9.332  0.1314 -0.0248 -0.0877
  505loPI   C3B 8079   0.215  14.864   8.999  0.0346 -0.3289  0.1292
  505loPI   C4B 8080   0.045  14.830   8.519  0.1504  0.0154  0.2307
  506loPI    C1 8081   6.693  10.905  10.650 -0.0096  0.1216  0.1850
  506loPI    C2 8082   6.428  11.149  10.823 -0.2166 -0.0639  0.1331
  506loPI    C3 8083   6.619  10.874  11.042 -0.2268 -0.0733  0.1302
  506loPI   PO4 8084   6.598  10.882  10.382  0.0208 -0.1641 -0.1274
  506loPI   GL1 8085   6.336  10.991   9.968 -0.1564 -0.0041 -0.0657
  506loPI   GL2 8086   6.307  10.661  10.044  0.2891  0.0260  0.0853
  506loPI   C1A 8087   6.353  11.213   9.583  0.1860 -0.0361 -0.0131
  506loPI   C2A 8088   6.379  11.197   9.196 -0.1456 -0.3018  0.2460
  506loPI   C3A 8089   6.730  11.207   8.895 -0.1558 -0.1043  0.5182
  506loPI   C4A 8090   6.851  11.256   8.489 -0.1768  0.0371 -0.3595
  506loPI   C5A 8091   6.836  11.011   8.167 -0.1255 -0.1960 -0.0119
  506loPI   C6A 8092   7.177  10.927   7.844 -0.0379 -0.0273 -0.1655
  506loPI   C1B 8093   6.455  10.698   9.620 -0.1041 -0.0610  0.0262
  506loPI   C2B 8094   6.722  10.671   9.249  0.3940  0.0022 -0.1797
  506loPI   C3B 8095   6.969  10.592   8.922  0.1546 -0.1174  0.1321
  506loPI   C4B 8096   7.147  10.840   8.533 -0.2358  0.0394 -0.0428
  507loPI    C1 8097  10.792   1.303  10.100 -0.0740 -0.0796 -0.0296
  507loPI    C2 8098  10.922   1.034  10.366  0.2705 -0.1553 -0.2670
  507loPI    C3 8099  10.565   0.987  10.192 -0.0339 -0.0182  0.2936
  507loPI   PO4 8100  10.918   1.492  10.142  0.0913  0.1521 -0.1496
  507loPI   GL1 8101  11.205   1.601   9.811 -0.2343  0.1840  0.3086
  507loPI   GL2 8102  11.551   1.583   9.860 -0.2200  0.1524  0.0681
  507loPI   C1A 8103  11.165   1.480   9.356 -0.0361 -0.3339 -0.1527
  507loPI   C2A 8104  11.214   1.527   8.931  0.1353  0.0252 -0.2766
  507loPI   C3A 8105  11.296   1.480   8.554  0.0353 -0.1951  0.1296
  507loPI   C4A 8106  11.330   1.302   8.134  0.1434 -0.0732  0.0844
  507loPI   C5A 8107  11.134   1.016   7.882  0.0910  0.3558 -0.0756
  507loPI   C6A 8108  10.865   0.653   7.928 -0.1977  0.0624  0.0601
  507loPI   C1B 8109  11.683   1.645   9.448  0.1352 -0.1289  0.2940
  507loPI   C2B 8110  11.745   1.628   8.998  0.1197 -0.1599 -0.2651
  507loPI   C3B 8111  11.809   1.541   8.639 -0.0903 -0.1056 -0.1366
  507loPI   C4B 8112  11.803   1.324   8.291 -0.0382 -0.1663 -0.0400
  508loPI    C1 8113  11.371   8.774  10.203  0.0234 -0.0965  0.0304
  508loPI    C2 8114  11.659   8.597  10.417  0.0773 -0.1360 -0.0739
  508loPI    C3 8115  11.343   8.759  10.601  0.2283  0.0211  0.0513
  508loPI   PO4 8116  11.374   8.625  10.047  0.1226  0.0909  0.2143
  508loPI   GL1 8117  11.258   8.403   9.802 -0.1672  0.2478  0.0806
  508loPI   GL2 8118  11.615   8.107   9.767  0.3536 -0.2682 -0.0265
  508loPI   C1A 8119  11.252   8.087   9.451  0.4431 -0.0241 -0.2269
  508loPI   C2A 8120  11.373   7.842   9.026  0.2326  0.1605 -0.0849
  508loPI   C3A 8121  11.286   7.833   8.572 -0.0854  0.1129 -0.1182
  508loPI   C4A 8122  11.352   7.928   8.065  0.5769  0.0723 -0.0482
  508loPI   C5A 8123  11.311   8.019   7.622 -0.0634  0.3161  0.0885
  508loPI   C6A 8124  11.213   7.752   7.254  0.1516 -0.0318 -0.0263
  508loPI   C1B 8125  11.786   7.946   9.318 -0.1274  0.0635 -0.2325
  508loPI   C2B 8126  11.853   7.855   8.801 -0.2666  0.0325 -0.1176
  508loPI   C3B 8127  11.741   7.963   8.324  0.2115 -0.1211  0.0117
  508loPI   C4B 8128  11.776   8.007   7.846 -0.0988  0.3578  0.0776
  509loPI    C1 8129  17.650   6.221  10.383 -0.2478  0.2010  0.1047
  509loPI    C2 8130  17.565   5.833  10.434 -0.0103  0.1527  0.1432
  509loPI    C3 8131  17.747   6.038  10.725 -0.0505  0.2701  0.0865
  509loPI   PO4 8132  17.436   6.252  10.200 -0.1458  0.1120 -0.4018
  509loPI   GL1 8133  17.256   6.124   9.841  0.2382  0.0916  0.1106
  509loPI   GL2 8134  17.142   5.802   9.797  0.0673 -0.1831 -0.2130
  509loPI   C1A 8135  17.335   6.340   9.449  0.1909 -0.1715  0.1538
  509loPI   C2A 8136  17.359   6.261   9.093 -0.0372  0.1730 -0.0017
  509loPI   C3A 8137  17.606   6.087   8.732  0.0621 -0.2597  0.0124
  509loPI   C4A 8138  17.679   6.242   8.302 -0.0923 -0.2382 -0.0156
  509loPI   C5A 8139  17.695   6.284   7.855  0.2336  0.1147  0.0117
  509loPI   C6A 8140  17.671   6.276   7.498  0.2989 -0.0905  0.0177
  509loPI   C1B 8141  17.167   5.808   9.353 -0.1590 -0.0998  0.0611
  509loPI   C2B 8142  17.221   5.797   8.880 -0.3335  0.4513  0.1230
  509loPI   C3B 8143  17.280   5.708   8.399  0.0252 -0.1003  0.0804
  509loPI   C4B 8144  17.569   5.778   8.021 -0.0341  0.0256 -0.0466
  510loPI    C1 8145  11.876   9.014  10.176  0.0300 -0.0725  0.1226
  510loPI    C2 8146  11.958   9.019  10.567  0.0885 -0.0143  0.1099
  510loPI    C3 8147  11.617   9.178  10.432  0.0784 -0.0149  0.1348
  510loPI   PO4 8148  12.045   9.186  10.006 -0.2229 -0.1828  0.2800
  510loPI   GL1 8149  11.992   9.267   9.581  0.1579  0.1306 -0.1903
  510loPI   GL2 8150  12.033   8.938   9.541  0.0493  0.0327 -0.0624
  510loPI   C1A 8151  12.014   9.343   9.097 -0.1245 -0.1210  0.0219
  510loPI   C2A 8152  12.036   9.298   8.645 -0.1627 -0.3211 -0.0753
  510loPI   C3A 8153  11.943   9.159   8.198  0.0271 -0.1395  0.2968
  510loPI   C4A 8154  11.847   9.085   7.750  0.0661 -0.1359  0.3849
  510loPI   C5A 8155  11.876   8.938   7.279  0.1619  0.1156  0.0970
  510loPI   C6A 8156  11.826   8.648   7.096 -0.3392  0.0497 -0.1383
  510loPI   C1B 8157  11.994   8.849   9.247  0.1434  0.3005 -0.2441
  510loPI   C2B 8158  12.003   8.754   8.887  0.0659 -0.2336 -0.0735
  510loPI   C3B 8159  12.062   8.697   8.461 -0.5214  0.1799  0.2387
  510loPI   C4B 8160  12.283   8.621   8.131 -0.0743  0.3616  0.0867
  511loPI    C1 8161   3.960  13.442  10.898  0.1813 -0.0222  0.1517
  511loPI    C2 8162   3.871  13.275  11.251 -0.0995  0.0985  0.1408
  511loPI    C3 8163   4.046  13.635  11.238  0.2198 -0.0526  0.1593
  511loPI   PO4 8164   3.785  13.505  10.701 -0.2297 -0.0975  0.3068
  511loPI   GL1 8165   3.952  13.592  10.412 -0.1531 -0.1872  0.1261
  511loPI   GL2 8166   4.263  13.607  10.454 -0.0248  0.2072  0.0181
  511loPI   C1A 8167   3.866  13.781  10.066 -0.2892 -0.3063  0.1057
  511loPI   C2A 8168   3.895  13.739   9.684 -0.0596  0.1799  0.1460
  511loPI   C3A 8169   3.896  13.841   9.313  0.1460 -0.1218  0.0238
  511loPI   C4A 8170   3.952  13.637   8.965  0.0045  0.0695  0.2019
  511loPI   C5A 8171   3.794  13.923   8.606 -0.0463 -0.1596  0.1149
  511loPI   C6A 8172   3.778  14.038   8.218  0.2205  0.3459  0.2274
  511loPI   C1B 8173   4.501  13.698  10.104  0.1728 -0.3321 -0.1593
  511loPI   C2B 8174   4.751  13.637   9.767 -0.2708  0.1537  0.0993
  511loPI   C3B 8175   4.776  13.397   9.452  0.0541 -0.1270 -0.1008
  511loPI   C4B 8176   5.040  13.544   9.208  0.1005 -0.0301 -0.1656
  512loPI    C1 8177   6.072   8.644  10.561  0.0429  0.0749  0.0962
  512loPI    C2 8178   5.710   8.602  10.725  0.0060  0.0443  0.0072
  512loPI    C3 8179   6.032   8.455  10.911 -0.0683 -0.2347 -0.0795
  512loPI   PO4 8180   6.028   8.687  10.332  0.0387 -0.0744  0.0232
  512loPI   GL1 8181   5.892   8.665   9.840 -0.1569  0.3234  0.0880
  512loPI   GL2 8182   5.617   8.771   9.716  0.1730  0.0688 -0.1905
  512loPI   C1A 8183   6.120   8.785   9.493  0.3445 -0.1327 -0.0262
  512loPI   C2A 8184   6.090   8.888   9.013 -0.0639  0.3613 -0.1273
  512loPI   C3A 8185   6.117   8.877   8.505 -0.1204  0.2504  0.1224
  512loPI   C4A 8186   6.072   9.041   8.105  0.1936  0.2807  0.4019
  512loPI   C5A 8187   5.948   9.312   7.836  0.0770 -0.2321  0.0584
  512loPI   C6A 8188   6.025   9.603   7.495  0.0749  0.1372 -0.1881
  512loPI   C1B 8189   5.594   8.656   9.228  0.4100 -0.2568 -0.0258
  512loPI   C2B 8190   5.553   8.762   8.789  0.1824 -0.1133 -0.0550
  512loPI   C3B 8191   5.575   8.684   8.425 -0.0104 -0.2363 -0.0883
  512loPI   C4B 8192   5.286   8.578   8.028 -0.1439  0.3097 -0.0195
  513loPI    C1 8193  14.854  18.413  10.003  0.0759 -0.0699  0.1225
  513loPI    C2 8194  14.996  18.785  10.045  0.0885 -0.0866  0.2319
  513loPI    C3 8195  14.916  18.564  10.368  0.0415 -0.1643  0.1676
  513loPI   PO4 8196  15.039  18.291   9.809 -0.2469  0.2912 -0.0736
  513loPI   GL1 8197  15.002  18.007   9.454 -0.1565 -0.0327 -0.1188
  513loPI   GL2 8198  15.307  17.987   9.454 -0.1359 -0.2985 -0.3395
  513loPI   C1A 8199  15.103  18.131   8.984 -0.3378  0.0434 -0.0336
  513loPI   C2A 8200  15.353  18.031   8.549  0.1452  0.0542  0.0717
  513loPI   C3A 8201  15.344  18.084   8.221 -0.4395 -0.0217  0.1235
  513loPI   C4A 8202  15.471  18.164   7.847  0.3566  0.1865 -0.1818
  513loPI   C5A 8203  15.327  18.415   7.555 -0.3428  0.0099 -0.0257
  513loPI   C6A 8204  14.891  18.724   7.522  0.2153 -0.0607 -0.2936
  513loPI   C1B 8205  15.638  18.022   9.095  0.2309 -0.1211 -0.2069
  513loPI   C2B 8206  15.864  18.012   8.666  0.0185  0.2115 -0.3075
  513loPI   C3B 8207  15.924  18.019   8.146 -0.0851 -0.2677 -0.1095
  513loPI   C4B 8208  15.903  17.814   7.779  0.2136  0.3066  0.0977
  514loPI    C1 8209   9.338  11.717  10.560 -0.3277  0.0380 -0.2035
  514loPI    C2 8210   9.339  11.330  10.663  0.0222  0.1295  0.1632
  514loPI    C3 8211   9.341  11.612  10.946 -0.2357  0.4043 -0.1010
  514loPI   PO4 8212   9.087  11.674  10.364 -0.2810 -0.1984  0.0646
  514loPI   GL1 8213   8.945  11.430  10.001 -0.2052  0.1824  0.0223
  514loPI   GL2 8214   8.578  11.413  10.041  0.4625  0.0414 -0.2211
  514loPI   C1A 8215   8.874  11.583   9.525  0.0816 -0.5008 -0.0415
  514loPI   C2A 8216   8.581  11.631   9.217  0.1320  0.0055  0.1296
  514loPI   C3A 8217   8.318  11.939   8.964  0.0209  0.4487 -0.0762
  514loPI   C4A 8218   8.151  12.194   8.655  0.4158 -0.0357  0.3734
  514loPI   C5A 8219   8.326  12.424   8.362 -0.0924 -0.1015 -0.2083
  514loPI   C6A 8220   8.782  12.542   8.227 -0.2789 -0.0759 -0.0338
  514loPI   C1B 8221   8.369  11.517   9.701 -0.0974 -0.0547 -0.0530
  514loPI   C2B 8222   8.150  11.869   9.428  0.0742  0.0316  0.0589
  514loPI   C3B 8223   7.862  12.028   9.105 -0.2894 -0.1687  0.1451
  514loPI   C4B 8224   7.586  11.920   8.820  0.2446  0.1403 -0.1971
  515loPI    C1 8225   4.448  16.893  10.946  0.1432 -0.2090 -0.0212
  515loPI    C2 8226   4.585  16.636  11.221  0.2592  0.0712  0.1893
  515loPI    C3 8227   4.485  17.008  11.328  0.1508  0.1349 -0.1220
  515loPI   PO4 8228   4.297  16.766  10.736  0.0864  0.0577 -0.0294
  515loPI   GL1 8229   4.264  16.683  10.288 -0.1607 -0.0296  0.1983
  515loPI   GL2 8230   4.488  16.330  10.390  0.1115  0.1233  0.0183
  515loPI   C1A 8231   4.144  16.895   9.876 -0.2612 -0.0588  0.0440
  515loPI   C2A 8232   4.178  17.005   9.447  0.0299  0.0478 -0.0082
  515loPI   C3A 8233   4.194  17.000   9.047  0.1517 -0.2152 -0.1080
  515loPI   C4A 8234   4.127  16.930   8.687  0.0982  0.4325  0.2709
  515loPI   C5A 8235   4.212  16.983   8.250 -0.0045 -0.0264 -0.2587
  515loPI   C6A 8236   4.251  17.354   7.947 -0.0198  0.1649 -0.1024
  515loPI   C1B 8237   4.399  16.398   9.907  0.1146 -0.3033  0.0531
  515loPI   C2B 8238   4.406  16.459   9.470 -0.1089  0.2060 -0.0679
  515loPI   C3B 8239   4.463  16.539   9.113 -0.2838  0.0953 -0.1090
  515loPI   C4B 8240   4.388  16.508   8.693  0.2735  0.4179 -0.0592
  516loPI    C1 8241  14.344  15.941  10.596 -0.2185 -0.1427 -0.1079
  516loPI    C2 8242  14.009  15.797  10.760 -0.1146 -0.1735  0.0804
  516loPI    C3 8243  14.360  15.624  10.839 -0.0556 -0.1528 -0.1311
  516loPI   PO4 8244  14.416  15.966  10.292  0.0563 -0.1053 -0.0731
  516loPI   GL1 8245  14.407  15.744   9.948  0.0239  0.2046 -0.2311
  516loPI   GL2 8246  14.300  15.540   9.796 -0.1550 -0.1067 -0.0062
  516loPI   C1A 8247  14.723  15.677   9.625 -0.1387  0.1091 -0.3894
  516loPI   C2A 8248  14.857  15.538   9.186 -0.1039 -0.3601 -0.0554
  516loPI   C3A 8249  15.023  15.459   8.884  0.2455  0.0534  0.3810
  516loPI   C4A 8250  15.056  15.597   8.554  0.0235 -0.1015 -0.2243
  516loPI   C5A 8251  14.952  15.600   8.207  0.1691  0.0059 -0.4467
  516loPI   C6A 8252  15.202  15.553   7.804 -0.1143 -0.3450  0.1995
  516loPI   C1B 8253  14.302  15.552   9.348 -0.1506 -0.0396  0.0414
  516loPI   C2B 8254  14.360  15.626   8.954  0.0445  0.2779  0.2438
  516loPI   C3B 8255  14.216  15.475   8.565 -0.2139 -0.1205 -0.0748
  516loPI   C4B 8256  14.238  15.412   8.132 -0.0498  0.0252 -0.2616
  517loPI    C1 8257   2.764   4.699  10.406  0.0077 -0.1150 -0.0358
  517loPI    C2 8258   2.370   4.694  10.337 -0.0230  0.0887  0.1163
  517loPI    C3 8259   2.515   4.550  10.681  0.0208  0.1573  0.1268
  517loPI   PO4 8260   2.819   4.857  10.150 -0.1073  0.0182 -0.0879
  517loPI   GL1 8261   2.530   4.646   9.857 -0.1339 -0.5167 -0.0911
  517loPI   GL2 8262   2.174   4.751   9.862 -0.1449 -0.0530 -0.1655
  517loPI   C1A 8263   2.679   4.742   9.492  0.0356  0.0501 -0.1372
  517loPI   C2A 8264   2.706   4.803   9.025  0.1388  0.0476 -0.0627
  517loPI   C3A 8265   2.856   4.601   8.746 -0.0920 -0.1177 -0.0005
  517loPI   C4A 8266   2.809   4.690   8.275  0.1882  0.1222  0.4191
  517loPI   C5A 8267   2.724   4.890   7.939 -0.0323  0.1687 -0.1875
  517loPI   C6A 8268   2.588   5.269   7.879 -0.1042 -0.0997  0.2435
  517loPI   C1B 8269   2.054   4.757   9.500  0.1291  0.0501  0.2687
  517loPI   C2B 8270   2.202   4.780   9.064 -0.4759 -0.0825  0.0966
  517loPI   C3B 8271   2.333   4.719   8.653 -0.1021 -0.3276  0.1121
  517loPI   C4B 8272   2.322   4.557   8.275  0.1004  0.0851  0.2938
  518loPI    C1 8273  15.652   0.498  10.282 -0.4178  0.2033 -0.1451
  518loPI    C2 8274  15.319   0.450  10.497 -0.1798 -0.0362  0.1786
  518loPI    C3 8275  15.664   0.539  10.679 -0.0101 -0.0615 -0.1239
  518loPI   PO4 8276  15.514   0.479  10.019  0.1683 -0.1161 -0.2067
  518loPI   GL1 8277  15.267   0.396   9.627 -0.1604 -0.0964  0.1900
  518loPI   GL2 8278  15.126   0.151   9.487  0.5745  0.2148 -0.3415
  518loPI   C1A 8279  15.473   0.597   9.243  0.0490 -0.3223  0.1765
  518loPI   C2A 8280  15.479   0.531   8.794  0.0860  0.0811  0.2527
  518loPI   C3A 8281  15.444   0.490   8.326 -0.0847 -0.0648  0.2547
  518loPI   C4A 8282  15.322   0.892   8.047  0.0927 -0.0344  0.0259
  518loPI   C5A 8283  15.117   0.778   7.629 -0.2861 -0.0200 -0.1609
  518loPI   C6A 8284  14.825   0.727   7.212  0.1567 -0.1212  0.0996
  518loPI   C1B 8285  15.184   0.153   8.989 -0.1760 -0.1241  0.0571
  518loPI   C2B 8286  15.154   0.032   8.571  0.0187  0.2802 -0.0596
  518loPI   C3B 8287  15.079   0.015   8.130  0.2153 -0.2852 -0.2412
  518loPI   C4B 8288  14.918  -0.302   7.975  0.1724 -0.0996  0.2158
  519loPI    C1 8289   9.288  14.259  11.309 -0.0101  0.0733  0.0417
  519loPI    C2 8290   9.025  14.034  11.509 -0.0292  0.0281 -0.0335
  519loPI    C3 8291   9.305  14.239  11.708 -0.0195 -0.0523  0.0361
  519loPI   PO4 8292   9.142  14.220  11.038  0.1358  0.1592 -0.2583
  519loPI   GL1 8293   8.962  14.229  10.675 -0.0685 -0.1439 -0.1322
  519loPI   GL2 8294   8.750  14.463  10.588 -0.1437  0.0342 -0.3706
  519loPI   C1A 8295   9.143  14.252  10.282 -0.0166 -0.1540 -0.2271
  519loPI   C2A 8296   9.071  14.048   9.819  0.1630  0.2215  0.2149
  519loPI   C3A 8297   8.968  13.731   9.861 -0.1113  0.2460 -0.1286
  519loPI   C4A 8298   8.917  13.566   9.523 -0.2666  0.0277  0.1118
  519loPI   C5A 8299   9.229  13.444   9.257  0.3308 -0.1821  0.2213
  519loPI   C6A 8300   9.377  13.921   9.191  0.0145 -0.0211 -0.0342
  519loPI   C1B 8301   8.763  14.605  10.171  0.3078 -0.1827  0.0787
  519loPI   C2B 8302   8.746  14.490   9.759 -0.0394  0.3919  0.1194
  519loPI   C3B 8303   8.729  14.504   9.375 -0.1716  0.2452  0.2173
  519loPI   C4B 8304   8.640  14.488   8.964  0.1377 -0.1338 -0.0500
  520loPI    C1 8305   3.052  16.847  11.110  0.0116 -0.2343 -0.1289
  520loPI    C2 8306   3.124  16.648  11.450  0.0533  0.0409  0.0261
  520loPI    C3 8307   3.277  17.014  11.395 -0.1301  0.0865 -0.2005
  520loPI   PO4 8308   3.044  16.724  10.953  0.1820 -0.4233 -0.0319
  520loPI   GL1 8309   3.040  16.835  10.613  0.0253  0.0063 -0.0402
  520loPI   GL2 8310   2.845  16.714  10.417  0.3018  0.0514  0.1013
  520loPI   C1A 8311   3.247  16.819  10.224 -0.0954 -0.0562 -0.1888
  520loPI   C2A 8312   3.311  16.649   9.825  0.1286  0.0515  0.1839
  520loPI   C3A 8313   3.283  16.550   9.388  0.2680 -0.1051  0.0607
  520loPI   C4A 8314   3.312  16.577   8.922  0.1286  0.0418 -0.0772
  520loPI   C5A 8315   3.168  16.522   8.519 -0.0982 -0.0555 -0.0406
  520loPI   C6A 8316   3.239  16.448   8.074  0.0962 -0.0017 -0.0264
  520loPI   C1B 8317   2.701  16.650   9.942 -0.2159  0.0052 -0.0167
  520loPI   C2B 8318   2.753  16.694   9.430 -0.3758  0.2412  0.1759
  520loPI   C3B 8319   2.824  16.594   9.009 -0.2271  0.3786  0.1374
  520loPI   C4B 8320   2.703  16.832   8.664  0.0043  0.1448 -0.1095
  521loPI    C1 8321  16.071   6.107  10.423 -0.2495 -0.1039  0.1116
  521loPI    C2 8322  16.093   5.864  10.740  0.0017  0.0732  0.2332
  521loPI    C3 8323  15.736   5.977  10.599 -0.1124 -0.0851  0.3912
  521loPI   PO4 8324  16.380   6.159  10.255 -0.2553  0.0142 -0.0074
  521loPI   GL1 8325  16.709   6.093   9.960 -0.1680  0.1910  0.1260
  521loPI   GL2 8326  16.791   6.291   9.765 -0.2588 -0.4051 -0.1771
  521loPI   C1A 8327  16.666   5.847   9.442  0.0076 -0.0324 -0.0801
  521loPI   C2A 8328  16.684   5.917   8.953 -0.1663 -0.0127 -0.1006
  521loPI   C3A 8329  16.810   5.865   8.598 -0.4231 -0.1955 -0.1428
  521loPI   C4A 8330  16.832   5.703   8.165  0.2544 -0.0840  0.0667
  521loPI   C5A 8331  17.029   5.561   7.938  0.0675 -0.0167 -0.1741
  521loPI   C6A 8332  17.480   5.416   7.675 -0.1457  0.2121 -0.2420
  521loPI   C1B 8333  16.822   6.275   9.307 -0.1504 -0.0143 -0.2127
  521loPI   C2B 8334  16.903   6.347   8.951  0.0580  0.0758  0.1405
  521loPI   C3B 8335  17.092   6.241   8.596 -0.1102 -0.1215 -0.2285
  521loPI   C4B 8336  17.159   6.183   8.246  0.1393 -0.3011  0.1474
  522loPI    C1 8337   1.773   5.818   9.907 -0.0915  0.2040  0.2338
  522loPI    C2 8338   1.666   5.828  10.292 -0.2569  0.1647  0.1896
  522loPI    C3 8339   1.386   5.838  10.006 -0.1266  0.3790  0.0668
  522loPI   PO4 8340   2.007   5.616   9.959  0.0655  0.1884 -0.0998
  522loPI   GL1 8341   2.035   5.255   9.788 -0.0265 -0.0367  0.2815
  522loPI   GL2 8342   2.271   5.242   9.617  0.0963 -0.0857  0.0731
  522loPI   C1A 8343   1.934   5.185   9.279  0.0819  0.1241 -0.0877
  522loPI   C2A 8344   1.987   5.186   8.820  0.1680  0.0563  0.0303
  522loPI   C3A 8345   2.074   5.119   8.484  0.1442 -0.1959  0.3362
  522loPI   C4A 8346   2.059   4.997   7.992  0.3843  0.1757  0.0823
  522loPI   C5A 8347   2.264   4.754   7.781  0.0509  0.0872 -0.5328
  522loPI   C6A 8348   2.405   4.904   7.410  0.1030 -0.1712  0.0357
  522loPI   C1B 8349   2.545   5.172   9.307  0.0082 -0.0842  0.2332
  522loPI   C2B 8350   2.519   5.191   8.837 -0.1610  0.1757 -0.0063
  522loPI   C3B 8351   2.622   5.160   8.400  0.4178 -0.0840 -0.0229
  522loPI   C4B 8352   2.835   5.563   8.235  0.0326  0.0308 -0.0152
  523loPI    C1 8353   0.859  16.742  11.289  0.0875  0.1374  0.1027
  523loPI    C2 8354   1.174  16.983  11.242  0.2584 -0.0659  0.1865
  523loPI    C3 8355   1.009  16.938  11.604  0.1609  0.0053  0.1512
  523loPI   PO4 8356   0.745  16.789  11.000 -0.0493  0.0886 -0.4190
  523loPI   GL1 8357   0.766  16.670  10.639  0.1999 -0.5079  0.2642
  523loPI   GL2 8358   1.035  16.470  10.569 -0.1441 -0.1482 -0.4218
  523loPI   C1A 8359   0.647  16.849  10.268 -0.3979 -0.1054  0.3089
  523loPI   C2A 8360   0.592  16.933   9.872  0.1453  0.2721  0.0095
  523loPI   C3A 8361   0.649  16.995   9.438  0.0796  0.0104  0.0921
  523loPI   C4A 8362   0.578  16.973   8.928 -0.1066 -0.3049 -0.1206
  523loPI   C5A 8363   0.774  17.228   8.634 -0.1250 -0.0824  0.0043
  523loPI   C6A 8364   0.659  17.479   8.300 -0.0460 -0.0444 -0.3183
  523loPI   C1B 8365   0.895  16.477  10.129 -0.3942 -0.0619 -0.0623
  523loPI   C2B 8366   0.785  16.549   9.612  0.2485  0.0547  0.1367
  523loPI   C3B 8367   0.975  16.580   9.152 -0.0774  0.1803 -0.1569
  523loPI   C4B 8368   0.866  16.627   8.747 -0.2746  0.3272  0.0483
  524loPI    C1 8369  15.652   2.388  10.639 -0.1094 -0.0346  0.0118
  524loPI    C2 8370  15.986   2.421  10.856 -0.0911  0.0947 -0.0351
  524loPI    C3 8371  15.629   2.443  11.035 -0.0762  0.2055 -0.0181
  524loPI   PO4 8372  15.665   2.118  10.521 -0.0246 -0.0837  0.1107
  524loPI   GL1 8373  15.831   1.926  10.217  0.0652 -0.0533 -0.2377
  524loPI   GL2 8374  15.576   1.832  10.109 -0.0241  0.1386 -0.1744
  524loPI   C1A 8375  16.026   2.179   9.916  0.0213 -0.2177 -0.0198
  524loPI   C2A 8376  16.102   2.228   9.532 -0.2910  0.0098 -0.0208
  524loPI   C3A 8377  16.196   2.292   9.076  0.0655 -0.0590  0.1659
  524loPI   C4A 8378  16.207   2.145   8.714  0.2727 -0.0545  0.1446
  524loPI   C5A 8379  16.278   2.240   8.337 -0.0336  0.3477 -0.2600
  524loPI   C6A 8380  16.598   2.089   8.061 -0.0375 -0.2560 -0.0710
  524loPI   C1B 8381  15.718   1.801   9.734 -0.2232  0.0143  0.0439
  524loPI   C2B 8382  15.811   1.873   9.359 -0.3692 -0.1622  0.2641
  524loPI   C3B 8383  15.936   1.858   8.970 -0.0520  0.0248  0.0375
  524loPI   C4B 8384  15.860   1.775   8.512  0.0141  0.3372  0.1885
  525loPI    C1 8385  17.630  16.359  10.668  0.0349  0.2693 -0.3691
  525loPI    C2 8386  17.903  16.523  10.911 -0.2333  0.2630 -0.0572
  525loPI    C3 8387  17.557  16.387  11.060 -0.2960  0.0222 -0.4089
  525loPI   PO4 8388  17.676  16.564  10.436 -0.2768 -0.0137 -0.0014
  525loPI   GL1 8389  17.704  16.621  10.035  0.1524 -0.0650 -0.1023
  525loPI   GL2 8390  18.025  16.704  10.009 -0.1962  0.1761 -0.1716
  525loPI   C1A 8391  17.697  16.765   9.633 -0.0901  0.0577  0.4248
  525loPI   C2A 8392  17.742  16.778   9.088 -0.2001  0.0163 -0.0035
  525loPI   C3A 8393  17.686  16.820   8.640  0.0778 -0.0597 -0.1028
  525loPI   C4A 8394  17.803  16.757   8.229 -0.0104 -0.1223 -0.0951
  525loPI   C5A 8395  17.852  16.731   7.854  0.1635 -0.2614  0.2841
  525loPI   C6A 8396  18.203  16.674   7.626  0.1264 -0.0888 -0.4718
  525loPI   C1B 8397  18.157  16.595   9.634 -0.2621 -0.1332  0.1599
  525loPI   C2B 8398  18.234  16.650   9.224  0.0078 -0.3270 -0.0270
  525loPI   C3B 8399  18.223  16.689   8.803  0.0838 -0.1439 -0.2900
  525loPI   C4B 8400  18.311  16.691   8.403  0.0586  0.1973 -0.0295
  526loPI    C1 8401   5.837  17.831  10.755  0.2606 -0.2611  0.1737
  526loPI    C2 8402   6.200  17.867  10.917  0.1862  0.0656  0.2739
  526loPI    C3 8403   5.902  18.104  11.040  0.0286  0.0452 -0.0596
  526loPI   PO4 8404   5.893  17.883  10.508  0.2535 -0.2326  0.0168
  526loPI   GL1 8405   5.800  17.499  10.286  0.0085  0.0240  0.0395
  526loPI   GL2 8406   5.672  17.328  10.215  0.4225 -0.1794  0.1138
  526loPI   C1A 8407   5.787  17.644   9.784 -0.2294  0.0500 -0.1283
  526loPI   C2A 8408   5.885  17.717   9.361  0.1459 -0.0140  0.3276
  526loPI   C3A 8409   5.870  17.663   8.992 -0.0207 -0.1806 -0.3324
  526loPI   C4A 8410   5.919  17.623   8.672 -0.0693  0.0879 -0.0730
  526loPI   C5A 8411   5.895  17.583   8.144 -0.2286  0.2017 -0.0012
  526loPI   C6A 8412   6.141  17.278   7.888 -0.0409 -0.1729  0.1303
  526loPI   C1B 8413   5.492  17.194   9.794  0.1851 -0.1840  0.1478
  526loPI   C2B 8414   5.525  17.268   9.394  0.2164  0.2397 -0.0373
  526loPI   C3B 8415   5.500  17.197   9.042  0.0189 -0.1468 -0.0259
  526loPI   C4B 8416   5.626  17.191   8.619 -0.3678  0.3306  0.2698
  527loPI    C1 8417  18.009  18.138  11.036 -0.1247  0.0540  0.1031
  527loPI    C2 8418  18.320  18.370  11.136 -0.1808  0.1872 -0.0275
  527loPI    C3 8419  18.225  18.054  11.362  0.1188  0.0785 -0.0492
  527loPI   PO4 8420  18.016  18.199  10.726  0.1926  0.1802 -0.3199
  527loPI   GL1 8421  18.079  18.273  10.335  0.2691  0.1852  0.0696
  527loPI   GL2 8422  18.008  18.000  10.243  0.0330  0.2157 -0.1154
  527loPI   C1A 8423  18.104  18.519   9.949  0.0860 -0.0720 -0.3135
  527loPI   C2A 8424  18.116  18.464   9.514  0.1579  0.1457  0.1881
  527loPI   C3A 8425  18.051  18.538   9.122 -0.0570  0.0937  0.0119
  527loPI   C4A 8426  18.127  18.586   8.676  0.1255  0.1474  0.0117
  527loPI   C5A 8427  18.134  18.512   8.236  0.1842 -0.1417  0.1770
  527loPI   C6A 8428  18.251  18.287   7.821  0.1288 -0.0899 -0.0247
  527loPI   C1B 8429  18.062  18.028   9.852  0.0929 -0.2887 -0.1115
  527loPI   C2B 8430  18.251  18.000   9.494  0.2906 -0.1185  0.2424
  527loPI   C3B 8431  18.230  17.974   9.055  0.3148 -0.3792  0.0063
  527loPI   C4B 8432  18.295  18.072   8.618  0.0688 -0.1175 -0.6750
  528loPI    C1 8433   0.884   1.952  11.132 -0.0910  0.0097 -0.0011
  528loPI    C2 8434   1.122   1.976  11.453  0.0223  0.0176 -0.0851
  528loPI    C3 8435   0.849   2.260  11.384  0.2429  0.2082 -0.1890
  528loPI   PO4 8436   0.941   1.753  11.043  0.0730  0.1509  0.4029
  528loPI   GL1 8437   0.964   1.663  10.595  0.0501 -0.1583  0.0325
  528loPI   GL2 8438   0.626   1.368  10.448  0.3828 -0.0652  0.0563
  528loPI   C1A 8439   0.952   1.675  10.111 -0.1740  0.1238  0.2320
  528loPI   C2A 8440   0.842   1.757   9.679  0.1216 -0.0766  0.3184
  528loPI   C3A 8441   0.860   1.693   9.200  0.0813  0.0740  0.0682
  528loPI   C4A 8442   0.824   1.688   8.771 -0.1797 -0.1526  0.1669
  528loPI   C5A 8443   0.781   1.675   8.393 -0.0543  0.1820 -0.1992
  528loPI   C6A 8444   0.673   1.493   7.991  0.2293  0.2403 -0.1513
  528loPI   C1B 8445   0.544   1.333   9.998 -0.1239 -0.0008  0.0312
  528loPI   C2B 8446   0.618   1.345   9.559 -0.2484 -0.2196  0.1095
  528loPI   C3B 8447   0.493   1.346   9.063  0.2297 -0.0561 -0.3483
  528loPI   C4B 8448   0.540   1.324   8.658  0.1186  0.0942  0.0772
  529loPI    C1 8449   6.189   0.447  10.705  0.0659 -0.1058  0.0892
  529loPI    C2 8450   6.376   0.796  10.644 -0.0021 -0.1112 -0.1587
  529loPI    C3 8451   6.447   0.587  10.977  0.0129  0.1558  0.0083
  529loPI   PO4 8452   6.248   0.253  10.583 -0.0732 -0.1543  0.1366
  529loPI   GL1 8453   6.354   0.144  10.227  0.1394  0.1112  0.0189
  529loPI   GL2 8454   6.422  -0.197  10.115 -0.1446 -0.0009  0.3905
  529loPI   C1A 8455   6.229   0.329   9.840  0.2485 -0.0318  0.2133
  529loPI   C2A 8456   6.358   0.454   9.455  0.0574  0.1554  0.2580
  529loPI   C3A 8457   6.420   0.511   9.073  0.1294 -0.1089 -0.1521
  529loPI   C4A 8458   6.294   0.501   8.726 -0.1578  0.0462  0.0679
  529loPI   C5A 8459   6.246   0.498   8.390 -0.0077 -0.1447  0.1101
  529loPI   C6A 8460   6.290   0.499   7.940  0.1649 -0.2126  0.0055
  529loPI   C1B 8461   6.594  -0.029   9.609  0.1419  0.1674 -0.3145
  529loPI   C2B 8462   6.565   0.029   9.217  0.0720  0.0778  0.3353
  529loPI   C3B 8463   6.497   0.018   8.829  0.0342 -0.1839  0.1446
  529loPI   C4B 8464   6.493   0.038   8.356  0.2826  0.1099 -0.2528
  530loPI    C1 8465  17.416  13.817  10.994  0.0819  0.2125  0.0048
  530loPI    C2 8466  17.054  13.988  10.989 -0.0129  0.0208  0.1762
  530loPI    C3 8467  17.259  13.964  11.332  0.1790  0.1602  0.0732
  530loPI   PO4 8468  17.454  13.922  10.738 -0.1984  0.2547  0.0693
  530loPI   GL1 8469  17.331  13.973  10.262 -0.2062 -0.3448  0.0193
  530loPI   GL2 8470  17.666  13.955  10.246 -0.1560  0.0687  0.1570
  530loPI   C1A 8471  17.238  13.980   9.759 -0.1946 -0.0331 -0.3608
  530loPI   C2A 8472  17.409  14.116   9.339  0.0593 -0.0843 -0.3648
  530loPI   C3A 8473  17.530  13.989   8.913  0.0143 -0.1925  0.5375
  530loPI   C4A 8474  17.699  13.620   8.755  0.1985 -0.0325 -0.1128
  530loPI   C5A 8475  17.643  13.534   8.409 -0.0491 -0.1849 -0.1519
  530loPI   C6A 8476  17.685  13.399   7.955 -0.0768 -0.2008  0.1685
  530loPI   C1B 8477  17.751  13.933   9.784  0.0886 -0.0256  0.1233
  530loPI   C2B 8478  17.890  13.922   9.315 -0.1925  0.1746 -0.0336
  530loPI   C3B 8479  18.006  13.990   8.886 -0.1243 -0.1042 -0.0278
  530loPI   C4B 8480  17.926  13.971   8.511  0.1607 -0.1436  0.0492
  531loPI    C1 8481   6.595  13.641  11.272  0.2564  0.0597  0.0077
  531loPI    C2 8482   6.704  13.551  11.646  0.0439 -0.1338  0.0257
  531loPI    C3 8483   6.493  13.883  11.574  0.0911 -0.0928  0.0759
  531loPI   PO4 8484   6.816  13.510  11.136 -0.2715  0.1317 -0.1041
  531loPI   GL1 8485   6.812  13.466  10.589  0.4251 -0.1137 -0.1392
  531loPI   GL2 8486   6.499  13.419  10.416 -0.0362  0.0360  0.1421
  531loPI   C1A 8487   6.904  13.871  10.286 -0.3407 -0.0113  0.3994
  531loPI   C2A 8488   6.702  14.100  10.006  0.1686  0.1479  0.4552
  531loPI   C3A 8489   6.613  14.154   9.540 -0.0354 -0.0140  0.2108
  531loPI   C4A 8490   6.705  14.338   9.130 -0.0480 -0.0925  0.0398
  531loPI   C5A 8491   6.805  14.259   8.730  0.3514 -0.2569 -0.1012
  531loPI   C6A 8492   7.212  14.164   8.548  0.3788  0.1509 -0.1301
  531loPI   C1B 8493   6.577  13.508   9.991 -0.0658  0.0195 -0.1471
  531loPI   C2B 8494   6.531  13.498   9.646  0.3325 -0.3174  0.1493
  531loPI   C3B 8495   6.503  13.466   9.215  0.2791 -0.2845 -0.0186
  531loPI   C4B 8496   6.298  13.495   8.821 -0.2485  0.0115 -0.0695
  532loPI    C1 8497   8.635  17.198  10.600 -0.0983  0.0832  0.0757
  532loPI    C2 8498   9.033  17.157  10.583 -0.1141  0.0476 -0.2863
  532loPI    C3 8499   8.823  16.960  10.860  0.1419  0.2568  0.0643
  532loPI   PO4 8500   8.571  17.167  10.321  0.1262  0.0017  0.0577
  532loPI   GL1 8501   8.537  17.240   9.915  0.2896 -0.1300 -0.0883
  532loPI   GL2 8502   8.629  16.900   9.885  0.2119 -0.1103  0.0071
  532loPI   C1A 8503   8.349  17.269   9.500 -0.1090 -0.2277  0.2769
  532loPI   C2A 8504   8.343  17.252   9.056  0.1743  0.3664 -0.0910
  532loPI   C3A 8505   8.507  17.206   8.566 -0.1462  0.1023  0.1974
  532loPI   C4A 8506   8.484  17.186   8.092 -0.2142  0.1623  0.1188
  532loPI   C5A 8507   8.426  16.986   7.802  0.3776 -0.0231 -0.0561
  532loPI   C6A 8508   8.550  16.938   7.371  0.1437 -0.3931 -0.4232
  532loPI   C1B 8509   8.741  16.973   9.421 -0.0761 -0.2517 -0.2697
  532loPI   C2B 8510   8.682  16.921   8.939  0.2058 -0.2945  0.1482
  532loPI   C3B 8511   8.589  16.699   8.511  0.3463  0.3732  0.0669
  532loPI   C4B 8512   8.574  16.595   8.217 -0.1956  0.0815 -0.2685
  533loPI    C1 8513   1.673  17.242  11.114 -0.2401  0.0885 -0.1271
  533loPI    C2 8514   1.538  17.613  11.180  0.0003  0.1233  0.1983
  533loPI    C3 8515   1.895  17.503  11.321  0.0274 -0.1674 -0.0854
  533loPI   PO4 8516   1.629  17.198  10.855 -0.0682  0.2982  0.0269
  533loPI   GL1 8517   1.462  17.408  10.537  0.0243  0.2811 -0.0788
  533loPI   GL2 8518   1.143  17.268  10.512  0.4252 -0.0342 -0.0370
  533loPI   C1A 8519   1.470  17.311  10.154  0.0844  0.0154 -0.0210
  533loPI   C2A 8520   1.447  17.396   9.691 -0.1505 -0.0902 -0.1524
  533loPI   C3A 8521   1.484  17.405   9.199 -0.0366  0.1070 -0.1579
  533loPI   C4A 8522   1.500  17.381   8.775  0.2641 -0.1116  0.0396
  533loPI   C5A 8523   1.582  17.441   8.357 -0.0005 -0.1128  0.0115
  533loPI   C6A 8524   1.197  17.662   8.273  0.0206  0.2786  0.1754
  533loPI   C1B 8525   0.908  17.301  10.212  0.0323  0.0921  0.0810
  533loPI   C2B 8526   0.976  17.374   9.818  0.1423 -0.0616 -0.1639
  533loPI   C3B 8527   1.027  17.482   9.424  0.2224 -0.2125 -0.1503
  533loPI   C4B 8528   1.019  17.381   9.058 -0.0885  0.0530  0.0939
  534loPI    C1 8529   9.238   5.325   9.799 -0.2948  0.0093 -0.1294
  534loPI    C2 8530   9.357   5.004  10.006 -0.0130  0.1842 -0.0143
  534loPI    C3 8531   8.967   5.092   9.980 -0.0921 -0.1569 -0.0356
  534loPI   PO4 8532   9.274   5.340   9.559  0.0181 -0.2149  0.0742
  534loPI   GL1 8533   9.451   5.466   9.251  0.2650  0.0133 -0.0987
  534loPI   GL2 8534   9.374   5.102   9.132  0.1776  0.3255 -0.0524
  534loPI   C1A 8535   9.582   5.416   8.840  0.0191  0.1771 -0.0873
  534loPI   C2A 8536   9.608   5.379   8.288  0.0109  0.0762 -0.0567
  534loPI   C3A 8537   9.462   5.421   7.869  0.2927 -0.0050  0.1242
  534loPI   C4A 8538   9.485   5.394   7.453  0.0007 -0.1579 -0.1047
  534loPI   C5A 8539   9.600   5.096   7.060  0.0265  0.2815 -0.0716
  534loPI   C6A 8540   9.551   4.653   6.704 -0.1029 -0.1805 -0.1523
  534loPI   C1B 8541   9.271   5.141   8.631 -0.1924 -0.1697  0.1530
  534loPI   C2B 8542   9.257   5.099   8.247 -0.1475 -0.2519  0.1010
  534loPI   C3B 8543   8.972   5.011   7.874  0.0696 -0.2724 -0.1981
  534loPI   C4B 8544   9.017   5.132   7.500  0.0996 -0.0584 -0.0629
  535loPI    C1 8545   9.477  13.797  11.240 -0.1433 -0.2469  0.2582
  535loPI    C2 8546   9.719  14.101  11.145 -0.2310 -0.2425  0.0449
  535loPI    C3 8547   9.760  13.916  11.497 -0.1088 -0.0526  0.1321
  535loPI   PO4 8548   9.452  13.650  11.015 -0.1671  0.0092 -0.1150
  535loPI   GL1 8549   9.543  13.515  10.455 -0.1408  0.1704 -0.0341
  535loPI   GL2 8550   9.701  13.272  10.325  0.0719 -0.0299  0.0475
  535loPI   C1A 8551   9.725  13.877  10.309 -0.0045 -0.0595  0.3619
  535loPI   C2A 8552  10.003  14.036  10.016 -0.3927 -0.0149  0.0262
  535loPI   C3A 8553   9.988  14.472   9.798  0.0469  0.0394 -0.3572
  535loPI   C4A 8554   9.726  14.441   9.428  0.1200  0.3066  0.0028
  535loPI   C5A 8555   9.649  14.299   8.996  0.0320  0.0249  0.4479
  535loPI   C6A 8556   9.854  14.029   8.649 -0.1787 -0.0693 -0.1933
  535loPI   C1B 8557  10.064  13.371  10.046 -0.2736 -0.2015 -0.3469
  535loPI   C2B 8558  10.307  13.680   9.824  0.2045 -0.2972 -0.2078
  535loPI   C3B 8559  10.020  13.921   9.509 -0.0784  0.2489  0.0417
  535loPI   C4B 8560   9.867  13.818   9.210  0.0301 -0.3076  0.0102
  536loPI    C1 8561   3.399   7.180  10.583  0.0202  0.1170 -0.0968
  536loPI    C2 8562   3.098   7.233  10.324 -0.0670 -0.1207 -0.0463
  536loPI    C3 8563   3.094   7.422  10.676  0.0368  0.1796 -0.2028
  536loPI   PO4 8564   3.599   7.215  10.447 -0.1450 -0.1863  0.2501
  536loPI   GL1 8565   3.498   7.271  10.038  0.0624  0.2642  0.1800
  536loPI   GL2 8566   3.251   7.525   9.867 -0.1262 -0.1457  0.0237
  536loPI   C1A 8567   3.713   7.133   9.642  0.4782  0.0486 -0.0701
  536loPI   C2A 8568   3.589   7.186   9.284  0.1086 -0.0923  0.2076
  536loPI   C3A 8569   3.624   7.246   8.796  0.0276  0.0205 -0.4499
  536loPI   C4A 8570   3.449   7.193   8.384 -0.3558  0.2787 -0.0182
  536loPI   C5A 8571   3.439   7.123   7.873  0.4560 -0.3333 -0.0641
  536loPI   C6A 8572   3.148   6.920   7.553 -0.1228 -0.0139 -0.0047
  536loPI   C1B 8573   3.154   7.494   9.416 -0.0804 -0.3499 -0.0464
  536loPI   C2B 8574   3.184   7.419   9.020 -0.3368  0.2300 -0.1363
  536loPI   C3B 8575   3.094   7.498   8.707 -0.2616  0.3008  0.0095
  536loPI   C4B 8576   3.019   7.386   8.255 -0.0538  0.1787 -0.0419
  537loPI    C1 8577  11.460   9.897  10.354  0.0551 -0.0787 -0.1077
  537loPI    C2 8578  11.224   9.648  10.560  0.0720  0.1483  0.1938
  537loPI    C3 8579  11.620   9.644  10.619  0.0795  0.1968  0.1471
  537loPI   PO4 8580  11.317   9.845  10.090  0.1209 -0.3476 -0.0422
  537loPI   GL1 8581  11.323   9.470   9.645  0.4921  0.0087  0.0363
  537loPI   GL2 8582  11.151   9.711   9.507 -0.1027 -0.1265  0.1076
  537loPI   C1A 8583  11.532   9.252   9.285 -0.2629  0.1310  0.2402
  537loPI   C2A 8584  11.507   8.993   8.924  0.1978 -0.1287 -0.1164
  537loPI   C3A 8585  11.597   8.916   8.558  0.1676  0.1160  0.2600
  537loPI   C4A 8586  11.532   8.888   8.174  0.0426 -0.0702 -0.0901
  537loPI   C5A 8587  11.462   8.656   7.802  0.2773 -0.0657 -0.0554
  537loPI   C6A 8588  11.423   8.708   7.364 -0.0521  0.0875  0.1681
  537loPI   C1B 8589  11.298   9.787   9.147 -0.3444 -0.2242  0.2391
  537loPI   C2B 8590  11.339   9.943   8.732 -0.2619 -0.1304 -0.1656
  537loPI   C3B 8591  11.297   9.859   8.366 -0.1543 -0.2006  0.3432
  537loPI   C4B 8592  10.939   9.999   8.016 -0.1569 -0.4685  0.0941
  538loPI    C1 8593  11.582  12.815  10.668  0.1573 -0.0275  0.2652
  538loPI    C2 8594  11.538  12.486  10.445 -0.0168  0.1653  0.0080
  538loPI    C3 8595  11.635  12.454  10.832  0.2028 -0.1770 -0.0706
  538loPI   PO4 8596  11.621  12.933  10.591  0.0968  0.0093 -0.0114
  538loPI   GL1 8597  11.445  13.360  10.323 -0.0115  0.0424 -0.0563
  538loPI   GL2 8598  11.614  13.606  10.136 -0.2124  0.0672 -0.0014
  538loPI   C1A 8599  11.464  13.255   9.853 -0.1113 -0.3079  0.2036
  538loPI   C2A 8600  11.434  13.261   9.433  0.1515  0.1157 -0.0914
  538loPI   C3A 8601  11.311  13.385   9.138 -0.3706  0.5083  0.3494
  538loPI   C4A 8602  11.242  13.298   8.720 -0.1099 -0.0009 -0.1523
  538loPI   C5A 8603  10.912  13.182   8.427  0.2487  0.2702  0.1203
  538loPI   C6A 8604  10.723  12.891   8.115 -0.1176 -0.2466  0.2267
  538loPI   C1B 8605  11.767  13.630   9.714  0.1955  0.1332  0.2956
  538loPI   C2B 8606  11.812  13.577   9.245  0.0072 -0.0939 -0.0098
  538loPI   C3B 8607  11.736  13.608   8.934 -0.0425  0.4090 -0.0542
  538loPI   C4B 8608  11.523  13.703   8.605 -0.1290 -0.1426 -0.2155
  539loPI    C1 8609   3.575  13.890  11.250  0.1319 -0.0679  0.0568
  539loPI    C2 8610   3.526  14.230  11.455  0.0262 -0.0555  0.0117
  539loPI    C3 8611   3.797  13.961  11.575 -0.1041 -0.0938  0.2260
  539loPI   PO4 8612   3.525  14.011  10.968 -0.0171  0.1900  0.4517
  539loPI   GL1 8613   3.594  14.195  10.510 -0.0930 -0.0163 -0.0512
  539loPI   GL2 8614   3.573  13.879  10.445  0.0805 -0.0636  0.0054
  539loPI   C1A 8615   3.778  14.291  10.117  0.1175 -0.0257  0.2921
  539loPI   C2A 8616   3.775  14.312   9.702  0.2290  0.1697 -0.1212
  539loPI   C3A 8617   3.753  14.251   9.122  0.1701 -0.1344 -0.3351
  539loPI   C4A 8618   3.703  14.418   8.704 -0.0176  0.1925 -0.1767
  539loPI   C5A 8619   3.496  14.723   8.466 -0.1275 -0.1596 -0.2552
  539loPI   C6A 8620   3.262  15.064   8.418 -0.3504 -0.0160  0.2692
  539loPI   C1B 8621   3.370  13.913  10.017 -0.0526  0.1469  0.0925
  539loPI   C2B 8622   3.399  13.929   9.658  0.0656 -0.1929  0.0982
  539loPI   C3B 8623   3.437  13.836   9.212  0.0111 -0.2659 -0.0336
  539loPI   C4B 8624   3.478  13.767   8.940 -0.0411 -0.3194  0.2246
  540loPI    C1 8625   5.845   1.081  10.441  0.1561  0.0303  0.0102
  540loPI    C2 8626   5.512   1.081  10.661 -0.0599  0.2214 -0.3084
  540loPI    C3 8627   5.819   0.846  10.764 -0.3024  0.0170 -0.0305
  540loPI   PO4 8628   5.725   1.157  10.181  0.0489  0.0335 -0.0550
  540loPI   GL1 8629   5.779   1.306   9.741 -0.2227 -0.1130  0.3526
  540loPI   GL2 8630   6.046   1.548   9.761 -0.0246 -0.0936  0.0790
  540loPI   C1A 8631   5.546   1.077   9.318 -0.0368  0.3019 -0.1237
  540loPI   C2A 8632   5.537   1.135   8.964  0.1082  0.3662 -0.0626
  540loPI   C3A 8633   5.582   1.076   8.546 -0.0831  0.0278  0.0014
  540loPI   C4A 8634   5.483   1.115   8.171 -0.1502 -0.0872  0.0580
  540loPI   C5A 8635   5.389   0.810   7.856  0.1921 -0.0303 -0.1765
  540loPI   C6A 8636   5.229   0.377   7.901  0.2361  0.1340 -0.0958
  540loPI   C1B 8637   5.825   1.495   9.283 -0.1031 -0.0442  0.3367
  540loPI   C2B 8638   5.808   1.592   8.932 -0.0889 -0.0617  0.0292
  540loPI   C3B 8639   5.967   1.476   8.547  0.2646 -0.0644  0.3721
  540loPI   C4B 8640   5.825   1.452   8.158 -0.2603 -0.0170 -0.2348
  541loPI    C1 8641   2.853  16.272  10.832 -0.3252 -0.3104  0.0334
  541loPI    C2 8642   2.879  15.920  11.021  0.1007 -0.1663  0.2562
  541loPI    C3 8643   2.941  16.261  11.222  0.0947  0.0163 -0.0451
  541loPI   PO4 8644   2.699  16.271  10.723  0.1719 -0.3239 -0.2371
  541loPI   GL1 8645   2.596  16.110  10.328 -0.0123  0.1165  0.1146
  541loPI   GL2 8646   2.830  15.896  10.414 -0.1876  0.3449 -0.3209
  541loPI   C1A 8647   2.436  16.281   9.928  0.0538  0.3795  0.1224
  541loPI   C2A 8648   2.450  16.330   9.495 -0.2801  0.1740  0.0171
  541loPI   C3A 8649   2.450  16.223   9.016 -0.3205  0.0632  0.3712
  541loPI   C4A 8650   2.321  16.260   8.572 -0.2901  0.1473 -0.2970
  541loPI   C5A 8651   2.363  16.032   8.165 -0.0270  0.0758  0.2582
  541loPI   C6A 8652   2.350  16.067   7.718 -0.1344  0.0611  0.0394
  541loPI   C1B 8653   2.680  15.817   9.929  0.3351  0.1852 -0.1590
  541loPI   C2B 8654   2.682  15.791   9.433 -0.1594 -0.1772  0.0008
  541loPI   C3B 8655   2.727  15.731   9.048 -0.2857 -0.0994 -0.1123
  541loPI   C4B 8656   2.812  15.799   8.542  0.4361  0.1152  0.0563
  542loPI    C1 8657  16.036   9.048  10.139  0.1241  0.3811 -0.1395
  542loPI    C2 8658  15.969   8.925  10.514  0.0436 -0.0273 -0.2832
  542loPI    C3 8659  16.341   9.013  10.396  0.0623  0.1541 -0.0949
  542loPI   PO4 8660  15.727   9.047  10.130  0.0270 -0.2793  0.0031
  542loPI   GL1 8661  15.615   9.216   9.718  0.3089 -0.1067  0.1132
  542loPI   GL2 8662  15.934   9.339   9.730  0.3531  0.0302 -0.0094
  542loPI   C1A 8663  15.598   9.399   9.267 -0.2144  0.1724 -0.2387
  542loPI   C2A 8664  15.657   9.534   8.779  0.1402 -0.2353 -0.2318
  542loPI   C3A 8665  15.683   9.858   8.481 -0.0763  0.1466 -0.0361
  542loPI   C4A 8666  15.430  10.093   8.224 -0.2168  0.0723  0.3885
  542loPI   C5A 8667  15.421  10.239   7.716 -0.1469  0.2400  0.2805
  542loPI   C6A 8668  14.922  10.308   7.651 -0.0278 -0.2136 -0.1695
  542loPI   C1B 8669  16.023   9.225   9.369  0.0675 -0.1111  0.1530
  542loPI   C2B 8670  16.025   9.156   9.041  0.3660  0.1599 -0.1291
  542loPI   C3B 8671  16.108   9.271   8.619  0.0890  0.0429 -0.0418
  542loPI   C4B 8672  16.136   9.265   8.231  0.0705  0.4833  0.0463
  543loPI    C1 8673   0.948  11.554  10.866 -0.1198  0.1549 -0.0291
  543loPI    C2 8674   1.214  11.265  10.788 -0.2671  0.0704 -0.2273
  543loPI    C3 8675   1.242  11.477  11.126  0.0364  0.0462 -0.2347
  543loPI   PO4 8676   0.805  11.650  10.603  0.1526 -0.0944  0.2988
  543loPI   GL1 8677   1.062  11.747  10.259 -0.0074 -0.1351  0.0552
  543loPI   GL2 8678   1.351  11.854  10.259 -0.1661 -0.1476  0.0780
  543loPI   C1A 8679   1.022  11.464   9.921  0.2070 -0.1202  0.1175
  543loPI   C2A 8680   1.072  11.413   9.461 -0.3222 -0.1958  0.2458
  543loPI   C3A 8681   0.993  11.303   9.045 -0.0480  0.0141 -0.1980
  543loPI   C4A 8682   1.311  11.391   8.749 -0.1502  0.0428 -0.0870
  543loPI   C5A 8683   1.514  11.353   8.314  0.0352 -0.0465  0.1054
  543loPI   C6A 8684   1.274  11.396   7.910 -0.1122 -0.1841 -0.0786
  543loPI   C1B 8685   1.440  11.839   9.850  0.0399 -0.1159 -0.2785
  543loPI   C2B 8686   1.415  11.780   9.415 -0.3625 -0.1910 -0.1479
  543loPI   C3B 8687   1.543  11.786   8.949 -0.4169  0.0451  0.1511
  543loPI   C4B 8688   1.817  11.653   8.528 -0.1102 -0.1329 -0.1324
  544loPI    C1 8689  13.658   0.006  10.589  0.3484  0.0760  0.0355
  544loPI    C2 8690  13.567   0.043  10.976 -0.1673 -0.1943 -0.0512
  544loPI    C3 8691  13.943  -0.037  10.866  0.0132  0.0274  0.3804
  544loPI   PO4 8692  13.381  -0.084  10.418 -0.2078  0.1299  0.0792
  544loPI   GL1 8693  13.317  -0.219   9.930  0.0411  0.1331  0.0135
  544loPI   GL2 8694  13.531  -0.032   9.943 -0.0161 -0.0221 -0.0909
  544loPI   C1A 8695  13.189  -0.355   9.509 -0.2654 -0.0551  0.0358
  544loPI   C2A 8696  13.106  -0.522   9.218 -0.0879  0.1313  0.1776
  544loPI   C3A 8697  13.124  -0.731   8.791 -0.2457 -0.2421  0.0949
  544loPI   C4A 8698  13.289  -0.784   8.411 -0.1744  0.0338 -0.0176
  544loPI   C5A 8699  13.631  -0.937   8.142  0.0613 -0.0172  0.2209
  544loPI   C6A 8700  13.687  -1.266   7.842  0.0582  0.2032 -0.2124
  544loPI   C1B 8701  13.647  -0.073   9.476 -0.1732  0.0666  0.1649
  544loPI   C2B 8702  13.673   0.024   9.134  0.1454 -0.0843 -0.0572
  544loPI   C3B 8703  13.447   0.182   8.644 -0.1246 -0.0683  0.0864
  544loPI   C4B 8704  13.259  -0.001   8.351 -0.3737 -0.2418 -0.2448
  545loPI    C1 8705  12.144  14.571  10.736 -0.2982  0.0722 -0.0113
  545loPI    C2 8706  12.215  14.178  10.762 -0.2126  0.0909  0.0415
  545loPI    C3 8707  11.950  14.350  11.007 -0.0342  0.1170  0.2191
  545loPI   PO4 8708  12.119  14.626  10.426  0.1147  0.2140  0.3640
  545loPI   GL1 8709  12.194  14.445  10.059 -0.1290  0.0192 -0.0464
  545loPI   GL2 8710  12.189  14.197  10.278  0.0385 -0.1310  0.5062
  545loPI   C1A 8711  12.187  14.445   9.604  0.2426 -0.1535  0.2306
  545loPI   C2A 8712  12.203  14.351   9.229  0.1451 -0.1908  0.2684
  545loPI   C3A 8713  12.301  14.580   8.949 -0.0455 -0.3353  0.1238
  545loPI   C4A 8714  12.152  14.674   8.496  0.2567 -0.1608  0.1430
  545loPI   C5A 8715  12.158  14.616   8.091  0.2235 -0.0354 -0.1179
  545loPI   C6A 8716  12.249  14.710   7.677  0.1421  0.2256  0.1761
  545loPI   C1B 8717  12.022  13.997   9.969 -0.2992  0.1144 -0.2213
  545loPI   C2B 8718  11.781  14.090   9.616 -0.1782 -0.0243 -0.2504
  545loPI   C3B 8719  11.719  14.125   9.249  0.0297 -0.0475  0.3114
  545loPI   C4B 8720  11.704  14.156   8.806 -0.1413 -0.2092  0.3510
  546loPI    C1 8721   3.817   8.833  10.219  0.0036 -0.1832 -0.0770
  546loPI    C2 8722   3.518   8.663  10.423  0.0010 -0.1069 -0.0166
  546loPI    C3 8723   3.895   8.619  10.548  0.0319 -0.3411 -0.1856
  546loPI   PO4 8724   3.869   8.696   9.938 -0.0665  0.0295  0.1006
  546loPI   GL1 8725   3.630   8.793   9.563 -0.2300  0.0485  0.3898
  546loPI   GL2 8726   3.361   8.635   9.538 -0.2003  0.1309  0.0192
  546loPI   C1A 8727   3.771   9.147   9.237 -0.0399 -0.3007 -0.0824
  546loPI   C2A 8728   3.876   9.316   8.839  0.1683  0.2579  0.0178
  546loPI   C3A 8729   4.042   9.183   8.376  0.0820  0.2013 -0.3495
  546loPI   C4A 8730   3.950   9.052   7.919  0.1682  0.1877 -0.0767
  546loPI   C5A 8731   3.953   8.960   7.578 -0.0669  0.0480 -0.1299
  546loPI   C6A 8732   4.219   9.100   7.157  0.0229 -0.0647  0.1768
  546loPI   C1B 8733   3.353   8.795   9.048 -0.0865 -0.0114  0.3219
  546loPI   C2B 8734   3.011   8.972   8.612  0.0370  0.0283 -0.3897
  546loPI   C3B 8735   2.824   9.013   8.264  0.1244 -0.0411 -0.0897
  546loPI   C4B 8736   2.420   8.936   8.138 -0.3414 -0.1470 -0.0825
  547loPI    C1 8737  10.300  10.752  10.637 -0.1453 -0.0574  0.0840
  547loPI    C2 8738  10.640  10.852  10.823 -0.1503  0.0137  0.0553
  547loPI    C3 8739  10.320  10.740  11.036 -0.1882  0.1953  0.0953
  547loPI   PO4 8740  10.205  10.946  10.505 -0.5573  0.1331  0.4711
  547loPI   GL1 8741   9.980  11.030  10.070 -0.2056 -0.0057 -0.2739
  547loPI   GL2 8742  10.230  11.021   9.942 -0.1868  0.1757 -0.0658
  547loPI   C1A 8743   9.578  11.063   9.900  0.0340  0.1031  0.1446
  547loPI   C2A 8744   9.268  11.163   9.577  0.1371  0.0323  0.0432
  547loPI   C3A 8745   9.105  11.273   9.214  0.2130 -0.1273  0.1257
  547loPI   C4A 8746   9.038  11.624   8.968  0.1542 -0.1872 -0.1726
  547loPI   C5A 8747   8.666  11.753   8.731 -0.1157  0.1870  0.2753
  547loPI   C6A 8748   8.457  11.717   8.386  0.1285 -0.0556  0.0062
  547loPI   C1B 8749  10.225  11.223   9.553 -0.3965  0.2277 -0.1822
  547loPI   C2B 8750   9.888  11.287   9.289  0.1455  0.0836  0.1601
  547loPI   C3B 8751   9.729  11.229   8.929  0.0338  0.0418 -0.0190
  547loPI   C4B 8752   9.293  11.133   8.744  0.0086  0.4338  0.0070
  548loPI    C1 8753   9.325   1.634  10.451  0.1786 -0.0333  0.1778
  548loPI    C2 8754   9.005   1.747  10.662  0.0184 -0.2368  0.0486
  548loPI    C3 8755   9.137   1.371  10.687  0.2262 -0.1636  0.0718
  548loPI   PO4 8756   9.424   1.909  10.275  0.3870 -0.2761  0.0226
  548loPI   GL1 8757   9.577   1.880   9.776 -0.0341  0.0373 -0.1974
  548loPI   GL2 8758   9.578   1.476   9.923 -0.0850  0.1050  0.0417
  548loPI   C1A 8759   9.521   1.965   9.389 -0.0827 -0.2104  0.0709
  548loPI   C2A 8760   9.352   1.837   9.030  0.0831 -0.1624 -0.1943
  548loPI   C3A 8761   9.409   1.894   8.679  0.2787  0.2935  0.2186
  548loPI   C4A 8762   9.300   1.595   8.367  0.0534  0.0020 -0.2562
  548loPI   C5A 8763   9.337   1.501   8.024  0.0959  0.1583  0.0403
  548loPI   C6A 8764   9.450   1.651   7.603 -0.1433 -0.0545 -0.3240
  548loPI   C1B 8765   9.716   1.454   9.526  0.3206 -0.0339 -0.1398
  548loPI   C2B 8766   9.603   1.456   9.122  0.1054  0.1956  0.0714
  548loPI   C3B 8767   9.589   1.386   8.752 -0.0146  0.1696 -0.1878
  548loPI   C4B 8768   9.727   1.285   8.288  0.1788  0.2044 -0.0277
  549loPI    C1 8769  14.490  10.065  10.108  0.1579 -0.1005 -0.2072
  549loPI    C2 8770  14.588  10.428   9.970 -0.1874  0.0490 -0.0717
  549loPI    C3 8771  14.751  10.292  10.309 -0.1958  0.1542 -0.0252
  549loPI   PO4 8772  14.518   9.840   9.977 -0.0600  0.0798  0.1526
  549loPI   GL1 8773  14.738   9.740   9.680  0.1741  0.2620  0.2293
  549loPI   GL2 8774  14.844  10.068   9.662 -0.0282 -0.2461 -0.0148
  549loPI   C1A 8775  14.771   9.537   9.199 -0.0705  0.4609 -0.1700
  549loPI   C2A 8776  15.130   9.454   9.008  0.3970 -0.2642 -0.0426
  549loPI   C3A 8777  15.180   9.286   8.634  0.1826  0.0131 -0.0570
  549loPI   C4A 8778  14.897   9.349   8.228  0.1137 -0.0628 -0.2112
  549loPI   C5A 8779  14.669   9.370   7.742  0.0494  0.1043  0.1211
  549loPI   C6A 8780  14.539   9.442   7.348  0.0723 -0.1871  0.0988
  549loPI   C1B 8781  14.873  10.438   9.420 -0.2894  0.2189 -0.1402
  549loPI   C2B 8782  14.916  10.724   8.993  0.1693 -0.0050  0.1830
  549loPI   C3B 8783  14.846  10.817   8.553  0.1261 -0.1514  0.0980
  549loPI   C4B 8784  14.812  10.664   8.135  0.0912  0.1289  0.1419
  550loPI    C1 8785  13.150   8.332  10.263  0.0678  0.1574  0.1557
  550loPI    C2 8786  13.292   8.393  10.631  0.1114  0.0716  0.1535
  550loPI    C3 8787  12.898   8.405  10.565  0.0736 -0.3165  0.2831
  550loPI   PO4 8788  13.293   8.127  10.183 -0.1339 -0.3011  0.2772
  550loPI   GL1 8789  13.479   7.940   9.721  0.0702 -0.1231  0.2916
  550loPI   GL2 8790  13.746   8.123   9.892 -0.1949 -0.0713  0.0807
  550loPI   C1A 8791  13.635   7.934   9.188  0.3447 -0.3042  0.1423
  550loPI   C2A 8792  13.630   8.028   8.733 -0.2017  0.2179 -0.1266
  550loPI   C3A 8793  13.718   8.163   8.420 -0.0168  0.2248  0.4047
  550loPI   C4A 8794  13.602   8.263   8.006  0.2656 -0.2129  0.0854
  550loPI   C5A 8795  13.877   8.544   7.904  0.0121 -0.3992  0.0820
  550loPI   C6A 8796  13.773   9.008   7.813 -0.0334  0.1300  0.3194
  550loPI   C1B 8797  13.910   8.326   9.562 -0.0114 -0.1729  0.2611
  550loPI   C2B 8798  13.867   8.455   9.215  0.2113  0.4395  0.0461
  550loPI   C3B 8799  13.879   8.546   8.771 -0.1065  0.0302  0.1078
  550loPI   C4B 8800  13.853   8.620   8.363 -0.1997  0.1366 -0.0793
  551loPI    C1 8801   5.504  15.475  11.172 -0.2231 -0.1705  0.0288
  551loPI    C2 8802   5.546  15.584  11.555  0.2801  0.2238 -0.1266
  551loPI    C3 8803   5.573  15.198  11.452  0.1261  0.1129  0.2321
  551loPI   PO4 8804   5.697  15.597  11.070  0.0298 -0.0477  0.3077
  551loPI   GL1 8805   5.730  15.437  10.660 -0.1534 -0.2200  0.2917
  551loPI   GL2 8806   5.949  15.188  10.580 -0.2202 -0.0799  0.1142
  551loPI   C1A 8807   5.579  15.805  10.376 -0.1526 -0.0031 -0.0278
  551loPI   C2A 8808   5.605  15.817   9.941 -0.2368 -0.3931  0.0589
  551loPI   C3A 8809   5.572  15.755   9.622 -0.1225 -0.0240  0.2235
  551loPI   C4A 8810   5.540  15.782   9.119 -0.1556  0.0611  0.2565
  551loPI   C5A 8811   5.725  15.719   8.669  0.2347  0.2344 -0.0036
  551loPI   C6A 8812   5.954  15.491   8.314 -0.3649 -0.0185  0.0377
  551loPI   C1B 8813   5.861  15.334  10.153 -0.0673 -0.1168  0.1602
  551loPI   C2B 8814   5.888  15.356   9.684  0.1760  0.0683 -0.3594
  551loPI   C3B 8815   5.812  15.415   9.312  0.0519 -0.1044  0.1187
  551loPI   C4B 8816   5.874  15.224   8.865  0.0232  0.0435  0.3334
  552loPI    C1 8817   8.494   8.228   9.967  0.0530 -0.1565  0.1545
  552loPI    C2 8818   8.880   8.157  10.046  0.1080 -0.0177  0.0162
  552loPI    C3 8819   8.630   8.256  10.342  0.2206  0.0834  0.0788
  552loPI   PO4 8820   8.380   8.078   9.762 -0.2413  0.0335 -0.0930
  552loPI   GL1 8821   8.044   8.237   9.446  0.2784 -0.4661 -0.0542
  552loPI   GL2 8822   7.902   8.497   9.344 -0.0869 -0.0148 -0.1452
  552loPI   C1A 8823   8.154   8.172   9.041 -0.0852  0.0932 -0.1435
  552loPI   C2A 8824   8.177   8.338   8.635  0.0248  0.0710 -0.1289
  552loPI   C3A 8825   8.350   8.308   8.243  0.1064 -0.1370  0.0403
  552loPI   C4A 8826   8.559   8.638   8.034  0.1252  0.4325  0.0879
  552loPI   C5A 8827   8.643   8.609   7.592  0.0347 -0.1765 -0.2034
  552loPI   C6A 8828   8.691   8.710   7.199 -0.0305 -0.1489 -0.0083
  552loPI   C1B 8829   8.020   8.725   8.995  0.0142  0.1645 -0.1240
  552loPI   C2B 8830   7.878   8.764   8.533 -0.2896 -0.3384  0.1850
  552loPI   C3B 8831   7.588   8.759   8.157 -0.2129  0.1196  0.3035
  552loPI   C4B 8832   7.586   8.518   7.822  0.1359 -0.4072  0.1273
  553loPI    C1 8833   9.420  10.604  10.219  0.1565  0.0816 -0.0230
  553loPI    C2 8834   9.325  10.219  10.272  0.0105  0.0980 -0.1568
  553loPI    C3 8835   9.036  10.493  10.230  0.0994  0.2987  0.4348
  553loPI   PO4 8836   9.682  10.508  10.193  0.3290  0.0558  0.1148
  553loPI   GL1 8837   9.892  10.597   9.823 -0.3549 -0.1021 -0.0645
  553loPI   GL2 8838  10.004  10.260   9.797  0.1094  0.1291  0.1613
  553loPI   C1A 8839   9.653  10.810   9.516  0.1092  0.0246  0.2988
  553loPI   C2A 8840   9.705  10.752   9.099  0.0227  0.2953  0.0070
  553loPI   C3A 8841   9.657  10.762   8.741  0.2064 -0.2126 -0.3054
  553loPI   C4A 8842   9.586  10.654   8.283  0.0084  0.2038  0.0777
  553loPI   C5A 8843   9.658  10.847   7.922  0.3386  0.1090  0.0752
  553loPI   C6A 8844   9.487  10.952   7.543  0.3028 -0.0873  0.1664
  553loPI   C1B 8845   9.934  10.251   9.298  0.5021  0.0991 -0.0305
  553loPI   C2B 8846  10.061  10.415   8.942 -0.3714  0.1869  0.0134
  553loPI   C3B 8847  10.015  10.467   8.563  0.0772  0.0324  0.0741
  553loPI   C4B 8848  10.123  10.704   8.055 -0.2341 -0.1666 -0.0295
  554loPI    C1 8849  13.635   3.116  10.255  0.0086  0.1223 -0.0573
  554loPI    C2 8850  13.757   2.740  10.196  0.2230  0.2141 -0.2069
  554loPI    C3 8851  13.718   2.881  10.568 -0.1557 -0.0503 -0.1414
  554loPI   PO4 8852  13.691   3.187   9.994  0.0066 -0.2904  0.0592
  554loPI   GL1 8853  13.477   2.961   9.782 -0.1686 -0.1206 -0.1350
  554loPI   GL2 8854  13.280   3.130   9.743 -0.1521  0.1675  0.2122
  554loPI   C1A 8855  13.759   2.966   9.378 -0.2755 -0.1123  0.1437
  554loPI   C2A 8856  13.805   2.865   8.869 -0.1587  0.5684 -0.0772
  554loPI   C3A 8857  13.809   2.753   8.395  0.3041  0.0831  0.0399
  554loPI   C4A 8858  13.845   2.872   7.885 -0.2178  0.0233  0.0174
  554loPI   C5A 8859  13.938   3.217   7.533  0.2463  0.4395 -0.0181
  554loPI   C6A 8860  14.152   3.502   7.384  0.0601  0.3376  0.0067
  554loPI   C1B 8861  13.306   2.948   9.346  0.3428  0.1886  0.0983
  554loPI   C2B 8862  13.317   2.866   8.934  0.0249  0.0713 -0.4649
  554loPI   C3B 8863  13.315   2.818   8.550  0.4650 -0.2024 -0.4674
  554loPI   C4B 8864  13.289   2.718   8.212  0.1328  0.1085  0.0546
  555POPI    C1 8865   7.377   2.294  10.444  0.0366  0.1372 -0.1015
  555POPI    C2 8866   7.064   2.167  10.658  0.2619 -0.1258  0.0810
  555POPI    C3 8867   7.226   2.525  10.733  0.0370 -0.0081  0.0162
  555POPI   PO4 8868   7.333   2.092  10.196 -0.1184  0.0462  0.2621
  555POPI   GL1 8869   7.050   2.018   9.822 -0.0072  0.1014 -0.1539
  555POPI   GL2 8870   6.690   1.961   9.793 -0.1329 -0.2981  0.1318
  555POPI   C1A 8871   7.148   1.729   9.478 -0.0465  0.0057  0.3084
  555POPI   D2A 8872   7.333   1.933   9.175 -0.1398  0.0270 -0.1541
  555POPI   C3A 8873   7.121   1.857   8.778  0.2429 -0.0241  0.2941
  555POPI   C4A 8874   7.135   1.675   8.325  0.1174 -0.2218  0.2062
  555POPI   C1B 8875   6.675   1.880   9.380 -0.0494  0.0358  0.1917
  555POPI   C2B 8876   6.618   1.803   8.937 -0.3923 -0.3284  0.0227
  555POPI   C3B 8877   6.669   1.751   8.479 -0.1605  0.1904  0.1193
  555POPI   C4B 8878   6.593   1.648   8.045  0.0599  0.0442  0.1506
  556POPI    C1 8879  17.412   4.137  10.726  0.0801 -0.0468  0.2910
  556POPI    C2 8880  17.067   4.173  10.526  0.1489 -0.1632  0.1494
  556POPI    C3 8881  17.107   4.340  10.887  0.1170  0.2889 -0.0495
  556POPI   PO4 8882  17.524   3.928  10.558 -0.1958  0.0850  0.0430
  556POPI   GL1 8883  17.383   4.059  10.149  0.3118  0.1742 -0.1522
  556POPI   GL2 8884  17.087   3.844  10.138 -0.1893  0.2334  0.4445
  556POPI   C1A 8885  17.622   4.004   9.805 -0.0444  0.2832 -0.1583
  556POPI   D2A 8886  17.543   3.842   9.454 -0.3100 -0.1018  0.1105
  556POPI   C3A 8887  17.490   3.938   9.032 -0.1825  0.0571  0.0586
  556POPI   C4A 8888  17.519   3.841   8.642 -0.1354  0.1173 -0.0420
  556POPI   C1B 8889  17.226   3.538   9.747  0.1787 -0.0638 -0.0421
  556POPI   C2B 8890  17.159   3.430   9.304  0.0082  0.0322 -0.0253
  556POPI   C3B 8891  17.090   3.453   8.914 -0.2823 -0.1517  0.1201
  556POPI   C4B 8892  17.137   3.435   8.463 -0.1231 -0.0370 -0.1240
  557POPI    C1 8893   7.934  14.904  10.780  0.4344 -0.1130  0.1087
  557POPI    C2 8894   8.040  15.262  10.637  0.1933 -0.0232  0.1507
  557POPI    C3 8895   8.073  15.185  11.028 -0.4212  0.2056  0.2581
  557POPI   PO4 8896   7.654  14.922  10.718  0.1268 -0.0919  0.0948
  557POPI   GL1 8897   7.492  15.244  10.389 -0.1770  0.0177  0.0295
  557POPI   GL2 8898   7.676  15.544  10.500  0.0996 -0.0114 -0.0711
  557POPI   C1A 8899   7.450  15.194   9.916 -0.0598  0.1069 -0.4620
  557POPI   D2A 8900   7.422  15.275   9.507 -0.2192  0.1047 -0.1289
  557POPI   C3A 8901   7.361  15.077   9.110  0.0089  0.0289  0.0934
  557POPI   C4A 8902   7.465  15.114   8.709  0.1062  0.0933 -0.1054
  557POPI   C1B 8903   7.858  15.434  10.068 -0.0526  0.0456  0.0890
  557POPI   C2B 8904   7.806  15.486   9.692 -0.0991  0.1973  0.3074
  557POPI   C3B 8905   7.727  15.581   9.276 -0.1776 -0.0712  0.1387
  557POPI   C4B 8906   7.808  15.504   8.836  0.2737  0.0340  0.0735
  558POPI    C1 8907  14.920  16.879  10.451  0.0827  0.3069  0.1291
  558POPI    C2 8908  14.921  16.547  10.674  0.0099  0.2099 -0.0140
  558POPI    C3 8909  15.266  16.727  10.583  0.0633  0.0743 -0.0824
  558POPI   PO4 8910  14.765  16.845  10.201 -0.0098 -0.0094  0.1643
  558POPI   GL1 8911  14.896  16.998   9.756  0.0916  0.0873  0.1557
  558POPI   GL2 8912  14.805  16.639   9.685 -0.2355 -0.1696 -0.3734
  558POPI   C1A 8913  14.907  17.110   9.274  0.1752 -0.2888  0.1594
  558POPI   D2A 8914  14.922  17.213   8.741  0.0965 -0.2966 -0.2177
  558POPI   C3A 8915  15.299  17.177   8.459 -0.0986  0.4237 -0.1191
  558POPI   C4A 8916  15.206  17.224   7.992 -0.0827 -0.1912  0.0388
  558POPI   C1B 8917  14.912  16.601   9.199  0.5304  0.1841 -0.1637
  558POPI   C2B 8918  14.909  16.527   8.702 -0.2542 -0.1132  0.1673
  558POPI   C3B 8919  14.950  16.823   8.324  0.4890 -0.0990 -0.1179
  558POPI   C4B 8920  14.762  17.270   8.175 -0.2062  0.0780 -0.2516
  559POPI    C1 8921   1.177   6.655  10.166 -0.2385  0.1282 -0.1202
  559POPI    C2 8922   1.292   6.837  10.503  0.0292 -0.0068 -0.1366
  559POPI    C3 8923   1.559   6.762  10.214 -0.1788  0.0195 -0.3387
  559POPI   PO4 8924   0.996   6.738  10.087 -0.2777  0.0077 -0.1098
  559POPI   GL1 8925   0.707   6.774   9.704  0.1108  0.3168  0.1775
  559POPI   GL2 8926   0.969   6.820   9.579 -0.0043  0.0154 -0.0038
  559POPI   C1A 8927   0.568   6.560   9.263 -0.2241  0.0477 -0.1600
  559POPI   D2A 8928   0.466   6.416   8.837 -0.0560  0.1370  0.0974
  559POPI   C3A 8929   0.461   6.433   8.447 -0.1108  0.2211  0.0788
  559POPI   C4A 8930   0.428   6.379   8.022 -0.1220 -0.1378  0.2884
  559POPI   C1B 8931   0.817   6.967   9.159  0.1700 -0.3088 -0.0089
  559POPI   C2B 8932   0.826   6.823   8.660 -0.0809 -0.2794 -0.2457
  559POPI   C3B 8933   0.841   6.758   8.195  0.0090 -0.2865 -0.1508
  559POPI   C4B 8934   1.293   6.511   7.958  0.1483  0.1391 -0.1495
  560POPI    C1 8935   7.446   0.740  10.402  0.0746  0.0787  0.1305
  560POPI    C2 8936   7.315   0.828  10.769 -0.0587  0.0686  0.0861
  560POPI    C3 8937   7.707   0.835  10.689 -0.0268  0.0399  0.2363
  560POPI   PO4 8938   7.253   0.724  10.284  0.1203  0.0422 -0.1317
  560POPI   GL1 8939   7.119   0.568   9.910  0.2205  0.1140 -0.1656
  560POPI   GL2 8940   7.329   0.335   9.744  0.0977  0.1033  0.0922
  560POPI   C1A 8941   6.806   0.412   9.624 -0.0027  0.0786  0.2165
  560POPI   D2A 8942   6.957   0.373   9.203 -0.0783 -0.1075  0.0473
  560POPI   C3A 8943   6.778   0.401   8.756  0.0561  0.1613  0.2224
  560POPI   C4A 8944   6.747   0.446   8.308  0.1419  0.0302  0.0215
  560POPI   C1B 8945   7.442   0.371   9.352  0.2403  0.3196 -0.0532
  560POPI   C2B 8946   7.398   0.368   8.948 -0.0431  0.0275  0.2815
  560POPI   C3B 8947   7.232   0.334   8.527 -0.0257  0.0050 -0.0628
  560POPI   C4B 8948   7.257   0.416   8.128 -0.3550  0.0189 -0.2565
  561POPI    C1 8949  11.793   1.903  10.686  0.1179 -0.1357 -0.0149
  561POPI    C2 8950  12.108   2.026  10.899  0.0476 -0.0632  0.0478
  561POPI    C3 8951  11.830   1.793  11.068  0.0481 -0.0961  0.0036
  561POPI   PO4 8952  11.839   1.842  10.394 -0.0707  0.1736  0.1732
  561POPI   GL1 8953  11.961   1.897  10.051 -0.0317  0.0245  0.1395
  561POPI   GL2 8954  12.069   1.615   9.791  0.0992 -0.2030 -0.0691
  561POPI   C1A 8955  12.033   2.075   9.638 -0.0609  0.0332 -0.0254
  561POPI   D2A 8956  11.884   2.070   9.242  0.1090  0.2518  0.1292
  561POPI   C3A 8957  12.070   2.054   8.764 -0.1600 -0.3216 -0.0609
  561POPI   C4A 8958  11.996   1.937   8.365 -0.0486 -0.1913  0.1367
  561POPI   C1B 8959  12.048   1.343   9.368  0.1392  0.2060  0.0019
  561POPI   C2B 8960  12.090   1.119   8.914  0.3499 -0.2758 -0.2764
  561POPI   C3B 8961  12.307   0.997   8.529  0.0730 -0.1428 -0.1766
  561POPI   C4B 8962  12.165   0.876   8.136 -0.0062  0.1434  0.0085
  562POPI    C1 8963  11.950   4.857  10.070  0.2092 -0.1730  0.0844
  562POPI    C2 8964  12.052   5.136  10.338  0.0996  0.0761 -0.1286
  562POPI    C3 8965  11.898   4.787  10.461 -0.2030  0.2915  0.1226
  562POPI   PO4 8966  12.191   4.862   9.945 -0.3411  0.1585  0.0676
  562POPI   GL1 8967  12.263   5.034   9.517 -0.1260  0.0835 -0.0806
  562POPI   GL2 8968  12.549   5.001   9.599 -0.1462  0.1093 -0.2248
  562POPI   C1A 8969  12.320   4.827   9.170  0.0203 -0.2900 -0.1578
  562POPI   D2A 8970  12.405   4.417   8.905 -0.2553 -0.0514 -0.1627
  562POPI   C3A 8971  12.421   4.495   8.562 -0.2440 -0.3830 -0.0922
  562POPI   C4A 8972  12.337   4.558   8.264  0.1317 -0.1752  0.0295
  562POPI   C1B 8973  12.875   5.014   9.312  0.2908 -0.0462  0.0814
  562POPI   C2B 8974  12.658   5.192   8.927  0.0492  0.1929  0.1582
  562POPI   C3B 8975  12.294   5.043   8.580 -0.0764  0.1279 -0.1931
  562POPI   C4B 8976  12.239   5.050   8.112 -0.0443 -0.0820 -0.1334
  563POPI    C1 8977  11.198   6.303   9.983  0.0245  0.0261 -0.0170
  563POPI    C2 8978  11.335   5.927   9.996  0.0072  0.0246  0.1319
  563POPI    C3 8979  11.409   6.178  10.299  0.0151  0.1403  0.0349
  563POPI   PO4 8980  11.182   6.377   9.777 -0.3932  0.2085  0.0501
  563POPI   GL1 8981  11.336   6.539   9.443 -0.1553 -0.0113  0.0090
  563POPI   GL2 8982  11.124   6.609   9.164  0.0754  0.3151  0.1666
  563POPI   C1A 8983  11.622   6.575   9.074 -0.0944 -0.0734  0.2995
  563POPI   D2A 8984  11.828   6.665   8.802 -0.0459  0.1268  0.0384
  563POPI   C3A 8985  11.935   6.535   8.381 -0.0021  0.1646 -0.0003
  563POPI   C4A 8986  12.233   6.771   8.081  0.2194 -0.1927 -0.1257
  563POPI   C1B 8987  11.053   6.473   8.783  0.2453 -0.2451 -0.4434
  563POPI   C2B 8988  11.095   6.440   8.348 -0.2699 -0.0848 -0.2065
  563POPI   C3B 8989  10.882   6.302   8.013  0.2830 -0.1759  0.1149
  563POPI   C4B 8990  10.699   6.067   7.608  0.0083  0.0060 -0.1676
  564POPI    C1 8991  10.266   6.808   9.745  0.2510 -0.4828  0.1882
  564POPI    C2 8992   9.944   6.746   9.975  0.2036 -0.1347  0.2212
  564POPI    C3 8993  10.277   6.900  10.134  0.1634  0.1296  0.0564
  564POPI   PO4 8994  10.126   6.718   9.506 -0.2848 -0.1609 -0.0480
  564POPI   GL1 8995  10.106   7.111   9.215 -0.1632  0.0582 -0.1375
  564POPI   GL2 8996  10.093   7.431   9.231 -0.4246  0.0184  0.1968
  564POPI   C1A 8997  10.325   7.005   8.896  0.1836  0.0798  0.1833
  564POPI   D2A 8998  10.438   7.086   8.423  0.0098 -0.2615 -0.2517
  564POPI   C3A 8999  10.284   7.187   7.936 -0.0988  0.3514  0.1103
  564POPI   C4A 9000  10.225   7.325   7.512  0.0034  0.1221 -0.2146
  564POPI   C1B 9001   9.876   7.266   8.770  0.2189 -0.0298 -0.0599
  564POPI   C2B 9002   9.935   7.386   8.477  0.0343 -0.0102  0.1156
  564POPI   C3B 9003   9.922   7.535   7.986  0.0907  0.0548  0.0362
  564POPI   C4B 9004  10.064   7.823   7.673 -0.0552  0.0645 -0.0687
  565POPI    C1 9005   5.222  13.213  11.012  0.1437  0.0199  0.0924
  565POPI    C2 9006   4.877  13.404  11.076 -0.0227 -0.2850  0.1221
  565POPI    C3 9007   5.055  13.207  11.375  0.2094 -0.0809  0.1216
  565POPI   PO4 9008   5.325  13.325  10.859  0.0397  0.3727  0.2101
  565POPI   GL1 9009   5.323  13.579  10.399 -0.1450  0.0492 -0.2761
  565POPI   GL2 9010   5.446  13.843  10.458  0.1296  0.0020  0.1538
  565POPI   C1A 9011   5.045  13.483  10.105 -0.0183 -0.0977  0.0102
  565POPI   D2A 9012   5.282  13.371   9.694 -0.2526 -0.1682 -0.1820
  565POPI   C3A 9013   5.482  13.332   9.320 -0.1908  0.1093  0.2707
  565POPI   C4A 9014   5.486  13.440   8.918  0.0469 -0.2364 -0.0158
  565POPI   C1B 9015   5.356  13.914  10.064 -0.0418  0.2374  0.3238
  565POPI   C2B 9016   5.257  13.847   9.723 -0.2050  0.0282 -0.1485
  565POPI   C3B 9017   5.357  13.916   9.356 -0.0143 -0.0508  0.1917
  565POPI   C4B 9018   5.515  14.027   8.917  0.0308 -0.1107 -0.0064
  566POPI    C1 9019   6.606  17.687  11.098 -0.0319 -0.1167 -0.0400
  566POPI    C2 9020   6.342  17.568  11.374  0.0807 -0.3534 -0.0319
  566POPI    C3 9021   6.717  17.655  11.481  0.0256 -0.0787 -0.0535
  566POPI   PO4 9022   6.587  17.517  10.939  0.1874 -0.0518 -0.0026
  566POPI   GL1 9023   6.677  17.334  10.447  0.3459 -0.1144 -0.0422
  566POPI   GL2 9024   6.941  17.200  10.332  0.0507 -0.0182  0.0305
  566POPI   C1A 9025   6.621  17.175   9.958  0.1393 -0.2808 -0.1592
  566POPI   D2A 9026   6.564  17.086   9.429  0.1017  0.0838  0.2036
  566POPI   C3A 9027   6.590  17.068   9.014  0.1607 -0.3221 -0.1268
  566POPI   C4A 9028   6.593  17.087   8.683 -0.0936  0.1642  0.1939
  566POPI   C1B 9029   7.124  17.084   9.908  0.4676 -0.0425 -0.1875
  566POPI   C2B 9030   7.064  17.046   9.484 -0.1046 -0.0957 -0.0042
  566POPI   C3B 9031   7.136  17.015   9.050  0.2295  0.0597 -0.0773
  566POPI   C4B 9032   7.069  16.891   8.582  0.2165 -0.2105 -0.1752
  567POPI    C1 9033   9.124   4.226   9.736 -0.1814  0.0718  0.0335
  567POPI    C2 9034   9.231   4.515   9.991 -0.1393  0.1250 -0.0439
  567POPI    C3 9035   9.318   4.133  10.074  0.2356  0.1786 -0.1695
  567POPI   PO4 9036   9.158   4.318   9.527  0.1282  0.1878  0.0889
  567POPI   GL1 9037   8.748   4.316   9.173  0.0112  0.0799 -0.0947
  567POPI   GL2 9038   8.810   4.059   9.207 -0.0705 -0.0190  0.1791
  567POPI   C1A 9039   8.671   4.352   8.689  0.0509  0.1219  0.0316
  567POPI   D2A 9040   8.378   4.248   8.370  0.0501  0.1382 -0.2392
  567POPI   C3A 9041   8.359   4.249   7.959 -0.0395 -0.1674 -0.2628
  567POPI   C4A 9042   8.438   4.272   7.591 -0.1537 -0.0014 -0.2862
  567POPI   C1B 9043   8.866   3.882   8.750 -0.0907 -0.0814  0.3130
  567POPI   C2B 9044   8.922   3.628   8.401  0.1513 -0.2339  0.0491
  567POPI   C3B 9045   8.907   3.512   8.022 -0.0339  0.2463 -0.1411
  567POPI   C4B 9046   8.768   3.293   7.775  0.1250 -0.2330 -0.1354
  568POPI    C1 9047  15.383  15.583  10.557 -0.2597 -0.1213 -0.2883
  568POPI    C2 9048  15.205  15.804  10.838  0.0673 -0.1347 -0.0646
  568POPI    C3 9049  15.188  15.405  10.858  0.0526 -0.1352 -0.0895
  568POPI   PO4 9050  15.323  15.662  10.347 -0.0416  0.4331 -0.3081
  568POPI   GL1 9051  15.287  15.564   9.932 -0.0129  0.3043  0.2668
  568POPI   GL2 9052  15.551  15.464   9.861 -0.3587 -0.0333 -0.0581
  568POPI   C1A 9053  15.187  15.733   9.522  0.0810 -0.1021 -0.0325
  568POPI   D2A 9054  15.334  15.842   9.073 -0.0084 -0.0453 -0.0568
  568POPI   C3A 9055  15.512  15.551   8.851 -0.1467  0.2037 -0.1848
  568POPI   C4A 9056  15.359  15.090   8.732 -0.1444 -0.1453  0.1929
  568POPI   C1B 9057  15.571  15.294   9.406 -0.1651  0.0678  0.1820
  568POPI   C2B 9058  15.738  15.129   9.091  0.0067  0.1021 -0.3861
  568POPI   C3B 9059  15.882  15.240   8.681 -0.1556 -0.3132  0.1377
  568POPI   C4B 9060  15.957  15.350   8.187  0.0643  0.2685 -0.2198
  569POPI    C1 9061  13.619   7.034  10.049 -0.0383  0.0056  0.1327
  569POPI    C2 9062  13.660   6.636  10.027  0.1894  0.0268  0.1532
  569POPI    C3 9063  13.690   6.822  10.381  0.2409  0.0780  0.1222
  569POPI   PO4 9064  13.718   7.138   9.785 -0.1367  0.2203  0.1140
  569POPI   GL1 9065  13.576   7.147   9.372  0.2640  0.1054 -0.1143
  569POPI   GL2 9066  13.313   7.516   9.376 -0.2020  0.1606  0.0025
  569POPI   C1A 9067  13.518   7.086   8.969 -0.0950 -0.0564  0.1323
  569POPI   D2A 9068  13.622   6.945   8.594 -0.1861 -0.1961  0.1155
  569POPI   C3A 9069  13.521   7.154   8.203  0.0828 -0.1511  0.2488
  569POPI   C4A 9070  13.451   7.266   7.708  0.1103  0.3108  0.0728
  569POPI   C1B 9071  13.274   7.509   8.912  0.1132 -0.1794 -0.2998
  569POPI   C2B 9072  13.399   7.557   8.576 -0.1292 -0.3642  0.5458
  569POPI   C3B 9073  13.561   7.726   8.139  0.3995  0.1097  0.1353
  569POPI   C4B 9074  13.646   7.888   7.784  0.1822  0.2469  0.1144
  570DPPI    C1 9075   2.756   0.535  11.017 -0.0346  0.5507 -0.0215
  570DPPI    C2 9076   3.125   0.553  10.865 -0.0050  0.1662 -0.0047
  570DPPI    C3 9077   3.051   0.703  11.228  0.1555  0.1624  0.0304
  570DPPI   PO4 9078   2.581   0.463  10.796 -0.2239 -0.1486 -0.0772
  570DPPI   GL1 9079   2.717   0.277  10.451  0.1324  0.0928  0.0892
  570DPPI   GL2 9080   2.954   0.127  10.466 -0.2094  0.1622 -0.1205
  570DPPI   C1A 9081   2.565   0.166  10.096 -0.0474  0.0175 -0.1550
  570DPPI   C2A 9082   2.538   0.162   9.628  0.0659  0.2075 -0.1202
  570DPPI   C3A 9083   2.442   0.142   9.172  0.2144  0.0827 -0.2506
  570DPPI   C4A 9084   2.549   0.127   8.765 -0.4160 -0.0548  0.2338
  570DPPI   C1B 9085   3.062   0.056  10.051 -0.0191  0.0494  0.2616
  570DPPI   C2B 9086   3.047   0.073   9.612 -0.1870  0.2546  0.0496
  570DPPI   C3B 9087   3.028   0.126   9.116  0.2955  0.0024  0.1423
  570DPPI   C4B 9088   3.006  -0.042   8.732 -0.1857  0.1502 -0.2384
  571DPPI    C1 9089  18.183   2.040  10.997 -0.2569  0.1842  0.0775
  571DPPI    C2 9090  17.934   1.945  10.699 -0.1990  0.2319  0.0134
  571DPPI    C3 9091  17.931   1.732  11.038 -0.2232  0.1402 -0.0440
  571DPPI   PO4 9092  18.184   2.330  10.786 -0.1860 -0.3310 -0.0733
  571DPPI   GL1 9093  18.283   2.501  10.396 -0.2420  0.0088 -0.2025
  571DPPI   GL2 9094  18.023   2.257  10.294  0.1583 -0.2291 -0.2457
  571DPPI   C1A 9095  17.966   2.797  10.195  0.0639 -0.0307  0.0005
  571DPPI   C2A 9096  17.959   2.844   9.737 -0.0527 -0.1047  0.1376
  571DPPI   C3A 9097  17.961   2.804   9.280  0.1902  0.3245 -0.1453
  571DPPI   C4A 9098  17.870   2.930   8.890  0.2886 -0.0194  0.1346
  571DPPI   C1B 9099  18.126   2.269   9.894 -0.1667 -0.0219  0.0793
  571DPPI   C2B 9100  18.153   2.373   9.541  0.4073  0.1372 -0.0742
  571DPPI   C3B 9101  18.089   2.357   9.036 -0.0294 -0.0477 -0.0935
  571DPPI   C4B 9102  18.137   2.355   8.621 -0.2985 -0.2204  0.3048
  572DPPI    C1 9103  12.334  16.855  10.450  0.2403  0.0898  0.2457
  572DPPI    C2 9104  12.059  16.665  10.670  0.1728 -0.0193  0.0691
  572DPPI    C3 9105  12.362  16.460  10.507 -0.0070 -0.0134 -0.2832
  572DPPI   PO4 9106  12.242  16.941  10.251  0.0391 -0.2870 -0.2085
  572DPPI   GL1 9107  12.070  16.962   9.941  0.2045  0.0206  0.3517
  572DPPI   GL2 9108  11.665  17.059   9.870 -0.1540 -0.2906  0.0672
  572DPPI   C1A 9109  12.057  16.738   9.505 -0.0886 -0.2528  0.0988
  572DPPI   C2A 9110  12.019  16.801   9.150 -0.1402 -0.2857 -0.0398
  572DPPI   C3A 9111  12.103  16.946   8.683  0.0274 -0.1015  0.1758
  572DPPI   C4A 9112  11.892  17.177   8.250 -0.2325  0.0278 -0.0254
  572DPPI   C1B 9113  11.632  16.963   9.429 -0.3506  0.3048 -0.0931
  572DPPI   C2B 9114  11.610  16.946   8.854 -0.0398 -0.1793  0.2165
  572DPPI   C3B 9115  11.502  16.864   8.538  0.0042 -0.1123  0.0819
  572DPPI   C4B 9116  11.521  16.643   8.100  0.2141 -0.3223 -0.1334
  573DPPI    C1 9117   4.733   1.693  10.647  0.2249 -0.1458  0.0294
  573DPPI    C2 9118   4.760   2.047  10.830  0.3324 -0.1157 -0.0437
  573DPPI    C3 9119   4.755   1.711  11.046  0.1208 -0.0657  0.0321
  573DPPI   PO4 9120   4.790   1.782  10.398  0.4084 -0.1836  0.1504
  573DPPI   GL1 9121   4.747   1.568   9.951 -0.3507 -0.0875  0.2339
  573DPPI   GL2 9122   4.698   1.847   9.856 -0.0999  0.1016 -0.1609
  573DPPI   C1A 9123   4.695   1.623   9.447 -0.1809 -0.1325 -0.2416
  573DPPI   C2A 9124   4.746   1.462   9.068 -0.0629 -0.0660  0.0879
  573DPPI   C3A 9125   4.741   1.478   8.615  0.1250 -0.0459  0.0677
  573DPPI   C4A 9126   4.790   1.397   8.176  0.0840 -0.0533  0.0925
  573DPPI   C1B 9127   4.558   2.132   9.393 -0.3234 -0.2032 -0.0320
  573DPPI   C2B 9128   4.518   2.085   8.978 -0.1431  0.0559 -0.4371
  573DPPI   C3B 9129   4.606   1.943   8.607 -0.4344  0.3400 -0.0328
  573DPPI   C4B 9130   4.661   1.920   8.201 -0.0477  0.2095  0.0270
  574DPPI    C1 9131  14.764  17.369  10.317  0.1443  0.0043 -0.0225
  574DPPI    C2 9132  14.649  17.673  10.550 -0.0471  0.0242 -0.1401
  574DPPI    C3 9133  14.553  17.297  10.649  0.2373 -0.0058  0.0347
  574DPPI   PO4 9134  14.765  17.405  10.108  0.2327 -0.0006 -0.0933
  574DPPI   GL1 9135  14.883  17.754   9.875  0.1708  0.0382  0.3077
  574DPPI   GL2 9136  15.190  17.565   9.810 -0.4560 -0.0662  0.1618
  574DPPI   C1A 9137  14.791  17.600   9.459 -0.1012 -0.0608  0.0953
  574DPPI   C2A 9138  15.077  17.618   9.163  0.2509  0.0649  0.2175
  574DPPI   C3A 9139  14.970  17.712   8.733  0.0700 -0.0723 -0.3916
  574DPPI   C4A 9140  15.053  17.661   8.270 -0.0998 -0.0493  0.1341
  574DPPI   C1B 9141  15.390  17.355   9.476 -0.1705 -0.3507  0.1926
  574DPPI   C2B 9142  15.347  17.280   8.933 -0.0662 -0.0681  0.0642
  574DPPI   C3B 9143  15.578  17.566   8.662 -0.1161  0.1651  0.1507
  574DPPI   C4B 9144  15.514  17.625   8.163 -0.1735 -0.0282 -0.2012
  575DPPI    C1 9145   6.141   4.168   9.953  0.1491  0.0778 -0.0739
  575DPPI    C2 9146   6.410   4.174  10.249 -0.0713  0.1870  0.1273
  575DPPI    C3 9147   6.097   4.424  10.258 -0.2555 -0.0346 -0.0320
  575DPPI   PO4 9148   6.260   4.168   9.679 -0.0731 -0.2878  0.1154
  575DPPI   GL1 9149   6.077   4.071   9.295  0.0763  0.1365 -0.1260
  575DPPI   GL2 9150   5.962   3.826   9.279  0.3255  0.1630 -0.0565
  575DPPI   C1A 9151   6.175   4.214   8.869  0.1295  0.3215 -0.0792
  575DPPI   C2A 9152   6.202   4.215   8.363  0.0989  0.0676 -0.0776
  575DPPI   C3A 9153   6.120   4.107   7.936 -0.3039 -0.3986  0.5897
  575DPPI   C4A 9154   5.945   4.192   7.585  0.1748 -0.0168 -0.1920
  575DPPI   C1B 9155   5.927   3.811   8.780  0.1823 -0.1976  0.0459
  575DPPI   C2B 9156   5.861   3.818   8.259  0.3819  0.0795  0.0275
  575DPPI   C3B 9157   5.769   3.762   7.864 -0.1808 -0.1779  0.0973
  575DPPI   C4B 9158   5.752   3.714   7.381 -0.0163 -0.0334 -0.2388
  576DPPI    C1 9159  13.821  16.786  10.457  0.0962 -0.1908 -0.0063
  576DPPI    C2 9160  13.504  16.550  10.398 -0.0672  0.0196  0.0148
  576DPPI    C3 9161  13.554  16.733  10.750  0.0141  0.0812 -0.0286
  576DPPI   PO4 9162  13.820  16.890  10.159  0.0158 -0.0329 -0.1582
  576DPPI   GL1 9163  13.851  17.022   9.911 -0.0312 -0.0161  0.1021
  576DPPI   GL2 9164  13.972  16.787   9.685  0.2829 -0.2919 -0.3068
  576DPPI   C1A 9165  13.943  17.421   9.669 -0.0635 -0.1616  0.0099
  576DPPI   C2A 9166  13.859  17.390   9.284 -0.1338  0.3011  0.5059
  576DPPI   C3A 9167  14.043  17.584   8.889 -0.0938 -0.0131 -0.1532
  576DPPI   C4A 9168  13.855  17.697   8.541  0.0880 -0.2292 -0.0469
  576DPPI   C1B 9169  13.945  16.879   9.286  0.4209 -0.3564 -0.2112
  576DPPI   C2B 9170  13.946  17.058   8.921  0.0513  0.1603 -0.2880
  576DPPI   C3B 9171  14.215  17.246   8.525 -0.1897  0.2815  0.1468
  576DPPI   C4B 9172  14.182  17.367   8.108 -0.3065 -0.1495  0.0157
  577DPPI    C1 9173   0.371  11.042  10.427  0.1584  0.0100  0.0512
  577DPPI    C2 9174   0.006  11.185  10.348  0.1155 -0.2386 -0.2206
  577DPPI    C3 9175   0.149  11.195  10.722 -0.0994  0.0150 -0.1420
  577DPPI   PO4 9176   0.554  11.090  10.293 -0.2484 -0.2757  0.0756
  577DPPI   GL1 9177   0.455  11.272   9.952  0.1740 -0.0646 -0.1954
  577DPPI   GL2 9178   0.505  11.083   9.677 -0.0100 -0.1351 -0.1738
  577DPPI   C1A 9179   0.515  11.594   9.741 -0.2957  0.1928 -0.1233
  577DPPI   C2A 9180   0.532  11.561   9.362 -0.1060  0.4120 -0.0219
  577DPPI   C3A 9181   0.568  11.625   8.941  0.1604  0.0211 -0.1417
  577DPPI   C4A 9182   0.371  11.628   8.556  0.0097  0.1466  0.1597
  577DPPI   C1B 9183   0.535  11.012   9.247 -0.4366  0.4341 -0.2297
  577DPPI   C2B 9184   0.631  11.154   8.731 -0.2347  0.1305 -0.2064
  577DPPI   C3B 9185   0.710  11.276   8.364 -0.1886 -0.0913 -0.2119
  577DPPI   C4B 9186   1.040  11.561   8.340  0.1412  0.1423  0.2783
  578DPPI    C1 9187   3.168  14.907  10.721  0.1222 -0.0633  0.2323
  578DPPI    C2 9188   2.845  15.033  10.920  0.0262 -0.0563  0.0737
  578DPPI    C3 9189   3.196  15.002  11.109 -0.1033 -0.2276  0.2909
  578DPPI   PO4 9190   3.122  14.719  10.644  0.0109  0.1070  0.1258
  578DPPI   GL1 9191   3.293  14.551  10.382 -0.0713  0.0478 -0.3348
  578DPPI   GL2 9192   3.132  14.330  10.221 -0.0878 -0.1589 -0.2734
  578DPPI   C1A 9193   3.087  14.839  10.042  0.0870  0.3070 -0.1732
  578DPPI   C2A 9194   3.132  14.845   9.602 -0.0965  0.4740 -0.3283
  578DPPI   C3A 9195   3.209  14.873   9.254  0.2152 -0.0576  0.2591
  578DPPI   C4A 9196   3.142  14.873   8.891 -0.3336 -0.1408 -0.4064
  578DPPI   C1B 9197   3.251  14.376   9.854 -0.1975 -0.0672 -0.0379
  578DPPI   C2B 9198   3.316  14.325   9.408 -0.1249 -0.4500 -0.5293
  578DPPI   C3B 9199   3.326  14.379   9.010  0.0807 -0.1774 -0.0944
  578DPPI   C4B 9200   3.307  14.180   8.606 -0.0355 -0.1455 -0.0489
  579PYPI    C1 9201   9.702  14.623  11.303 -0.0029  0.0372  0.1784
  579PYPI    C2 9202  10.047  14.420  11.309 -0.1232 -0.1810 -0.0886
  579PYPI    C3 9203   9.778  14.368  11.601 -0.0788 -0.2747 -0.0642
  579PYPI   PO4 9204   9.541  14.638  11.081  0.0501  0.3563  0.0677
  579PYPI   GL1 9205   9.370  14.636  10.626 -0.1115 -0.0067  0.0574
  579PYPI   GL2 9206   9.496  14.935  10.459 -0.3234 -0.3098 -0.0470
  579PYPI   C1A 9207   9.688  14.364  10.317  0.0850 -0.0098  0.0475
  579PYPI   C2A 9208   9.559  14.114   9.829 -0.0943 -0.1253  0.1702
  579PYPI   D3A 9209   9.705  13.701   9.841 -0.2005  0.1570 -0.1891
  579PYPI   C4A 9210   9.464  13.622   9.639  0.1001 -0.1928  0.0999
  579PYPI   C1B 9211   9.344  14.752  10.125  0.1826  0.0390 -0.0611
  579PYPI   C2B 9212   9.274  14.503   9.815 -0.2226 -0.0603  0.0180
  579PYPI   C3B 9213   9.231  14.413   9.407  0.2300 -0.1767 -0.2138
  579PYPI   C4B 9214   9.094  14.352   9.031  0.1205 -0.0963  0.0081
  580PYPI    C1 9215  10.039   0.675  10.276  0.0754 -0.0521  0.3165
  580PYPI    C2 9216  10.038   1.005  10.502 -0.1264  0.1652  0.0070
  580PYPI    C3 9217   9.732   0.748  10.521  0.0520 -0.0324  0.2816
  580PYPI   PO4 9218  10.233   0.618  10.116 -0.0822 -0.0806  0.3533
  580PYPI   GL1 9219  10.368   0.578   9.726 -0.1323  0.1745 -0.0473
  580PYPI   GL2 9220  10.697   0.601   9.763  0.0666  0.0137 -0.0432
  580PYPI   C1A 9221  10.307   0.461   9.316 -0.0034  0.0067  0.0949
  580PYPI   C2A 9222  10.258   0.334   8.893 -0.0122 -0.3275 -0.2848
  580PYPI   D3A 9223  10.249   0.511   8.545  0.1658 -0.1773 -0.1623
  580PYPI   C4A 9224  10.102   0.301   8.254 -0.0686 -0.0728 -0.1112
  580PYPI   C1B 9225  10.824   0.523   9.394 -0.0127 -0.3889  0.3879
  580PYPI   C2B 9226  10.757   0.494   9.044 -0.0035  0.2387  0.1391
  580PYPI   C3B 9227  10.746   0.456   8.675 -0.0536  0.4104 -0.1199
  580PYPI   C4B 9228  10.718   0.320   8.271 -0.1524  0.2761 -0.3366
  581PYPI    C1 9229  11.838   5.850   9.917  0.1474 -0.1720  0.0391
  581PYPI    C2 9230  12.033   5.563  10.117  0.2214 -0.1282  0.0301
  581PYPI    C3 9231  11.705   5.730  10.275  0.2931 -0.0771  0.1264
  581PYPI   PO4 9232  11.799   5.717   9.612 -0.1045 -0.0754  0.0359
  581PYPI   GL1 9233  11.952   5.560   9.323  0.0352 -0.4695 -0.0739
  581PYPI   GL2 9234  11.941   5.278   9.167  0.2387 -0.0442 -0.1479
  581PYPI   C1A 9235  12.258   5.685   8.967 -0.4346 -0.0256  0.2192
  581PYPI   C2A 9236  12.394   5.644   8.567 -0.1826  0.1546  0.0311
  581PYPI   D3A 9237  12.569   5.356   8.358 -0.1810  0.0185 -0.2084
  581PYPI   C4A 9238  12.536   5.360   7.887  0.2122  0.2407 -0.0401
  581PYPI   C1B 9239  11.880   5.410   8.823  0.1508  0.2344 -0.1865
  581PYPI   C2B 9240  11.986   5.419   8.463 -0.4221 -0.1136  0.3786
  581PYPI   C3B 9241  12.112   5.625   8.148  0.2201 -0.0892 -0.1645
  581PYPI   C4B 9242  12.403   5.870   8.017  0.2122  0.2726  0.1334
  582PYPI    C1 9243   0.259  14.846  10.821  0.0179  0.0654  0.0724
  582PYPI    C2 9244   0.360  14.699  11.179  0.1460 -0.1325 -0.0428
  582PYPI    C3 9245   0.541  15.026  11.039  0.0727 -0.0357  0.0861
  582PYPI   PO4 9246   0.252  14.639  10.637 -0.0482  0.0369 -0.0488
  582PYPI   GL1 9247   0.464  14.684  10.151 -0.1497  0.2449 -0.1721
  582PYPI   GL2 9248   0.570  14.310  10.218  0.2811  0.2598  0.2317
  582PYPI   C1A 9249   0.581  14.807   9.774 -0.1067  0.1584 -0.0880
  582PYPI   C2A 9250   0.686  14.752   9.391  0.1878  0.1298  0.0008
  582PYPI   D3A 9251   0.693  14.701   8.970 -0.3406 -0.3162  0.1482
  582PYPI   C4A 9252   0.532  14.706   8.600 -0.1383  0.1186 -0.3417
  582PYPI   C1B 9253   0.713  14.334   9.816  0.0467  0.1220  0.3543
  582PYPI   C2B 9254   0.853  14.260   9.462  0.0230 -0.1501 -0.2442
  582PYPI   C3B 9255   0.857  14.166   9.054 -0.1362  0.3902  0.3356
  582PYPI   C4B 9256   0.849  14.139   8.669  0.1268  0.0601  0.0056
  583PYPI    C1 9257  11.700   0.194  10.506 -0.0441  0.0339  0.1117
  583PYPI    C2 9258  11.449   0.505  10.485  0.1095  0.1622  0.1512
  583PYPI    C3 9259  11.495   0.308  10.830  0.0442  0.1216  0.1371
  583PYPI   PO4 9260  12.011   0.235  10.333 -0.0509  0.0072 -0.0502
  583PYPI   GL1 9261  12.086   0.371   9.916 -0.0544 -0.3429 -0.3499
  583PYPI   GL2 9262  12.346   0.628   9.970 -0.2664 -0.0875 -0.1600
  583PYPI   C1A 9263  11.952   0.264   9.485 -0.1020 -0.2341 -0.0970
  583PYPI   C2A 9264  11.896   0.158   8.996  0.0386 -0.0378 -0.0237
  583PYPI   D3A 9265  11.913  -0.008   8.542 -0.0121  0.2575  0.1590
  583PYPI   C4A 9266  11.693   0.174   8.112  0.0093  0.1096 -0.1580
  583PYPI   C1B 9267  12.497   0.834   9.542  0.1173  0.2996 -0.1777
  583PYPI   C2B 9268  12.500   0.777   9.113  0.0026  0.1879  0.0669
  583PYPI   C3B 9269  12.694   0.750   8.731  0.2520 -0.0151 -0.0737
  583PYPI   C4B 9270  12.643   0.634   8.222  0.0395 -0.2530 -0.0324
  584PYPI    C1 9271   5.734   8.280  10.153  0.0809 -0.2073  0.1029
  584PYPI    C2 9272   5.422   8.309  10.401  0.0814  0.1965  0.0631
  584PYPI    C3 9273   5.755   8.124  10.521 -0.1162 -0.1048  0.1593
  584PYPI   PO4 9274   5.535   8.280   9.886 -0.3915  0.3057 -0.2187
  584PYPI   GL1 9275   5.380   8.229   9.438 -0.3555  0.1899  0.1068
  584PYPI   GL2 9276   5.679   8.127   9.464 -0.1565 -0.0880  0.0268
  584PYPI   C1A 9277   5.145   8.285   9.169  0.2214 -0.1180  0.0981
  584PYPI   C2A 9278   5.207   8.318   8.615 -0.0787  0.1067  0.0093
  584PYPI   D3A 9279   5.099   8.187   8.321  0.1056 -0.2611  0.5605
  584PYPI   C4A 9280   5.198   8.045   7.961 -0.2891  0.3693  0.2627
  584PYPI   C1B 9281   5.653   8.028   9.020 -0.2747  0.1845 -0.2305
  584PYPI   C2B 9282   5.643   8.063   8.577  0.1702  0.0077 -0.4130
  584PYPI   C3B 9283   5.689   8.262   8.152 -0.1076  0.1097  0.0213
  584PYPI   C4B 9284   5.780   8.567   7.884 -0.0924  0.0437 -0.1387
  585ERGO   ROH 9285  12.088  12.525   6.728 -0.3249  0.0200 -0.1412
  585ERGO    R1 9286  12.087  12.425   6.993 -0.2787  0.0707 -0.1210
  585ERGO    R2 9287  11.890  12.256   7.087 -0.1356 -0.1058 -0.1255
  585ERGO    R3 9288  12.101  12.098   7.152  0.0092  0.1133 -0.0556
  585ERGO    R4 9289  11.914  12.067   7.376 -0.0878 -0.1783 -0.1769
  585ERGO    R5 9290  12.124  12.124   7.389 -0.1597  0.0587 -0.0340
  585ERGO    C1 9291  12.126  11.809   7.605  0.0759 -0.0147 -0.1413
  585ERGO    C2 9292  11.960  11.502   7.719 -0.1867  0.0056 -0.1403
  586ERGO   ROH 9293  11.833   4.804   9.294 -0.1353 -0.1030 -0.0981
  586ERGO    R1 9294  11.756   4.778   9.023 -0.0331 -0.3029 -0.1086
  586ERGO    R2 9295  11.876   4.921   8.820 -0.2722 -0.0990 -0.1077
  586ERGO    R3 9296  11.915   4.675   8.712  0.2347 -0.0499 -0.0609
  586ERGO    R4 9297  11.815   4.839   8.489 -0.3991 -0.3510 -0.0250
  586ERGO    R5 9298  11.733   4.648   8.557  0.1335 -0.5474  0.1218
  586ERGO    C1 9299  11.816   4.560   8.196  0.0029 -0.4515  0.0671
  586ERGO    C2 9300  11.831   4.642   7.906 -0.0756 -0.1781 -0.3868
  587ERGO   ROH 9301  15.359  13.302   6.796 -0.0711 -0.2599 -0.0464
  587ERGO    R1 9302  15.298  13.389   7.058 -0.1519 -0.1207 -0.1110
  587ERGO    R2 9303  15.048  13.357   7.171 -0.0873 -0.3937 -0.0429
  587ERGO    R3 9304  15.189  13.236   7.369  0.1314 -0.0170  0.0445
  587ERGO    R4 9305  14.921  13.279   7.482  0.0543 -0.3790  0.0199
  587ERGO    R5 9306  15.111  13.341   7.570 -0.0387  0.0064 -0.0298
  587ERGO    C1 9307  14.979  13.118   7.850  0.3422 -0.0167  0.1385
  587ERGO    C2 9308  14.860  12.856   7.974  0.2226 -0.0322 -0.0467
  588ERGO   ROH 9309  16.763   3.849   6.371  0.0020 -0.4105  0.1065
  588ERGO    R1 9310  16.843   4.076   6.520  0.0082 -0.3071 -0.0536
  588ERGO    R2 9311  16.761   4.119   6.781  0.0760 -0.1649 -0.0592
  588ERGO    R3 9312  17.029   4.139   6.827  0.0877 -0.0893 -0.1432
  588ERGO    R4 9313  16.906   4.322   7.020  0.0695 -0.3957  0.1487
  588ERGO    R5 9314  17.063   4.370   6.876 -0.0106 -0.1295  0.1413
  588ERGO    C1 9315  17.242   4.460   7.201  0.0766 -0.4591  0.1909
  588ERGO    C2 9316  17.561   4.550   7.410  0.2480  0.0114  0.3519
  589ERGO   ROH 9317   4.230  14.107  10.200 -0.2643  0.0287 -0.0666
  589ERGO    R1 9318   4.342  14.147   9.943 -0.2106 -0.0237 -0.0508
  589ERGO    R2 9319   4.346  13.949   9.750 -0.2146 -0.0463 -0.0248
  589ERGO    R3 9320   4.223  14.139   9.599 -0.1495 -0.0405 -0.0721
  589ERGO    R4 9321   4.350  13.960   9.405 -0.1667 -0.1042 -0.0269
  589ERGO    R5 9322   4.374  14.177   9.417 -0.1157 -0.1068 -0.0594
  589ERGO    C1 9323   4.238  14.146   9.062 -0.0777 -0.1327 -0.0728
  589ERGO    C2 9324   4.299  13.979   8.736 -0.1248 -0.0791  0.1202
  590ERGO   ROH 9325   8.309  14.194   8.657  0.1468 -0.0315  0.0245
  590ERGO    R1 9326   8.566  14.176   8.540  0.1391 -0.0902  0.0156
  590ERGO    R2 9327   8.726  13.952   8.565  0.0841 -0.1326 -0.0013
  590ERGO    R3 9328   8.731  13.965   8.293  0.0778 -0.1186 -0.0005
  590ERGO    R4 9329   8.938  13.769   8.362  0.1040 -0.0938 -0.0154
  590ERGO    R5 9330   8.962  13.945   8.237  0.0784 -0.0853 -0.0064
  590ERGO    C1 9331   9.065  13.674   7.989  0.1098 -0.0581 -0.0227
  590ERGO    C2 9332   9.126  13.566   7.661  0.0105 -0.1798 -0.0721
  591ERGO   ROH 9333  11.991   1.123   9.840 -0.1782  0.0610  0.0301
  591ERGO    R1 9334  12.038   0.909   9.660  0.0912  0.0943  0.0579
  591ERGO    R2 9335  11.836   0.790   9.514  0.2172 -0.2662  0.1686
  591ERGO    R3 9336  11.996   0.851   9.303  0.0349 -0.0499  0.0880
  591ERGO    R4 9337  11.819   0.640   9.203  0.3132 -0.3432  0.1994
  591ERGO    R5 9338  12.037   0.640   9.196  0.3145 -0.0080  0.1049
  591ERGO    C1 9339  11.959   0.610   8.824  0.1978 -0.1850  0.1417
  591ERGO    C2 9340  11.769   0.515   8.580  0.0565  0.2701 -0.0766
  592ERGO   ROH 9341  17.758   8.071   9.633  0.2945  0.1102 -0.1229
  592ERGO    R1 9342  17.765   8.020   9.355  0.2259  0.3377 -0.1700
  592ERGO    R2 9343  17.918   8.168   9.179  0.6166  0.1489 -0.0098
  592ERGO    R3 9344  18.016   7.925   9.109  0.0663 -0.0354 -0.1938
  592ERGO    R4 9345  18.079   8.099   8.882  0.6627  0.0576  0.0365
  592ERGO    R5 9346  17.973   7.909   8.874  0.1904  0.3199 -0.2426
  592ERGO    C1 9347  18.266   7.830   8.643  0.1727 -0.1685 -0.1091
  592ERGO    C2 9348  18.337   7.896   8.335  0.1658  0.1044  0.0683
  593ERGO   ROH 9349   2.171  14.902   6.572 -0.1231 -0.0536  0.0099
  593ERGO    R1 9350   2.095  14.916   6.845 -0.0927  0.0889  0.0121
  593ERGO    R2 9351   2.163  14.720   7.028 -0.2904  0.0564  0.0533
  593ERGO    R3 9352   2.266  14.930   7.166 -0.0563 -0.0212 -0.0018
  593ERGO    R4 9353   2.171  14.747   7.373 -0.5250  0.2555  0.0458
  593ERGO    R5 9354   2.120  14.957   7.353 -0.1691  0.3339 -0.1321
  593ERGO    C1 9355   2.274  14.960   7.702 -0.4419  0.2988 -0.0102
  593ERGO    C2 9356   2.171  15.135   8.060 -0.2050 -0.1803  0.1993
  594ERGO   ROH 9357  12.544  14.068   9.783  0.0551 -0.0136  0.2074
  594ERGO    R1 9358  12.727  14.124   9.574  0.0317  0.1102  0.2193
  594ERGO    R2 9359  12.662  14.094   9.307  0.1055 -0.0458  0.2171
  594ERGO    R3 9360  12.743  14.353   9.291 -0.1634  0.0376  0.1477
  594ERGO    R4 9361  12.739  14.258   9.013  0.3259 -0.1711  0.2028
  594ERGO    R5 9362  12.907  14.353   9.116  0.0822  0.0926  0.3718
  594ERGO    C1 9363  12.861  14.597   8.827  0.2019 -0.1658  0.1294
  594ERGO    C2 9364  12.930  14.738   8.451 -0.2711  0.0135  0.0839
  595ERGO   ROH 9365   5.418   2.972   9.651  0.2171 -0.0447 -0.1053
  595ERGO    R1 9366   5.252   2.924   9.427  0.2797 -0.3425 -0.0911
  595ERGO    R2 9367   5.231   3.101   9.216 -0.1671 -0.3006 -0.0173
  595ERGO    R3 9368   5.297   2.883   9.068  0.3099 -0.1019 -0.1168
  595ERGO    R4 9369   5.166   3.064   8.879 -0.2079 -0.3355 -0.0062
  595ERGO    R5 9370   5.114   2.856   8.917  0.3051 -0.4901 -0.0549
  595ERGO    C1 9371   5.191   2.837   8.544  0.2162 -0.1692 -0.0934
  595ERGO    C2 9372   5.237   2.946   8.237  0.1244 -0.0658  0.0925
  596ERGO   ROH 9373   7.209  12.904  10.047  0.0025 -0.0779 -0.0202
  596ERGO    R1 9374   7.057  13.017   9.837  0.0402 -0.0011 -0.0073
  596ERGO    R2 9375   7.106  13.271   9.737  0.0934  0.0161  0.0561
  596ERGO    R3 9376   7.121  13.139   9.500  0.0923  0.0675  0.0275
  596ERGO    R4 9377   7.069  13.417   9.427 -0.0295  0.0571  0.0903
  596ERGO    R5 9378   6.955  13.243   9.363  0.0247  0.0278  0.0824
  596ERGO    C1 9379   7.062  13.379   9.023 -0.1022  0.1294  0.0833
  596ERGO    C2 9380   7.007  13.300   8.820  0.1944  0.2085  0.0650
  597ERGO   ROH 9381  18.313   4.586   9.988 -0.0033  0.2781 -0.0757
  597ERGO    R1 9382  18.468   4.485   9.774 -0.0154  0.2161 -0.0542
  597ERGO    R2 9383  18.404   4.253   9.640 -0.0049  0.1649  0.0406
  597ERGO    R3 9384  18.418   4.414   9.421 -0.0400  0.0810 -0.0256
  597ERGO    R4 9385  18.407   4.141   9.313  0.3666 -0.0010  0.0944
  597ERGO    R5 9386  18.557   4.293   9.268  0.2239  0.1644  0.1332
  597ERGO    C1 9387  18.421   4.227   8.917  0.5504 -0.1764  0.0635
  597ERGO    C2 9388  18.330   4.204   8.565 -0.4861  0.0800 -0.1370
  598ERGO   ROH 9389   5.354   1.957   9.766  0.2096 -0.2026 -0.1928
  598ERGO    R1 9390   5.148   1.964   9.571  0.1299 -0.1474 -0.1080
  598ERGO    R2 9391   5.163   2.121   9.345  0.0154 -0.0464 -0.0464
  598ERGO    R3 9392   5.117   1.886   9.217 -0.0010  0.0020 -0.1304
  598ERGO    R4 9393   5.122   2.086   9.003  0.0346  0.0752 -0.0618
  598ERGO    R5 9394   4.963   1.941   9.042  0.0167  0.0784 -0.1220
  598ERGO    C1 9395   5.055   1.844   8.685  0.0304  0.1915 -0.1495
  598ERGO    C2 9396   5.139   1.872   8.278  0.0102 -0.0391 -0.2030
  599ERGO   ROH 9397   3.869  16.865   6.571  0.3083  0.0935 -0.1553
  599ERGO    R1 9398   3.798  16.862   6.845  0.2773  0.1943 -0.1616
  599ERGO    R2 9399   3.745  16.628   6.982  0.0130  0.2612 -0.1443
  599ERGO    R3 9400   3.935  16.722   7.152  0.0993  0.0742 -0.1358
  599ERGO    R4 9401   3.821  16.489   7.289 -0.0654  0.1259 -0.1854
  599ERGO    R5 9402   3.841  16.690   7.370  0.0943  0.0909 -0.1363
  599ERGO    C1 9403   4.045  16.495   7.627 -0.0301 -0.1281 -0.2014
  599ERGO    C2 9404   4.022  16.547   7.992 -0.1463 -0.3137 -0.2631
  600ERGO   ROH 9405   5.102   7.845   9.359  0.0789 -0.0036  0.2696
  600ERGO    R1 9406   5.205   7.847   9.095  0.0154  0.1917  0.2470
  600ERGO    R2 9407   5.206   7.622   8.934  0.2863  0.2309  0.2093
  600ERGO    R3 9408   5.076   7.785   8.760  0.0253  0.0838  0.2589
  600ERGO    R4 9409   5.186   7.568   8.594  0.1343  0.1316  0.2315
  600ERGO    R5 9410   5.214   7.784   8.564 -0.0787  0.1668  0.1717
  600ERGO    C1 9411   5.052   7.690   8.231 -0.1992 -0.0645  0.2911
  600ERGO    C2 9412   5.053   7.404   8.085 -0.1687 -0.4065  0.0303
  601ERGO   ROH 9413   3.846   4.937   6.047  0.0770  0.2524  0.0604
  601ERGO    R1 9414   3.859   4.782   6.284 -0.1928  0.2965  0.1056
  601ERGO    R2 9415   4.097   4.723   6.411 -0.2802 -0.1694  0.0621
  601ERGO    R3 9416   3.972   4.832   6.627 -0.0004  0.1671  0.0640
  601ERGO    R4 9417   4.198   4.684   6.740 -0.3342 -0.3938  0.0536
  601ERGO    R5 9418   3.988   4.665   6.796 -0.3946  0.1261  0.0763
  601ERGO    C1 9419   4.139   4.763   7.133 -0.1029 -0.2087  0.0503
  601ERGO    C2 9420   4.357   4.862   7.363  0.0397 -0.1560  0.1737
  602ERGO   ROH 9421  11.883  13.144  10.237 -0.1038  0.0270  0.1775
  602ERGO    R1 9422  11.951  13.163   9.963 -0.0941  0.0209  0.1795
  602ERGO    R2 9423  12.004  12.942   9.806 -0.0787  0.0176  0.1884
  602ERGO    R3 9424  11.811  13.048   9.647 -0.0776  0.0045  0.1783
  602ERGO    R4 9425  12.015  12.950   9.461 -0.0793 -0.0117  0.1876
  602ERGO    R5 9426  11.932  13.151   9.468 -0.0780 -0.0115  0.1697
  602ERGO    C1 9427  11.841  13.055   9.111 -0.0788 -0.0409  0.1776
  602ERGO    C2 9428  11.682  13.139   8.801 -0.0409 -0.0397  0.1028
  603ERGO   ROH 9429  10.300   4.019   5.823  0.1694 -0.1461  0.0264
  603ERGO    R1 9430  10.370   4.196   6.033  0.3541 -0.0479 -0.1124
  603ERGO    R2 9431  10.250   4.186   6.282  0.1202  0.4671 -0.1826
  603ERGO    R3 9432  10.506   4.166   6.369  0.0212  0.0343  0.0321
  603ERGO    R4 9433  10.354   4.245   6.606 -0.0085  0.4974 -0.1473
  603ERGO    R5 9434  10.531   4.345   6.526  0.2469  0.1004 -0.0830
  603ERGO    C1 9435  10.656   4.261   6.876 -0.1764  0.1089  0.0747
  603ERGO    C2 9436  10.797   4.178   7.133  0.0618  0.2368 -0.2838
  604ERGO   ROH 9437   3.785   0.940  10.196  0.0652  0.1334 -0.0619
  604ERGO    R1 9438   3.644   0.883   9.957  0.0469 -0.1102  0.0045
  604ERGO    R2 9439   3.603   1.073   9.760 -0.2645 -0.2142 -0.0318
  604ERGO    R3 9440   3.717   0.885   9.600 -0.0859 -0.1155 -0.0240
  604ERGO    R4 9441   3.540   1.036   9.422 -0.2196 -0.2690 -0.0345
  604ERGO    R5 9442   3.542   0.820   9.450 -0.0266 -0.2729 -0.0315
  604ERGO    C1 9443   3.611   0.838   9.075 -0.0257 -0.2081 -0.0288
  604ERGO    C2 9444   3.609   0.671   8.821 -0.2316 -0.2084 -0.0553
  605ERGO   ROH 9445  14.098   4.302   9.470 -0.0047 -0.0881 -0.1809
  605ERGO    R1 9446  14.247   4.323   9.230 -0.0972 -0.0174 -0.2337
  605ERGO    R2 9447  14.159   4.217   8.991 -0.2236  0.1117 -0.2514
  605ERGO    R3 9448  14.198   4.471   8.901 -0.1988  0.1445 -0.1460
  605ERGO    R4 9449  14.183   4.307   8.658  0.1092  0.2091 -0.2041
  605ERGO    R5 9450  14.343   4.445   8.712  0.0105  0.2391  0.0021
  605ERGO    C1 9451  14.234   4.597   8.380  0.3264  0.2967 -0.0775
  605ERGO    C2 9452  14.309   4.688   8.018 -0.0991 -0.3538 -0.0903
  606ERGO   ROH 9453   3.343  14.638   6.579 -0.0609  0.1268  0.0089
  606ERGO    R1 9454   3.167  14.629   6.800  0.0307  0.2826  0.0892
  606ERGO    R2 9455   3.117  14.397   6.942 -0.2513  0.2827 -0.0085
  606ERGO    R3 9456   3.191  14.549   7.155  0.0833  0.0654  0.0391
  606ERGO    R4 9457   3.133  14.286   7.269 -0.4278  0.1213 -0.0525
  606ERGO    R5 9458   3.049  14.476   7.333 -0.0462  0.2766  0.0292
  606ERGO    C1 9459   3.212  14.364   7.659 -0.2163 -0.1766 -0.0334
  606ERGO    C2 9460   3.349  14.265   7.846  0.3063 -0.1902  0.2407
  607ERGO   ROH 9461   4.675  10.187   6.372 -0.0734  0.5132  0.0732
  607ERGO    R1 9462   4.819  10.074   6.588 -0.0282  0.2889 -0.0738
  607ERGO    R2 9463   4.965  10.227   6.765 -0.0679  0.1106  0.0997
  607ERGO    R3 9464   4.814  10.098   6.951 -0.0085 -0.1649 -0.0343
  607ERGO    R4 9465   5.075  10.137   7.081 -0.1651  0.3299  0.2001
  607ERGO    R5 9466   4.967   9.948   7.058  0.1916  0.1141  0.1026
  607ERGO    C1 9467   4.997   9.963   7.438 -0.1659  0.1990  0.1327
  607ERGO    C2 9468   4.778  10.028   7.725 -0.2611  0.3582  0.2373
  608ERGO   ROH 9469   1.637   6.715   9.749 -0.3236  0.1250  0.1670
  608ERGO    R1 9470   1.447   6.746   9.541 -0.1953  0.1837  0.0569
  608ERGO    R2 9471   1.460   6.952   9.358  0.0205  0.1360  0.0113
  608ERGO    R3 9472   1.453   6.749   9.177  0.0052  0.0947  0.0585
  608ERGO    R4 9473   1.379   6.988   9.024  0.1242  0.0739 -0.0208
  608ERGO    R5 9474   1.266   6.802   9.036  0.0632  0.1158 -0.0063
  608ERGO    C1 9475   1.326   6.818   8.660  0.1702 -0.0009  0.0048
  608ERGO    C2 9476   1.314   6.711   8.399 -0.0090  0.2697  0.1855
  609ERGO   ROH 9477  11.238   2.182   6.145 -0.0313  0.1144  0.0459
  609ERGO    R1 9478  11.333   2.196   6.412 -0.0211 -0.1318  0.0569
  609ERGO    R2 9479  11.220   2.361   6.602  0.2580  0.0188  0.0965
  609ERGO    R3 9480  11.199   2.130   6.744 -0.1619  0.0069  0.0283
  609ERGO    R4 9481  11.122   2.340   6.933  0.2843  0.1036  0.1103
  609ERGO    R5 9482  11.275   2.188   6.963 -0.0003 -0.2076  0.0310
  609ERGO    C1 9483  11.046   2.111   7.258 -0.0944  0.1418  0.0544
  609ERGO    C2 9484  10.863   2.177   7.574 -0.0475  0.0467  0.0398
  610ERGO   ROH 9485  13.947   5.358   6.142 -0.1018  0.0539 -0.0046
  610ERGO    R1 9486  13.848   5.393   6.405  0.0519  0.1055  0.0463
  610ERGO    R2 9487  14.013   5.391   6.627  0.1968  0.2779 -0.0625
  610ERGO    R3 9488  13.896   5.631   6.676  0.1040  0.2365 -0.0749
  610ERGO    R4 9489  14.018   5.555   6.931  0.2242  0.3345 -0.0927
  610ERGO    R5 9490  13.810   5.611   6.898  0.1830  0.2362 -0.0400
  610ERGO    C1 9491  13.911   5.876   7.154  0.1529  0.3285 -0.1220
  610ERGO    C2 9492  13.936   6.148   7.270 -0.2261 -0.3276  0.0190
  611ERGO   ROH 9493   5.421   0.671   6.364  0.1344 -0.0214  0.1710
  611ERGO    R1 9494   5.543   0.479   6.534  0.0803  0.0233  0.2622
  611ERGO    R2 9495   5.816   0.469   6.574  0.0832 -0.0511  0.2481
  611ERGO    R3 9496   5.745   0.485   6.836  0.1038  0.1129  0.2437
  611ERGO    R4 9497   6.023   0.396   6.841  0.0597 -0.0029  0.2790
  611ERGO    R5 9498   5.855   0.300   6.940  0.0262  0.1216  0.3353
  611ERGO    C1 9499   6.077   0.370   7.242  0.0652  0.1792  0.2928
  611ERGO    C2 9500   6.158   0.318   7.513  0.4358 -0.0960  0.0389
  612ERGO   ROH 9501  10.193  14.692   6.626 -0.3284  0.0415  0.0376
  612ERGO    R1 9502  10.248  14.627   6.896 -0.3763 -0.0702  0.0207
  612ERGO    R2 9503  10.126  14.416   7.027 -0.0910 -0.3873 -0.2151
  612ERGO    R3 9504  10.383  14.342   7.077  0.0153  0.0167 -0.1211
  612ERGO    R4 9505  10.223  14.188   7.267  0.1677 -0.2865 -0.2192
  612ERGO    R5 9506  10.392  14.316   7.315 -0.0517 -0.0149 -0.1181
  612ERGO    C1 9507  10.520  13.985   7.455  0.4181  0.1515 -0.1334
  612ERGO    C2 9508  10.756  13.716   7.497  0.0242 -0.0659 -0.4154
  613ERGO   ROH 9509   1.602  17.627   6.413 -0.0675  0.0409  0.0834
  613ERGO    R1 9510   1.597  17.637   6.696 -0.0345  0.0746  0.0827
  613ERGO    R2 9511   1.697  17.851   6.841 -0.1367  0.1506  0.0400
  613ERGO    R3 9512   1.449  17.851   6.950 -0.1224  0.0238  0.0750
  613ERGO    R4 9513   1.616  17.985   7.148 -0.1259 -0.0615  0.1375
  613ERGO    R5 9514   1.486  17.815   7.183 -0.0819 -0.1151  0.0486
  613ERGO    C1 9515   1.336  18.063   7.431 -0.1062 -0.3039  0.2272
  613ERGO    C2 9516   1.280  18.323   7.644 -0.1330  0.0086  0.0871
  614ERGO   ROH 9517  15.951   3.556   9.809 -0.3654  0.1521 -0.0370
  614ERGO    R1 9518  15.971   3.661   9.547 -0.0372  0.0810 -0.0449
  614ERGO    R2 9519  16.205   3.650   9.399  0.0270 -0.3684  0.0768
  614ERGO    R3 9520  16.044   3.531   9.215 -0.1008 -0.1053  0.0125
  614ERGO    R4 9521  16.231   3.690   9.057  0.0425 -0.1827  0.0985
  614ERGO    R5 9522  16.014   3.696   9.045  0.0443  0.0305  0.1152
  614ERGO    C1 9523  16.096   3.601   8.685 -0.0684  0.1725  0.0508
  614ERGO    C2 9524  16.153   3.628   8.410 -0.1597 -0.0830 -0.4752
  615PSPI    C1 9525   1.468  10.716   5.960  0.0110  0.1050  0.1216
  615PSPI    C2 9526   1.200  11.007   5.899 -0.3005 -0.2537 -0.2915
  615PSPI    C3 9527   1.493  10.946   5.634 -0.0054 -0.0818 -0.0131
  615PSPI   PO4 9528   1.579  10.769   6.141 -0.0529  0.0209 -0.0872
  615PSPI   GL1 9529   1.533  10.980   6.512 -0.0223  0.4861 -0.0653
  615PSPI   GL2 9530   1.347  11.235   6.476 -0.2633  0.0744  0.0404
  615PSPI   C1A 9531   1.888  10.845   6.788  0.2522  0.0824 -0.1366
  615PSPI   C2A 9532   1.989  10.695   7.176  0.0552  0.0026 -0.0507
  615PSPI   C3A 9533   1.809  10.621   7.587  0.1058  0.3869 -0.0905
  615PSPI   C4A 9534   1.703  10.322   7.939 -0.2654 -0.4571  0.0964
  615PSPI   C1B 9535   1.365  11.212   6.923  0.1200  0.0378  0.0035
  615PSPI   C2B 9536   1.485  10.949   7.309  0.0762 -0.1454 -0.0311
  615PSPI   C3B 9537   1.571  11.062   7.734 -0.1650 -0.2459 -0.2430
  615PSPI   C4B 9538   1.592  10.875   8.082 -0.1915  0.2572 -0.1488
  616PSPI    C1 9539  15.485  12.990   5.620 -0.0729  0.1383  0.0105
  616PSPI    C2 9540  15.180  13.199   5.469 -0.0630  0.0497 -0.1343
  616PSPI    C3 9541  15.554  13.334   5.428 -0.0789  0.1428  0.0164
  616PSPI   PO4 9542  15.504  12.936   5.862 -0.2377  0.1958 -0.3989
  616PSPI   GL1 9543  15.281  13.013   6.299  0.0554 -0.2099  0.0336
  616PSPI   GL2 9544  15.130  13.202   6.286 -0.0563 -0.1532  0.1419
  616PSPI   C1A 9545  15.341  12.837   6.672 -0.3511 -0.0200 -0.0496
  616PSPI   C2A 9546  15.603  12.991   7.088  0.0703 -0.0491  0.0807
  616PSPI   C3A 9547  15.749  13.394   7.213  0.0981  0.0544 -0.1144
  616PSPI   C4A 9548  15.803  13.702   7.607  0.0538  0.0167 -0.0849
  616PSPI   C1B 9549  14.910  13.088   6.618  0.1139 -0.1358  0.1280
  616PSPI   C2B 9550  14.664  13.027   6.963  0.1059  0.1875  0.2392
  616PSPI   C3B 9551  14.707  12.834   7.359  0.2434 -0.2991  0.1499
  616PSPI   C4B 9552  14.457  12.835   7.692 -0.0532 -0.0516 -0.0310
  617PSPI    C1 9553   1.925   7.250   5.669  0.3462  0.0807  0.0842
  617PSPI    C2 9554   1.838   6.990   5.378 -0.2189  0.0416  0.2758
  617PSPI    C3 9555   1.929   7.369   5.287  0.0187 -0.0709  0.0298
  617PSPI   PO4 9556   1.807   7.133   5.875 -0.1618 -0.3011 -0.0881
  617PSPI   GL1 9557   1.962   6.970   6.219  0.3739 -0.2982 -0.0300
  617PSPI   GL2 9558   1.777   7.199   6.354 -0.3093  0.0974  0.1894
  617PSPI   C1A 9559   2.100   6.858   6.689  0.0197 -0.2492 -0.0838
  617PSPI   C2A 9560   2.105   7.041   7.119 -0.4139  0.1035 -0.3263
  617PSPI   C3A 9561   2.463   7.019   7.345  0.1799  0.0726  0.2710
  617PSPI   C4A 9562   2.608   7.230   7.765 -0.3587 -0.0987 -0.1267
  617PSPI   C1B 9563   1.786   7.205   6.753  0.1900 -0.0978 -0.0691
  617PSPI   C2B 9564   1.686   7.295   7.136  0.3253 -0.1843 -0.2075
  617PSPI   C3B 9565   1.385   7.591   7.323 -0.0183 -0.0320 -0.2949
  617PSPI   C4B 9566   1.344   7.826   7.756 -0.1602 -0.0353 -0.1097
  618PSPI    C1 9567   2.319  12.169   5.530 -0.1175  0.0094  0.1328
  618PSPI    C2 9568   2.572  11.859   5.540  0.0946  0.1740 -0.0234
  618PSPI    C3 9569   2.435  11.994   5.189 -0.0906  0.1838  0.0513
  618PSPI   PO4 9570   2.071  12.089   5.691  0.2897 -0.0252 -0.3592
  618PSPI   GL1 9571   2.107  12.286   6.090 -0.0415 -0.2764 -0.1070
  618PSPI   GL2 9572   1.957  12.583   6.391 -0.2107 -0.1397  0.0048
  618PSPI   C1A 9573   2.080  12.076   6.552  0.1362 -0.4018  0.1356
  618PSPI   C2A 9574   1.739  11.886   6.717  0.1629 -0.2123  0.4576
  618PSPI   C3A 9575   1.487  11.704   7.030  0.2323 -0.2489  0.2028
  618PSPI   C4A 9576   1.463  11.519   7.453  0.1027 -0.0107  0.1245
  618PSPI   C1B 9577   1.811  12.453   6.768 -0.1093  0.0235  0.2257
  618PSPI   C2B 9578   1.621  12.239   7.104 -0.2033  0.1921  0.0056
  618PSPI   C3B 9579   1.411  12.059   7.417 -0.0753 -0.2580 -0.2192
  618PSPI   C4B 9580   0.958  11.784   7.434  0.0337 -0.2699  0.1771
  619PSPI    C1 9581  16.666   0.758   5.541  0.0566 -0.1029 -0.2309
  619PSPI    C2 9582  16.677   0.394   5.706  0.1120  0.0045  0.0069
  619PSPI    C3 9583  16.941   0.494   5.423  0.2514 -0.0595  0.1136
  619PSPI   PO4 9584  16.539   0.901   5.827  0.3018 -0.0945  0.0527
  619PSPI   GL1 9585  16.465   0.685   6.153 -0.0293 -0.1633  0.0460
  619PSPI   GL2 9586  16.484   0.433   6.199  0.1482 -0.2585  0.1988
  619PSPI   C1A 9587  16.331   1.060   6.493  0.0801  0.3239  0.1579
  619PSPI   C2A 9588  16.308   0.984   6.929 -0.3874  0.0789  0.1837
  619PSPI   C3A 9589  16.284   1.026   7.430  0.1451  0.1763 -0.1973
  619PSPI   C4A 9590  16.187   0.785   7.865 -0.1199 -0.1052  0.1308
  619PSPI   C1B 9591  16.852   0.577   6.429  0.3220 -0.5296 -0.1008
  619PSPI   C2B 9592  16.745   0.785   6.755 -0.1652  0.2074  0.4754
  619PSPI   C3B 9593  16.602   0.676   7.126  0.0190 -0.2384  0.4605
  619PSPI   C4B 9594  16.585   0.605   7.625  0.1730 -0.4285 -0.1431
  620PSPI    C1 9595  13.760   2.485   5.624  0.1575 -0.2598  0.0543
  620PSPI    C2 9596  13.508   2.261   5.409 -0.1225 -0.0522  0.1611
  620PSPI    C3 9597  13.732   2.539   5.229 -0.1010 -0.1153  0.0903
  620PSPI   PO4 9598  13.796   2.346   5.789  0.0272  0.3694 -0.2534
  620PSPI   GL1 9599  14.175   2.220   6.163  0.1214  0.3805 -0.0154
  620PSPI   GL2 9600  14.462   2.065   6.236  0.0183 -0.1832  0.1523
  620PSPI   C1A 9601  14.004   2.206   6.571 -0.1072  0.1412 -0.0148
  620PSPI   C2A 9602  14.183   2.123   7.006  0.1782  0.1932  0.1087
  620PSPI   C3A 9603  14.283   2.031   7.342 -0.3333  0.1426 -0.1354
  620PSPI   C4A 9604  14.163   1.948   7.678 -0.3204 -0.0484 -0.3425
  620PSPI   C1B 9605  14.309   1.782   6.543  0.0087 -0.1775  0.3539
  620PSPI   C2B 9606  13.931   1.716   6.843 -0.3875  0.2696 -0.2838
  620PSPI   C3B 9607  13.877   1.783   7.297 -0.3296  0.2685  0.3515
  620PSPI   C4B 9608  13.636   1.804   7.635  0.1321 -0.0081 -0.2485
  621PSPI    C1 9609  12.425  17.739   6.007 -0.2316 -0.0236 -0.0664
  621PSPI    C2 9610  12.460  17.621   5.627 -0.0853 -0.2191  0.0058
  621PSPI    C3 9611  12.300  17.978   5.712  0.1295 -0.0572 -0.2527
  621PSPI   PO4 9612  12.752  17.607   6.193  0.2732 -0.1822 -0.0311
  621PSPI   GL1 9613  12.869  17.605   6.605  0.2319 -0.2297 -0.2603
  621PSPI   GL2 9614  13.051  17.817   6.684 -0.1543 -0.0774  0.1752
  621PSPI   C1A 9615  12.827  17.538   7.100  0.0197 -0.0413 -0.1803
  621PSPI   C2A 9616  12.694  17.576   7.479 -0.0912 -0.2314  0.2229
  621PSPI   C3A 9617  12.461  17.856   7.706 -0.0062  0.0804  0.1422
  621PSPI   C4A 9618  12.594  18.136   8.065  0.2532  0.0362 -0.0828
  621PSPI   C1B 9619  13.169  17.854   7.137 -0.0967  0.1694 -0.3031
  621PSPI   C2B 9620  13.377  18.112   7.402 -0.1719 -0.0026 -0.1455
  621PSPI   C3B 9621  13.515  18.573   7.425 -0.0721  0.1930  0.0282
  621PSPI   C4B 9622  14.017  18.693   7.659  0.1245 -0.0615 -0.0118
  622PSPI    C1 9623  18.453  16.118   5.833  0.0699 -0.3225 -0.0623
  622PSPI    C2 9624  18.131  16.131   6.070  0.1313 -0.0682  0.0097
  622PSPI    C3 9625  18.233  15.789   5.891 -0.1526 -0.1618  0.0214
  622PSPI   PO4 9626  18.642  16.321   6.036  0.1510 -0.0338 -0.0285
  622PSPI   GL1 9627  18.685  16.318   6.468 -0.1502  0.0956 -0.1488
  622PSPI   GL2 9628  18.855  16.094   6.658  0.1435 -0.0623 -0.1613
  622PSPI   C1A 9629  18.542  16.335   6.950  0.0945  0.1052 -0.1073
  622PSPI   C2A 9630  18.367  16.307   7.327 -0.2707  0.2643  0.0564
  622PSPI   C3A 9631  18.511  16.197   7.665 -0.0287  0.0105 -0.0644
  622PSPI   C4A 9632  18.553  15.941   8.044 -0.2226 -0.0259 -0.2689
  622PSPI   C1B 9633  18.856  15.920   6.997 -0.0517  0.4011  0.1449
  622PSPI   C2B 9634  18.649  15.768   7.317  0.2523 -0.1598  0.1961
  622PSPI   C3B 9635  18.499  15.500   7.737  0.0718 -0.2792 -0.1365
  622PSPI   C4B 9636  18.131  15.317   7.839 -0.0567  0.3311 -0.3853
  623PSPI    C1 9637  10.567   5.381   5.345 -0.1866  0.2500 -0.1302
  623PSPI    C2 9638  10.337   5.166   5.099  0.0911  0.0546 -0.2241
  623PSPI    C3 9639  10.669   5.340   4.960  0.0288  0.2928 -0.0791
  623PSPI   PO4 9640  10.613   5.261   5.520  0.3359  0.0856  0.0264
  623PSPI   GL1 9641  10.498   5.466   5.942 -0.0132 -0.0245  0.0162
  623PSPI   GL2 9642  10.805   5.380   6.074  0.3048 -0.2281  0.0798
  623PSPI   C1A 9643  10.269   5.790   6.172 -0.2903 -0.0233 -0.1357
  623PSPI   C2A 9644  10.182   6.199   6.408  0.0975  0.1728 -0.0371
  623PSPI   C3A 9645  10.026   6.564   6.108 -0.2123  0.1193 -0.0548
  623PSPI   C4A 9646   9.981   6.891   6.318 -0.1192  0.0397  0.0766
  623PSPI   C1B 9647  10.708   5.778   6.380  0.0343  0.1597  0.5099
  623PSPI   C2B 9648  10.824   5.730   6.785  0.1384 -0.1145  0.0224
  623PSPI   C3B 9649  11.272   5.559   6.850  0.0466  0.3577 -0.0328
  623PSPI   C4B 9650  11.469   5.207   6.796 -0.0570 -0.3629 -0.2910
  624PSPI    C1 9651  12.707  11.741   5.942 -0.0214  0.1128 -0.0226
  624PSPI    C2 9652  12.566  11.638   5.582  0.0890  0.2558 -0.1083
  624PSPI    C3 9653  12.774  11.977   5.625  0.1376  0.2036  0.0770
  624PSPI   PO4 9654  12.759  11.418   6.070  0.0305 -0.3662 -0.1459
  624PSPI   GL1 9655  13.076  11.209   6.391  0.3919  0.1023  0.0521
  624PSPI   GL2 9656  12.787  11.070   6.399 -0.0337  0.1858  0.0025
  624PSPI   C1A 9657  13.429  11.296   6.780  0.2175 -0.1930  0.0999
  624PSPI   C2A 9658  13.539  11.561   7.060 -0.1793 -0.0265 -0.0978
  624PSPI   C3A 9659  13.517  11.662   7.558 -0.0073  0.1898 -0.1731
  624PSPI   C4A 9660  13.649  11.460   8.013  0.0476 -0.4401  0.0848
  624PSPI   C1B 9661  12.753  10.946   6.855 -0.2297  0.0823  0.1723
  624PSPI   C2B 9662  12.414  11.237   7.093 -0.0386  0.2130  0.0538
  624PSPI   C3B 9663  12.416  11.333   7.456 -0.2805  0.1612  0.0853
  624PSPI   C4B 9664  12.347  11.094   7.849  0.2061 -0.0598  0.1329
  625PSPI    C1 9665  13.053   8.093   5.121 -0.0154 -0.1589  0.2159
  625PSPI    C2 9666  13.044   7.891   5.466  0.1238 -0.3156  0.1297
  625PSPI    C3 9667  13.268   7.758   5.163  0.2486 -0.0095  0.0840
  625PSPI   PO4 9668  13.189   8.340   5.356  0.1034 -0.1485  0.0934
  625PSPI   GL1 9669  13.326   8.202   5.817  0.2956  0.0173  0.4661
  625PSPI   GL2 9670  13.083   8.382   5.914 -0.2517  0.1004 -0.0741
  625PSPI   C1A 9671  13.365   7.829   6.151  0.0069 -0.1183  0.2655
  625PSPI   C2A 9672  13.460   7.830   6.586 -0.1454 -0.4862  0.0016
  625PSPI   C3A 9673  13.644   7.854   6.943  0.1333 -0.0680  0.2299
  625PSPI   C4A 9674  13.549   7.953   7.308  0.1480  0.0818  0.0998
  625PSPI   C1B 9675  13.119   8.280   6.371 -0.2361 -0.0610  0.0826
  625PSPI   C2B 9676  12.970   8.076   6.669 -0.2649 -0.0347 -0.2069
  625PSPI   C3B 9677  12.898   7.824   7.090 -0.2553  0.1330  0.2645
  625PSPI   C4B 9678  13.212   7.646   7.397 -0.1966 -0.3221  0.0262
  626PSPI    C1 9679  17.938   2.967   5.874  0.1962 -0.0444  0.0263
  626PSPI    C2 9680  17.926   3.366   5.882 -0.2438 -0.0484 -0.1439
  626PSPI    C3 9681  17.971   3.175   5.534  0.0065 -0.1496 -0.0582
  626PSPI   PO4 9682  18.149   2.896   6.011 -0.0296  0.1663 -0.0462
  626PSPI   GL1 9683  18.357   2.801   6.413 -0.2684  0.0105 -0.3436
  626PSPI   GL2 9684  18.439   3.114   6.466 -0.0490  0.1981 -0.0077
  626PSPI   C1A 9685  18.141   2.796   6.836  0.3629  0.3358  0.1415
  626PSPI   C2A 9686  18.355   2.885   7.197 -0.3325  0.0520  0.0662
  626PSPI   C3A 9687  18.279   3.151   7.554  0.2123 -0.2869 -0.0001
  626PSPI   C4A 9688  18.022   3.570   7.610 -0.1513  0.3365 -0.2555
  626PSPI   C1B 9689  18.487   3.192   6.782 -0.0658  0.1398 -0.0380
  626PSPI   C2B 9690  18.416   3.500   7.184 -0.0922 -0.2047 -0.0244
  626PSPI   C3B 9691  18.537   3.654   7.516  0.0338  0.3698  0.2249
  626PSPI   C4B 9692  18.931   3.817   7.784  0.0078  0.1239 -0.2418
  627PSPI    C1 9693   7.679   2.548   5.027 -0.1969 -0.1056  0.0942
  627PSPI    C2 9694   7.532   2.920   5.027 -0.1461 -0.0840 -0.1534
  627PSPI    C3 9695   7.865   2.837   4.822 -0.0874 -0.2397  0.0030
  627PSPI   PO4 9696   7.697   2.467   5.357  0.1238 -0.2010  0.1394
  627PSPI   GL1 9697   7.832   2.182   5.759  0.0560  0.0915 -0.4089
  627PSPI   GL2 9698   8.134   2.323   5.751  0.0114 -0.3747 -0.1719
  627PSPI   C1A 9699   7.767   2.186   6.228 -0.3827 -0.2154  0.0860
  627PSPI   C2A 9700   7.929   2.221   6.570 -0.0424  0.3807 -0.0620
  627PSPI   C3A 9701   7.688   2.316   6.880 -0.2102  0.2813 -0.0096
  627PSPI   C4A 9702   7.534   2.509   7.237 -0.1392 -0.2320 -0.3312
  627PSPI   C1B 9703   8.307   2.168   6.141 -0.0895 -0.3368  0.0371
  627PSPI   C2B 9704   8.567   2.322   6.413 -0.0858 -0.1941  0.0308
  627PSPI   C3B 9705   8.868   2.311   6.726 -0.2536 -0.1119 -0.1494
  627PSPI   C4B 9706   8.808   2.132   7.155  0.0186 -0.0790 -0.0069
  628PSPI    C1 9707  13.961   0.695   5.624 -0.0025 -0.1644 -0.4010
  628PSPI    C2 9708  13.719   0.937   5.831  0.1741 -0.1406 -0.2184
  628PSPI    C3 9709  13.574   0.719   5.528 -0.0595 -0.0750 -0.1556
  628PSPI   PO4 9710  14.152   0.603   5.877 -0.2172  0.4553  0.0257
  628PSPI   GL1 9711  14.078   0.486   6.270 -0.0491 -0.0632 -0.3878
  628PSPI   GL2 9712  14.451   0.398   6.367  0.2720  0.1610 -0.1096
  628PSPI   C1A 9713  14.042   0.447   6.718 -0.5289 -0.5217 -0.0207
  628PSPI   C2A 9714  14.201   0.383   7.162  0.1891 -0.0006  0.1104
  628PSPI   C3A 9715  14.455   0.053   7.341  0.1711 -0.0576 -0.0369
  628PSPI   C4A 9716  14.754  -0.303   7.429 -0.1489  0.1237 -0.0405
  628PSPI   C1B 9717  14.397   0.803   6.570  0.2462  0.0392 -0.3472
  628PSPI   C2B 9718  14.571   1.065   6.986  0.0064 -0.0426 -0.0472
  628PSPI   C3B 9719  14.671   1.208   7.392 -0.0542  0.1299 -0.0198
  628PSPI   C4B 9720  14.543   0.991   7.749 -0.0514 -0.1014 -0.1975
  629PSPI    C1 9721   8.804   5.811   5.160 -0.5410 -0.1678 -0.0792
  629PSPI    C2 9722   8.563   5.986   4.893 -0.1454  0.1397 -0.2447
  629PSPI    C3 9723   8.948   5.924   4.805 -0.0388  0.1211  0.2047
  629PSPI   PO4 9724   8.639   5.794   5.374 -0.1661  0.0468 -0.0152
  629PSPI   GL1 9725   8.579   6.020   5.736 -0.0801 -0.1286  0.0349
  629PSPI   GL2 9726   8.919   5.797   5.819  0.1206 -0.0381  0.1164
  629PSPI   C1A 9727   8.674   6.140   6.099 -0.0571  0.2714 -0.1040
  629PSPI   C2A 9728   8.513   6.284   6.429 -0.2869  0.0726  0.0647
  629PSPI   C3A 9729   8.394   6.562   6.724  0.3635 -0.0966 -0.0145
  629PSPI   C4A 9730   8.442   6.753   7.076  0.0041 -0.1668  0.0594
  629PSPI   C1B 9731   9.087   5.920   6.282 -0.2136 -0.1043  0.1139
  629PSPI   C2B 9732   8.929   5.864   6.749  0.3814 -0.3768  0.1650
  629PSPI   C3B 9733   8.598   6.153   7.009  0.3914  0.0042 -0.3398
  629PSPI   C4B 9734   8.603   6.431   7.411 -0.1735 -0.2469 -0.2394
  630PSPI    C1 9735  15.266   4.194   5.625 -0.0882 -0.1163  0.1974
  630PSPI    C2 9736  15.080   4.265   5.277  0.0153  0.0902  0.1828
  630PSPI    C3 9737  15.271   3.918   5.335 -0.0500  0.0324  0.0550
  630PSPI   PO4 9738  15.243   4.406   5.829  0.1805  0.3213  0.2195
  630PSPI   GL1 9739  15.321   4.568   6.285 -0.0777 -0.2081  0.2227
  630PSPI   GL2 9740  15.617   4.785   6.417 -0.0403 -0.1959  0.1916
  630PSPI   C1A 9741  15.330   4.507   6.741 -0.3705  0.3468  0.0235
  630PSPI   C2A 9742  15.186   4.376   7.148 -0.2617  0.2887 -0.0864
  630PSPI   C3A 9743  15.327   4.430   7.574  0.0527 -0.0109  0.2606
  630PSPI   C4A 9744  15.719   4.718   7.712 -0.2771  0.0712 -0.0932
  630PSPI   C1B 9745  15.701   4.329   6.534 -0.1902  0.0736 -0.3720
  630PSPI   C2B 9746  15.872   4.062   6.703 -0.2854 -0.1176 -0.0435
  630PSPI   C3B 9747  15.874   3.669   6.949  0.0090  0.0406  0.0444
  630PSPI   C4B 9748  15.655   3.542   7.268 -0.2707 -0.1742  0.0606
  631PSPI    C1 9749  15.633  15.730   5.624 -0.1838 -0.2543  0.0952
  631PSPI    C2 9750  15.699  15.808   5.237 -0.0637 -0.1384  0.1383
  631PSPI    C3 9751  15.471  15.496   5.343  0.0347 -0.2664 -0.0225
  631PSPI   PO4 9752  15.896  15.734   5.760 -0.0326  0.5233  0.0097
  631PSPI   GL1 9753  16.031  15.983   6.141  0.0415 -0.0627  0.2469
  631PSPI   GL2 9754  16.127  15.638   6.266  0.2822  0.0231  0.1954
  631PSPI   C1A 9755  15.825  16.122   6.478  0.3521 -0.1535 -0.0058
  631PSPI   C2A 9756  15.750  16.386   6.909  0.3241 -0.0238  0.0667
  631PSPI   C3A 9757  15.538  16.431   7.269  0.3390  0.0928 -0.1043
  631PSPI   C4A 9758  15.363  16.660   7.601  0.0773 -0.3417 -0.1373
  631PSPI   C1B 9759  15.848  15.486   6.573 -0.5975  0.0365  0.0550
  631PSPI   C2B 9760  15.763  15.483   7.067 -0.0630 -0.2045  0.0662
  631PSPI   C3B 9761  15.713  15.488   7.446 -0.1427 -0.0872  0.1268
  631PSPI   C4B 9762  15.761  15.673   7.836 -0.1806  0.2520  0.1905
  632PSPI    C1 9763  13.548   5.319   5.471 -0.3707 -0.0932 -0.2131
  632PSPI    C2 9764  13.749   4.986   5.379 -0.1997 -0.0073 -0.1541
  632PSPI    C3 9765  13.737   5.291   5.120  0.0421  0.1234 -0.0152
  632PSPI   PO4 9766  13.610   5.426   5.670  0.2939  0.1024  0.0083
  632PSPI   GL1 9767  13.528   5.637   6.092  0.3111 -0.3830 -0.0712
  632PSPI   GL2 9768  13.483   6.031   6.198  0.1861 -0.2206 -0.3037
  632PSPI   C1A 9769  13.908   5.868   6.154  0.0222 -0.0838 -0.2894
  632PSPI   C2A 9770  14.199   5.997   6.331 -0.0876  0.0417 -0.0711
  632PSPI   C3A 9771  14.610   5.963   6.177 -0.1259  0.1301  0.1041
  632PSPI   C4A 9772  14.999   6.250   6.223  0.1225 -0.0674 -0.0286
  632PSPI   C1B 9773  13.587   6.190   6.615  0.0056  0.1855  0.0272
  632PSPI   C2B 9774  13.811   6.503   6.964 -0.0156 -0.1971  0.0585
  632PSPI   C3B 9775  14.070   6.705   7.289  0.0176 -0.2145 -0.2820
  632PSPI   C4B 9776  14.228   6.796   7.707 -0.0672 -0.1690  0.3418
  633PSPI    C1 9777  18.248   1.680   5.921  0.0157  0.1351 -0.0168
  633PSPI    C2 9778  18.376   1.850   6.259  0.0739 -0.0356  0.0480
  633PSPI    C3 9779  18.512   1.980   5.906  0.0101  0.1457  0.0891
  633PSPI   PO4 9780  18.331   1.395   6.008  0.4504  0.2127  0.3511
  633PSPI   GL1 9781  18.140   1.384   6.418 -0.5044 -0.0665  0.1491
  633PSPI   GL2 9782  18.069   1.627   6.564 -0.0476  0.0937  0.1123
  633PSPI   C1A 9783  18.343   1.314   6.831 -0.2561 -0.0266  0.1816
  633PSPI   C2A 9784  18.438   1.307   7.230 -0.1147  0.0808 -0.2322
  633PSPI   C3A 9785  18.658   1.159   7.602 -0.0230 -0.2529  0.0916
  633PSPI   C4A 9786  18.511   0.764   7.874  0.1372 -0.1675 -0.1242
  633PSPI   C1B 9787  17.941   1.479   7.029  0.1928  0.0019  0.0632
  633PSPI   C2B 9788  17.886   1.300   7.466 -0.2271  0.0435  0.0444
  633PSPI   C3B 9789  18.158   1.186   7.842 -0.0699 -0.1243  0.2228
  633PSPI   C4B 9790  18.138   1.051   8.240 -0.2071  0.0439  0.3620
  634PSPI    C1 9791   9.865   6.983   5.382 -0.0703 -0.1609  0.0114
  634PSPI    C2 9792  10.157   7.008   5.110  0.1148  0.1959  0.2353
  634PSPI    C3 9793  10.243   6.901   5.486 -0.1036 -0.0649  0.2132
  634PSPI   PO4 9794   9.718   7.294   5.416  0.0784  0.3497  0.1990
  634PSPI   GL1 9795   9.764   7.628   5.638  0.1643 -0.2083 -0.1404
  634PSPI   GL2 9796   9.917   7.838   5.849 -0.1551 -0.1807  0.0031
  634PSPI   C1A 9797   9.561   7.398   6.003  0.2748 -0.2976 -0.0184
  634PSPI   C2A 9798   9.538   7.203   6.306  0.0184 -0.0861 -0.1038
  634PSPI   C3A 9799   9.154   7.147   6.646  0.2102  0.0904 -0.2950
  634PSPI   C4A 9800   9.013   6.860   6.856 -0.1745 -0.3140  0.1072
  634PSPI   C1B 9801   9.929   7.945   6.336  0.2762 -0.1328  0.1942
  634PSPI   C2B 9802  10.161   8.030   6.832  0.2393 -0.0052  0.0389
  634PSPI   C3B 9803  10.098   8.164   7.313  0.2705 -0.0853 -0.0286
  634PSPI   C4B 9804   9.916   8.404   7.647  0.0034  0.2635 -0.0953
  635POPI    C1 9805  14.462   7.813   5.385  0.2110 -0.0684  0.0885
  635POPI    C2 9806  14.769   7.692   5.159  0.1522 -0.2408  0.0994
  635POPI    C3 9807  14.420   7.786   4.989  0.1575 -0.2133  0.1035
  635POPI   PO4 9808  14.480   7.655   5.579 -0.0401  0.1439  0.1390
  635POPI   GL1 9809  14.679   7.383   6.045  0.1929  0.0833  0.0033
  635POPI   GL2 9810  14.329   7.415   6.173  0.0999 -0.0974 -0.2692
  635POPI   C1A 9811  14.780   7.630   6.408  0.1274  0.0673 -0.1581
  635POPI   D2A 9812  14.638   7.945   6.824 -0.2216  0.3512  0.1564
  635POPI   C3A 9813  14.613   7.631   7.215  0.1337  0.0342  0.0477
  635POPI   C4A 9814  14.719   7.663   7.695 -0.1094 -0.1423 -0.0348
  635POPI   C1B 9815  14.338   7.780   6.265 -0.0114 -0.0545 -0.0434
  635POPI   C2B 9816  14.185   7.909   6.639 -0.0235 -0.3864  0.1273
  635POPI   C3B 9817  14.128   8.143   6.998 -0.0329 -0.0565  0.0085
  635POPI   C4B 9818  14.048   8.348   7.455  0.1575 -0.1684  0.0289
  636POPI    C1 9819  10.478   3.186   4.983 -0.0765  0.2332 -0.0872
  636POPI    C2 9820  10.175   3.329   4.764 -0.0328 -0.0836 -0.3632
  636POPI    C3 9821  10.228   2.934   4.798  0.1728 -0.0338 -0.0673
  636POPI   PO4 9822  10.488   3.296   5.237  0.1848  0.3322  0.0273
  636POPI   GL1 9823  10.443   3.194   5.567 -0.2079 -0.0476 -0.1443
  636POPI   GL2 9824  10.546   3.523   5.785 -0.0861 -0.2250  0.1062
  636POPI   C1A 9825  10.358   3.063   6.084  0.2820 -0.1846  0.0633
  636POPI   D2A 9826  10.418   2.878   6.405 -0.0606  0.2078 -0.3356
  636POPI   C3A 9827   9.951   2.869   6.552  0.0388  0.2728 -0.0368
  636POPI   C4A 9828   9.658   2.654   6.790  0.0345  0.0894  0.0794
  636POPI   C1B 9829  10.272   3.596   6.196 -0.2741  0.0985  0.0478
  636POPI   C2B 9830  10.277   3.332   6.630  0.6077 -0.0947 -0.2951
  636POPI   C3B 9831  10.075   3.230   7.020 -0.0203 -0.0593 -0.0268
  636POPI   C4B 9832  10.209   3.096   7.478  0.0038  0.1925 -0.2242
  637POPI    C1 9833   8.474   5.417   4.957 -0.2870 -0.1239 -0.0594
  637POPI    C2 9834   8.632   5.103   4.765 -0.0639  0.0161 -0.1085
  637POPI    C3 9835   8.345   5.321   4.591  0.0201  0.0423 -0.2148
  637POPI   PO4 9836   8.380   5.326   5.230 -0.0292 -0.1355  0.0049
  637POPI   GL1 9837   8.591   5.237   5.708  0.0981 -0.0207 -0.0849
  637POPI   GL2 9838   8.862   4.905   5.777  0.2183  0.0532  0.1192
  637POPI   C1A 9839   8.461   5.120   6.165  0.0269 -0.3887  0.0291
  637POPI   D2A 9840   8.359   5.264   6.610 -0.0211  0.1364  0.0156
  637POPI   C3A 9841   8.301   5.740   6.533 -0.1107 -0.1083  0.0123
  637POPI   C4A 9842   8.174   6.030   6.191  0.0461  0.0695  0.4858
  637POPI   C1B 9843   8.481   4.666   6.032  0.1751 -0.1162  0.2276
  637POPI   C2B 9844   8.197   4.495   6.372 -0.0641  0.1996  0.2007
  637POPI   C3B 9845   7.826   4.434   6.567 -0.0318 -0.1180 -0.1521
  637POPI   C4B 9846   7.793   4.202   6.960  0.0303 -0.0865  0.2664
  638POPI    C1 9847   9.045   1.707   5.473  0.0668  0.2274 -0.0563
  638POPI    C2 9848   9.271   1.768   5.798 -0.0385  0.2350  0.0159
  638POPI    C3 9849   9.354   1.960   5.458  0.0657  0.2352  0.0413
  638POPI   PO4 9850   8.823   1.585   5.578  0.1749 -0.0071 -0.0326
  638POPI   GL1 9851   8.652   1.416   5.960 -0.2123 -0.0770 -0.1455
  638POPI   GL2 9852   8.669   0.973   6.081  0.2801 -0.0281  0.1532
  638POPI   C1A 9853   8.984   1.431   6.215 -0.2112  0.0629 -0.4012
  638POPI   D2A 9854   9.001   1.564   6.685 -0.0525  0.3700  0.0707
  638POPI   C3A 9855   9.295   1.853   6.748 -0.0363  0.4090 -0.1154
  638POPI   C4A 9856   9.624   1.807   6.920  0.1740  0.2461 -0.2033
  638POPI   C1B 9857   8.474   0.795   6.480  0.1205 -0.0797  0.3056
  638POPI   C2B 9858   8.708   0.644   6.817  0.0796 -0.1587  0.2884
  638POPI   C3B 9859   8.511   0.694   7.263 -0.1202 -0.1868  0.3200
  638POPI   C4B 9860   8.290   0.831   7.624 -0.3400 -0.1762 -0.2149
  639POPI    C1 9861  11.495   6.994   5.300  0.1579 -0.1357  0.0566
  639POPI    C2 9862  11.221   7.285   5.323  0.0366 -0.2151 -0.3132
  639POPI    C3 9863  11.114   6.903   5.381  0.1583 -0.2082 -0.0211
  639POPI   PO4 9864  11.731   7.267   5.335  0.0342  0.1351 -0.0642
  639POPI   GL1 9865  11.950   7.484   5.728 -0.1161 -0.0657  0.2486
  639POPI   GL2 9866  12.287   7.323   5.720 -0.0162  0.0479 -0.1799
  639POPI   C1A 9867  11.744   7.359   6.119  0.0283  0.1694  0.1566
  639POPI   D2A 9868  11.661   7.377   6.598  0.0281 -0.3042  0.0346
  639POPI   C3A 9869  11.315   7.613   6.827 -0.0588  0.0877  0.1316
  639POPI   C4A 9870  10.927   7.750   6.844 -0.0363 -0.0857  0.0757
  639POPI   C1B 9871  12.238   7.334   6.223  0.0329 -0.0934 -0.0073
  639POPI   C2B 9872  12.186   7.293   6.665 -0.0771  0.1466 -0.4222
  639POPI   C3B 9873  11.991   7.277   7.101 -0.0814  0.2571  0.0240
  639POPI   C4B 9874  11.470   7.308   7.220 -0.1863  0.0080 -0.1957
  640POPI    C1 9875  11.849   3.114   5.489 -0.2589 -0.0540  0.1100
  640POPI    C2 9876  11.839   3.327   5.150 -0.1043  0.0111  0.1458
  640POPI    C3 9877  11.866   2.928   5.135  0.0618  0.0239  0.0819
  640POPI   PO4 9878  11.687   3.258   5.638 -0.0846  0.1011 -0.0135
  640POPI   GL1 9879  11.357   3.520   5.797  0.1263  0.1083 -0.0122
  640POPI   GL2 9880  11.556   3.612   6.005 -0.1072 -0.2706 -0.0084
  640POPI   C1A 9881  11.199   3.472   6.291  0.1031  0.0544  0.1647
  640POPI   D2A 9882  11.254   3.437   6.714 -0.0982  0.0049 -0.0895
  640POPI   C3A 9883  11.007   3.552   7.034 -0.0051  0.1378  0.1973
  640POPI   C4A 9884  10.642   3.731   7.231 -0.0995 -0.0696  0.0175
  640POPI   C1B 9885  11.638   3.590   6.399  0.2335  0.0596 -0.0397
  640POPI   C2B 9886  11.366   3.883   6.563 -0.2307 -0.2931 -0.0327
  640POPI   C3B 9887  10.947   3.916   6.629  0.0146  0.1346  0.3287
  640POPI   C4B 9888  10.570   3.727   6.619 -0.0122 -0.0354 -0.2283
  641POPI    C1 9889   3.927  18.198   6.183  0.0664 -0.1315 -0.0162
  641POPI    C2 9890   3.820  17.835   6.315  0.1152 -0.1224  0.0497
  641POPI    C3 9891   3.970  17.878   5.947  0.1776 -0.1799  0.0684
  641POPI   PO4 9892   3.791  18.309   6.437  0.0626 -0.1311  0.1925
  641POPI   GL1 9893   3.984  18.516   6.800 -0.1703 -0.3418  0.1982
  641POPI   GL2 9894   4.255  18.776   6.763  0.1428  0.3239  0.2883
  641POPI   C1A 9895   3.999  18.494   7.204  0.0625 -0.0192  0.1832
  641POPI   D2A 9896   3.940  18.833   7.534 -0.0845  0.0457 -0.1851
  641POPI   C3A 9897   3.833  19.271   7.559 -0.1215  0.1908 -0.3214
  641POPI   C4A 9898   3.411  19.347   7.169  0.0713  0.1027 -0.3794
  641POPI   C1B 9899   4.224  19.217   6.644  0.0582 -0.0229 -0.0667
  641POPI   C2B 9900   4.400  19.655   6.779  0.4018  0.0078  0.2774
  641POPI   C3B 9901   4.260  20.078   7.036  0.0269  0.0861  0.0013
  641POPI   C4B 9902   4.253  20.210   7.457 -0.1115  0.1418  0.0169
  642POPI    C1 9903   8.600   8.280   5.366  0.3012  0.2632 -0.2226
  642POPI    C2 9904   8.580   8.244   4.969 -0.2070  0.3289 -0.2101
  642POPI    C3 9905   8.573   7.917   5.199 -0.3161  0.3074 -0.2435
  642POPI   PO4 9906   8.372   8.476   5.452  0.1723 -0.4536  0.2993
  642POPI   GL1 9907   8.202   8.722   5.844 -0.3123  0.1300 -0.1128
  642POPI   GL2 9908   8.354   8.966   5.950  0.0910 -0.1488 -0.1220
  642POPI   C1A 9909   8.253   8.498   6.250 -0.0065 -0.0374 -0.0478
  642POPI   D2A 9910   8.550   8.412   6.470  0.1574  0.2332 -0.0873
  642POPI   C3A 9911   8.605   8.281   6.883  0.1296 -0.3132 -0.0874
  642POPI   C4A 9912   8.520   8.199   7.353 -0.0048 -0.0964 -0.0066
  642POPI   C1B 9913   8.536   8.941   6.304 -0.3188 -0.2118 -0.1315
  642POPI   C2B 9914   8.564   8.911   6.729  0.0544  0.2221  0.2575
  642POPI   C3B 9915   8.292   9.067   7.058 -0.0156 -0.1791  0.1528
  642POPI   C4B 9916   8.308   9.030   7.524 -0.1776  0.0042  0.2419
  643POPI    C1 9917   4.664   0.167   5.721  0.1185 -0.1015 -0.0307
  643POPI    C2 9918   4.952  -0.109   5.738  0.0401 -0.1999 -0.2645
  643POPI    C3 9919   5.025   0.246   5.570  0.0211 -0.2313 -0.3394
  643POPI   PO4 9920   4.614   0.180   6.004 -0.0145  0.2646 -0.0677
  643POPI   GL1 9921   4.625   0.331   6.393 -0.3373 -0.1366  0.1106
  643POPI   GL2 9922   4.585  -0.006   6.591 -0.1908 -0.1544  0.0201
  643POPI   C1A 9923   4.671   0.459   6.887 -0.1798 -0.1135 -0.1346
  643POPI   D2A 9924   4.824   0.584   7.281 -0.0130 -0.2031 -0.2354
  643POPI   C3A 9925   4.763   0.275   7.665 -0.0642 -0.1683 -0.1810
  643POPI   C4A 9926   4.512   0.278   8.010  0.2432 -0.1416  0.1899
  643POPI   C1B 9927   4.471  -0.031   6.923 -0.1344  0.0660 -0.1232
  643POPI   C2B 9928   4.465   0.171   7.299 -0.1214  0.3929  0.0975
  643POPI   C3B 9929   4.243  -0.021   7.652  0.1420  0.4272 -0.1649
  643POPI   C4B 9930   3.889  -0.134   7.731 -0.1723  0.1399 -0.0559
  644POPI    C1 9931   1.940  16.174   5.982  0.0230  0.0221  0.0936
  644POPI    C2 9932   2.099  16.479   5.778  0.1251 -0.0980 -0.0082
  644POPI    C3 9933   1.910  16.186   5.583 -0.1585  0.0058  0.1060
  644POPI   PO4 9934   1.905  16.280   6.221  0.1753  0.0741 -0.3239
  644POPI   GL1 9935   1.927  16.167   6.618  0.0716  0.0267 -0.0154
  644POPI   GL2 9936   1.865  16.494   6.807  0.2513  0.3278  0.3998
  644POPI   C1A 9937   1.839  15.974   7.010  0.1055 -0.1954 -0.0837
  644POPI   D2A 9938   1.874  15.996   7.407 -0.1124  0.0214 -0.0473
  644POPI   C3A 9939   1.926  15.806   7.829 -0.0767 -0.0851  0.1535
  644POPI   C4A 9940   1.905  15.555   8.112 -0.1356 -0.0626 -0.1770
  644POPI   C1B 9941   2.124  16.380   7.195 -0.1606  0.4076 -0.0419
  644POPI   C2B 9942   1.879  16.500   7.587 -0.0339 -0.1816  0.0780
  644POPI   C3B 9943   1.486  16.564   7.938 -0.0522  0.1329  0.0850
  644POPI   C4B 9944   1.260  16.464   8.255 -0.0381  0.3638  0.2169
  645POPI    C1 9945  16.269  12.709   5.510 -0.0796  0.0593  0.2795
  645POPI    C2 9946  15.957  12.957   5.538 -0.0468  0.1269  0.0646
  645POPI    C3 9947  15.923  12.616   5.332  0.0479  0.1784 -0.0372
  645POPI   PO4 9948  16.321  12.579   5.832  0.3049  0.3119 -0.1099
  645POPI   GL1 9949  16.216  12.623   6.360 -0.0113  0.0060 -0.0572
  645POPI   GL2 9950  16.045  12.299   6.227 -0.0993 -0.1079  0.0463
  645POPI   C1A 9951  16.378  12.617   6.796  0.0444 -0.0698  0.1213
  645POPI   D2A 9952  16.626  12.781   7.176 -0.1987 -0.3321 -0.0797
  645POPI   C3A 9953  16.861  12.687   7.587 -0.1253 -0.0576  0.1225
  645POPI   C4A 9954  17.345  12.649   7.890 -0.2411  0.1637  0.1475
  645POPI   C1B 9955  16.134  12.132   6.624 -0.2683 -0.2235  0.0359
  645POPI   C2B 9956  16.110  12.089   7.066 -0.2780  0.2763  0.2583
  645POPI   C3B 9957  16.102  12.116   7.515 -0.0301 -0.0387 -0.0778
  645POPI   C4B 9958  15.914  11.771   7.768 -0.0764 -0.1101  0.0605
  646POPI    C1 9959   0.771  10.085   5.823 -0.0509  0.0680  0.1785
  646POPI    C2 9960   0.806   9.837   5.510 -0.1504  0.1790  0.0788
  646POPI    C3 9961   0.924  10.218   5.478 -0.1665  0.1924  0.1748
  646POPI   PO4 9962   0.545   9.979   5.905  0.1950  0.0355  0.1234
  646POPI   GL1 9963   0.366  10.061   6.280 -0.0377 -0.4483 -0.2111
  646POPI   GL2 9964   0.027  10.005   6.258 -0.1575  0.5103  0.3713
  646POPI   C1A 9965   0.477   9.727   6.491  0.2866  0.0568  0.2277
  646POPI   D2A 9966   0.362   9.242   6.699 -0.0456  0.4454 -0.2405
  646POPI   C3A 9967   0.269   9.184   7.206 -0.4686 -0.2416 -0.1698
  646POPI   C4A 9968  -0.088   9.064   7.418 -0.0888  0.2405  0.1373
  646POPI   C1B 9969  -0.387  10.029   6.462  0.1045  0.1422  0.2776
  646POPI   C2B 9970  -0.751  10.056   6.678 -0.0616  0.1265 -0.1049
  646POPI   C3B 9971  -1.214  10.073   6.846 -0.1809 -0.2140 -0.2618
  646POPI   C4B 9972  -1.298  10.238   7.300 -0.1386 -0.0143  0.0222
  647POPI    C1 9973   4.094   4.581   5.371 -0.0391 -0.0275 -0.0140
  647POPI    C2 9974   3.914   4.851   5.137 -0.0501  0.0019  0.0283
  647POPI    C3 9975   3.854   4.461   5.075  0.1222  0.0037 -0.1590
  647POPI   PO4 9976   4.128   4.694   5.633  0.0986  0.0892  0.5187
  647POPI   GL1 9977   4.247   4.455   6.001  0.2356 -0.1408  0.0309
  647POPI   GL2 9978   4.497   4.300   6.002  0.3314 -0.0465 -0.0398
  647POPI   C1A 9979   4.030   4.236   6.272  0.2093 -0.1165 -0.3296
  647POPI   D2A 9980   4.012   4.036   6.707  0.3039 -0.2242 -0.2679
  647POPI   C3A 9981   4.146   4.253   7.053  0.1223 -0.0298 -0.2575
  647POPI   C4A 9982   4.170   4.373   7.472  0.0546 -0.0873 -0.0047
  647POPI   C1B 9983   4.502   4.305   6.475 -0.1214 -0.7039  0.0735
  647POPI   C2B 9984   4.681   4.423   6.880 -0.2099  0.2300  0.0301
  647POPI   C3B 9985   4.893   4.532   7.206 -0.0964 -0.0859 -0.0608
  647POPI   C4B 9986   4.779   4.593   7.568 -0.1461  0.0915  0.1901
  648POPI    C1 9987   7.076  10.858   5.939  0.2336 -0.3239  0.0911
  648POPI    C2 9988   7.410  10.639   5.964  0.3421 -0.1725 -0.0168
  648POPI    C3 9989   7.372  10.915   5.677  0.2606  0.0406  0.1953
  648POPI   PO4 9990   6.854  10.627   5.959  0.3525 -0.2478  0.3496
  648POPI   GL1 9991   6.633  10.519   6.273 -0.1140  0.1380 -0.3402
  648POPI   GL2 9992   6.426  10.360   6.339 -0.0540 -0.0795  0.2550
  648POPI   C1A 9993   6.866  10.632   6.593  0.0115 -0.0913 -0.0802
  648POPI   D2A 9994   7.095  10.759   6.865 -0.1235 -0.3329 -0.0865
  648POPI   C3A 9995   7.476  10.595   7.097  0.2999 -0.2282 -0.0190
  648POPI   C4A 9996   7.600  10.318   7.070  0.3542 -0.0696  0.2918
  648POPI   C1B 9997   6.572  10.195   6.645  0.1897  0.0323 -0.0033
  648POPI   C2B 9998   6.584  10.205   7.062  0.0065 -0.0306 -0.2807
  648POPI   C3B 9999   6.782  10.392   7.469 -0.0462  0.2207 -0.0832
  648POPI   C4B10000   6.768  10.670   7.809 -0.1423 -0.2343 -0.2864
  649POPI    C110001   0.169  12.412   5.795  0.3337 -0.0038  0.2939
  649POPI    C210002   0.158  12.250   5.430 -0.1681  0.2298  0.1962
  649POPI    C310003   0.454  12.500   5.529  0.1368 -0.0681  0.0577
  649POPI   PO410004  -0.075  12.560   5.863 -0.2542  0.4019 -0.1060
  649POPI   GL110005  -0.306  12.443   6.291 -0.0552 -0.0894  0.1149
  649POPI   GL210006  -0.361  12.085   6.383  0.0672 -0.1925 -0.0056
  649POPI   C1A10007  -0.267  12.498   6.765 -0.0548 -0.2545 -0.1791
  649POPI   D2A10008  -0.191  12.771   7.052 -0.0594  0.2903  0.0252
  649POPI   C3A10009  -0.269  12.693   7.401 -0.0986  0.0560  0.0751
  649POPI   C4A10010  -0.569  12.456   7.642 -0.0780  0.0452 -0.3569
  649POPI   C1B10011  -0.380  11.758   6.664  0.1000 -0.1143 -0.1026
  649POPI   C2B10012  -0.467  11.633   7.121 -0.1308 -0.2796 -0.0446
  649POPI   C3B10013  -0.695  11.401   7.284 -0.2585  0.2530  0.3952
  649POPI   C4B10014  -0.518  11.044   7.554  0.0818  0.3095 -0.2602
  650POPI    C110015   3.950   2.584   5.481 -0.1269 -0.1245 -0.1121
  650POPI    C210016   4.103   2.219   5.423  0.0992 -0.0233 -0.1643
  650POPI    C310017   4.027   2.456   5.110  0.1409  0.0497 -0.1193
  650POPI   PO410018   4.077   2.666   5.766 -0.0556 -0.2048 -0.2061
  650POPI   GL110019   3.965   2.810   6.151  0.1322  0.4591 -0.0016
  650POPI   GL210020   3.770   2.661   6.155 -0.0531  0.3511 -0.1248
  650POPI   C1A10021   4.351   2.805   6.441 -0.1277  0.0854  0.0533
  650POPI   D2A10022   4.690   2.656   6.610  0.0646 -0.2195 -0.3596
  650POPI   C3A10023   4.773   2.295   6.720  0.3725  0.0784 -0.2037
  650POPI   C4A10024   5.166   2.071   6.666  0.3417  0.1450 -0.2831
  650POPI   C1B10025   3.563   2.446   6.458  0.0689  0.2583  0.1201
  650POPI   C2B10026   3.296   2.290   6.674 -0.0692 -0.2310 -0.0806
  650POPI   C3B10027   3.162   2.231   7.049  0.0843  0.2974 -0.0025
  650POPI   C4B10028   3.062   2.665   7.320 -0.0173  0.0456 -0.2230
  651POPI    C110029   6.168  11.593   5.556  0.2429  0.0348  0.0664
  651POPI    C210030   6.155  11.910   5.800 -0.3295  0.0572  0.0208
  651POPI    C310031   6.231  11.960   5.410 -0.1874  0.1094  0.0546
  651POPI   PO410032   6.033  11.447   5.684 -0.0052  0.0640 -0.3315
  651POPI   GL110033   6.258  11.293   5.935 -0.1883  0.0554  0.2323
  651POPI   GL210034   6.217  11.501   6.200  0.2958 -0.2690 -0.2209
  651POPI   C1A10035   6.190  11.046   6.338  0.1826 -0.1374 -0.3720
  651POPI   D2A10036   6.209  10.711   6.602 -0.0982  0.0132 -0.0997
  651POPI   C3A10037   6.061  10.637   6.934 -0.0985 -0.1801 -0.1234
  651POPI   C4A10038   5.927  10.386   7.199 -0.1191 -0.1697  0.0139
  651POPI   C1B10039   6.205  11.583   6.597  0.0896  0.3911 -0.1655
  651POPI   C2B10040   6.462  11.504   7.013  0.1502  0.2224 -0.1157
  651POPI   C3B10041   6.865  11.707   7.314  0.1084  0.0814  0.3110
  651POPI   C4B10042   7.153  11.593   7.645 -0.1423 -0.1689 -0.2939
  652POPI    C110043   0.531   2.625   5.752 -0.1786 -0.1323  0.0391
  652POPI    C210044   0.628   2.997   5.640 -0.0385 -0.0634  0.3788
  652POPI    C310045   0.270   2.847   5.544  0.1306 -0.0691 -0.2919
  652POPI   PO410046   0.615   2.653   6.006 -0.0301  0.5000  0.0629
  652POPI   GL110047   0.461   2.709   6.439 -0.3916 -0.2348 -0.1290
  652POPI   GL210048   0.487   3.116   6.617  0.1060 -0.1407 -0.0747
  652POPI   C1A10049   0.188   2.669   6.839 -0.0713  0.1307  0.1608
  652POPI   D2A10050   0.190   2.454   7.285 -0.2160  0.1672 -0.0648
  652POPI   C3A10051  -0.134   2.534   7.592 -0.3101  0.0783  0.1423
  652POPI   C4A10052  -0.112   2.789   7.932 -0.3605  0.3934  0.0594
  652POPI   C1B10053   0.714   3.428   6.950 -0.0833  0.0186  0.0476
  652POPI   C2B10054   0.578   3.398   7.412  0.0652  0.0656 -0.1934
  652POPI   C3B10055   0.272   3.089   7.584 -0.3212  0.2515  0.0534
  652POPI   C4B10056   0.362   2.914   7.905 -0.0391 -0.1024  0.3378
  653POPI    C110057  11.415   1.628   5.503 -0.0049  0.0956  0.0236
  653POPI    C210058  11.792   1.496   5.532 -0.0865 -0.1466  0.0084
  653POPI    C310059  11.554   1.360   5.240 -0.1531  0.0904 -0.0507
  653POPI   PO410060  11.337   1.604   5.843 -0.2104  0.0278  0.2164
  653POPI   GL110061  11.185   1.665   6.289  0.2095  0.0107 -0.1727
  653POPI   GL210062  11.403   1.300   6.233  0.2377  0.0675 -0.0750
  653POPI   C1A10063  11.354   1.620   6.719 -0.0444 -0.0405  0.1758
  653POPI   D2A10064  11.103   1.686   7.058 -0.1177 -0.1175  0.0370
  653POPI   C3A10065  11.209   1.668   7.478  0.1620 -0.0413  0.2696
  653POPI   C4A10066  11.157   1.767   7.859 -0.1718  0.0149  0.0809
  653POPI   C1B10067  11.078   1.253   6.602 -0.0069 -0.0355 -0.1334
  653POPI   C2B10068  10.771   1.185   6.911  0.0577 -0.3671 -0.0347
  653POPI   C3B10069  10.945   1.223   7.352  0.1017  0.1582 -0.1799
  653POPI   C4B10070  10.784   1.302   7.721 -0.3028  0.0042 -0.2053
  654POPI    C110071   0.487   1.992   5.622  0.0321 -0.0128 -0.0527
  654POPI    C210072   0.233   2.295   5.559  0.0518 -0.0282 -0.2121
  654POPI    C310073   0.553   2.250   5.323  0.1183 -0.0995 -0.1092
  654POPI   PO410074   0.587   1.934   5.931 -0.0173 -0.0830 -0.1913
  654POPI   GL110075   0.757   2.246   6.297 -0.0747  0.3502 -0.2818
  654POPI   GL210076   0.382   2.243   6.214  0.2494 -0.2850 -0.1150
  654POPI   C1A10077   1.114   2.340   6.658  0.0160  0.1431  0.0834
  654POPI   D2A10078   1.023   2.351   7.070 -0.0040  0.0984  0.0172
  654POPI   C3A10079   0.732   2.555   6.953 -0.0713  0.2700 -0.0119
  654POPI   C4A10080   0.524   2.961   7.069  0.3613 -0.0477 -0.2333
  654POPI   C1B10081   0.052   2.278   6.411 -0.1628 -0.2355 -0.2529
  654POPI   C2B10082  -0.198   2.311   6.854 -0.0904 -0.1533  0.1760
  654POPI   C3B10083  -0.346   2.252   7.207  0.2122  0.0122  0.2597
  654POPI   C4B10084  -0.544   2.238   7.604  0.0092 -0.3575  0.2234
  655POPI    C110085   4.703  17.857   5.925 -0.1133 -0.2778  0.0687
  655POPI    C210086   4.695  17.550   5.669 -0.4036 -0.2232  0.0078
  655POPI    C310087   4.369  17.776   5.719 -0.2001  0.0624  0.0694
  655POPI   PO410088   4.890  17.746   6.126  0.0885  0.6222  0.0472
  655POPI   GL110089   5.100  17.525   6.519 -0.1135  0.0644 -0.4397
  655POPI   GL210090   4.948  17.226   6.697 -0.1975 -0.0953  0.2294
  655POPI   C1A10091   5.421  17.382   6.781  0.2361  0.1397 -0.1399
  655POPI   D2A10092   5.573  16.967   7.127  0.0922 -0.3122  0.1160
  655POPI   C3A10093   5.727  16.759   7.464  0.2255  0.0955 -0.1233
  655POPI   C4A10094   5.962  16.829   7.815  0.1840  0.1172  0.2089
  655POPI   C1B10095   4.931  17.447   7.005 -0.4580  0.0073 -0.3533
  655POPI   C2B10096   5.043  17.662   7.388  0.0323 -0.0834  0.3171
  655POPI   C3B10097   4.981  17.774   7.691  0.1873 -0.0534  0.0244
  655POPI   C4B10098   4.936  17.596   8.108  0.2326  0.0051  0.0282
  656POPI    C110099   4.215   0.972   5.964 -0.1996  0.0549 -0.0044
  656POPI    C210100   4.058   0.657   6.153 -0.1217  0.0318  0.0224
  656POPI    C310101   3.962   0.729   5.772  0.0237 -0.1456 -0.0485
  656POPI   PO410102   4.503   0.897   6.101  0.0696  0.2428 -0.0835
  656POPI   GL110103   4.711   0.884   6.500 -0.0264 -0.4685  0.2050
  656POPI   GL210104   4.941   0.747   6.608  0.0216  0.0362  0.0623
  656POPI   C1A10105   4.857   1.299   6.564  0.1541 -0.1308 -0.0685
  656POPI   D2A10106   5.112   1.589   6.537 -0.1321  0.0489 -0.0117
  656POPI   C3A10107   5.511   1.527   6.623  0.1825 -0.1033 -0.0024
  656POPI   C4A10108   5.931   1.482   6.752 -0.1413 -0.2405 -0.1112
  656POPI   C1B10109   4.968   0.942   6.967  0.2736 -0.1988  0.0235
  656POPI   C2B10110   4.980   1.295   7.022  0.1020  0.0555  0.0892
  656POPI   C3B10111   5.272   1.634   7.101  0.3308  0.2868  0.1206
  656POPI   C4B10112   5.303   2.161   7.256 -0.0749 -0.1451  0.1949
  657POPI    C110113   3.242   8.507   5.419 -0.0194 -0.1875 -0.1756
  657POPI    C210114   3.369   8.865   5.295 -0.1850 -0.0396  0.0714
  657POPI    C310115   3.630   8.566   5.344  0.0006  0.1323  0.1484
  657POPI   PO410116   3.101   8.519   5.681  0.0783  0.0440  0.1770
  657POPI   GL110117   3.091   8.606   6.136 -0.2291  0.1424  0.1308
  657POPI   GL210118   2.946   8.416   6.289  0.3864 -0.0533  0.0284
  657POPI   C1A10119   2.978   8.963   6.348 -0.1106  0.2467  0.1695
  657POPI   D2A10120   2.567   9.135   6.424 -0.3476 -0.0596  0.2262
  657POPI   C3A10121   2.554   9.569   6.313  0.2366 -0.0403  0.1488
  657POPI   C4A10122   2.713   9.924   6.527 -0.0420  0.0354 -0.1049
  657POPI   C1B10123   2.953   8.035   6.502  0.2270 -0.4389  0.2329
  657POPI   C2B10124   2.898   7.649   6.708 -0.1336 -0.1255  0.2648
  657POPI   C3B10125   2.620   7.572   7.099 -0.2896 -0.0548  0.0743
  657POPI   C4B10126   2.391   7.578   7.535  0.1219 -0.0793  0.2643
  658POPI    C110127   7.357   3.827   4.890 -0.0631  0.2290 -0.1298
  658POPI    C210128   7.599   3.663   4.617 -0.2949 -0.1537 -0.1128
  658POPI    C310129   7.458   4.034   4.563  0.1635  0.0146 -0.1978
  658POPI   PO410130   7.455   3.823   5.169 -0.3397 -0.2496 -0.0300
  658POPI   GL110131   7.421   3.665   5.479  0.3924 -0.2111  0.0451
  658POPI   GL210132   7.489   3.337   5.577 -0.1326 -0.2471 -0.1489
  658POPI   C1A10133   7.379   3.974   5.915  0.0682  0.1149 -0.0914
  658POPI   D2A10134   7.181   4.375   6.170 -0.0963 -0.0810  0.1076
  658POPI   C3A10135   7.455   4.618   6.339  0.4412  0.2383  0.0036
  658POPI   C4A10136   7.676   4.964   6.547 -0.0904 -0.1500  0.0973
  658POPI   C1B10137   7.231   3.504   6.016 -0.0826  0.0589  0.2925
  658POPI   C2B10138   7.182   3.748   6.393  0.1222 -0.0419  0.0978
  658POPI   C3B10139   6.798   3.944   6.438  0.4070  0.2448 -0.3176
  658POPI   C4B10140   6.439   3.837   6.695  0.0255 -0.0296 -0.2591
  659POPI    C110141   7.850  13.083   6.148  0.1234 -0.0330 -0.0421
  659POPI    C210142   7.963  13.454   6.047  0.0479 -0.0574 -0.2202
  659POPI    C310143   7.909  13.177   5.764  0.3303 -0.2705 -0.0711
  659POPI   PO410144   7.750  13.145   6.371 -0.1021 -0.0492 -0.1967
  659POPI   GL110145   7.751  13.302   6.758 -0.3221 -0.0477 -0.0713
  659POPI   GL210146   7.479  13.403   6.978  0.0436 -0.0906  0.0560
  659POPI   C1A10147   7.992  13.280   7.179  0.1203 -0.1364 -0.0549
  659POPI   D2A10148   8.166  13.018   7.574  0.1298 -0.2845  0.3281
  659POPI   C3A10149   8.246  12.746   7.944 -0.1556 -0.0063 -0.1086
  659POPI   C4A10150   7.906  12.587   8.258  0.0141  0.0754  0.1323
  659POPI   C1B10151   7.642  13.657   7.293  0.0146  0.0915  0.0316
  659POPI   C2B10152   7.815  13.445   7.629  0.0825  0.1283  0.1374
  659POPI   C3B10153   7.490  13.314   7.929 -0.2085  0.2607  0.0249
  659POPI   C4B10154   7.118  13.249   8.342  0.0592  0.1370  0.0043
  660POPI    C110155  10.685   8.138   5.727  0.1165  0.1933 -0.2376
  660POPI    C210156  10.932   8.064   5.421  0.1459 -0.1240 -0.1409
  660POPI    C310157  11.076   8.089   5.793  0.0824  0.0623 -0.1277
  660POPI   PO410158  10.512   7.932   5.684 -0.3372 -0.1462 -0.0378
  660POPI   GL110159  10.360   7.844   6.033 -0.1849  0.3445 -0.0207
  660POPI   GL210160  10.452   7.529   5.969 -0.0118 -0.1092  0.0515
  660POPI   C1A10161  10.393   7.657   6.504 -0.0625  0.0108  0.1394
  660POPI   D2A10162  10.466   7.626   6.941 -0.1643 -0.2025 -0.0294
  660POPI   C3A10163  10.471   7.144   7.125  0.0872  0.1336  0.0602
  660POPI   C4A10164  10.435   6.870   7.424  0.0186 -0.0454 -0.0376
  660POPI   C1B10165  10.033   7.464   6.215 -0.0701  0.1758  0.2545
  660POPI   C2B10166   9.967   7.364   6.584 -0.0413  0.0630 -0.2171
  660POPI   C3B10167   9.832   6.926   6.756  0.4309 -0.0386 -0.0630
  660POPI   C4B10168   9.956   6.518   6.674 -0.2726  0.2903  0.1970
  661POPI    C110169   6.486   3.743   5.292  0.2246 -0.0559 -0.2531
  661POPI    C210170   6.472   3.477   5.591 -0.5027  0.1839 -0.0518
  661POPI    C310171   6.608   3.367   5.232 -0.0867 -0.2440  0.2244
  661POPI   PO410172   6.549   3.995   5.415  0.0512  0.0477 -0.0641
  661POPI   GL110173   6.465   4.289   5.746 -0.1066 -0.0207 -0.1419
  661POPI   GL210174   6.619   3.945   5.917  0.1900 -0.2422 -0.0228
  661POPI   C1A10175   6.293   4.602   5.949  0.0489  0.0176 -0.1363
  661POPI   D2A10176   6.072   4.744   6.471 -0.1506 -0.2093  0.0303
  661POPI   C3A10177   5.704   5.059   6.542  0.0087  0.0582  0.2797
  661POPI   C4A10178   5.313   4.977   6.397  0.0259  0.0520 -0.1643
  661POPI   C1B10179   6.737   3.637   6.072  0.0534  0.2500 -0.0584
  661POPI   C2B10180   6.726   3.342   6.381 -0.4592 -0.3169 -0.0099
  661POPI   C3B10181   6.450   3.293   6.652  0.0894 -0.3710 -0.2009
  661POPI   C4B10182   6.488   3.457   7.080 -0.2539 -0.3568  0.2894
  662POPI    C110183   1.030   0.280   5.660  0.0309  0.0615 -0.0048
  662POPI    C210184   0.917   0.662   5.620 -0.2496  0.0008  0.1766
  662POPI    C310185   0.735   0.376   5.407  0.0451 -0.0205 -0.0527
  662POPI   PO410186   0.932   0.194   5.989  0.1072 -0.1968 -0.0405
  662POPI   GL110187   0.784   0.177   6.406  0.1269 -0.1337 -0.1126
  662POPI   GL210188   0.412   0.115   6.484  0.1372  0.1188 -0.1138
  662POPI   C1A10189   0.993   0.245   6.760  0.1504 -0.0273  0.1376
  662POPI   D2A10190   1.029   0.161   7.217 -0.3553 -0.2327  0.1101
  662POPI   C3A10191   1.050   0.318   7.692 -0.4149 -0.1969  0.2024
  662POPI   C4A10192   1.140   0.593   8.030  0.0767  0.0811 -0.0205
  662POPI   C1B10193   0.593   0.094   7.024 -0.2125  0.1298  0.1112
  662POPI   C2B10194   0.572   0.134   7.448  0.1203 -0.0843 -0.0551
  662POPI   C3B10195   0.497   0.238   7.757  0.2498 -0.0540 -0.0913
  662POPI   C4B10196   0.548   0.337   8.153  0.2073  0.2289 -0.4289
  663POPI    C110197   0.345   1.394   5.809 -0.0539  0.0315  0.2074
  663POPI    C210198   0.128   1.605   5.548  0.0708 -0.0059  0.0722
  663POPI    C310199   0.505   1.505   5.460  0.0710 -0.1315  0.2116
  663POPI   PO410200   0.346   1.498   6.014  0.1423  0.1309 -0.0419
  663POPI   GL110201   0.394   1.750   6.359 -0.0544  0.0578 -0.0408
  663POPI   GL210202   0.167   1.452   6.454 -0.1118 -0.0980 -0.3101
  663POPI   C1A10203   0.474   2.105   6.695  0.0484  0.0750 -0.0478
  663POPI   D2A10204   0.528   2.059   7.180  0.2100 -0.4755  0.3074
  663POPI   C3A10205   0.535   2.225   7.585  0.1462  0.2374  0.1473
  663POPI   C4A10206   0.228   2.331   7.814  0.1163  0.1718 -0.0792
  663POPI   C1B10207   0.486   1.558   6.805  0.1485  0.1605 -0.3520
  663POPI   C2B10208   0.441   1.587   7.278  0.0994  0.1000  0.1965
  663POPI   C3B10209   0.383   1.725   7.673  0.0797  0.1492  0.2322
  663POPI   C4B10210   0.410   1.985   8.108 -0.1853 -0.3396 -0.0687
  664POPI    C110211   2.401  13.238   6.100 -0.1494 -0.0890 -0.0496
  664POPI    C210212   2.459  13.532   5.835  0.0158 -0.0844 -0.0093
  664POPI    C310213   2.772  13.357   6.012 -0.0960 -0.0205  0.2562
  664POPI   PO410214   2.235  13.262   6.302 -0.3336  0.0710  0.0828
  664POPI   GL110215   2.092  13.550   6.686 -0.0591  0.1001 -0.0467
  664POPI   GL210216   1.843  13.411   6.632  0.3545 -0.2363 -0.2466
  664POPI   C1A10217   2.247  13.709   7.105  0.0419 -0.0335 -0.0027
  664POPI   D2A10218   2.049  13.883   7.437 -0.0393  0.0421  0.2236
  664POPI   C3A10219   1.603  13.883   7.486  0.4422  0.0070 -0.2849
  664POPI   C4A10220   1.216  13.953   7.332 -0.0532 -0.1514 -0.1410
  664POPI   C1B10221   1.834  13.144   6.937  0.3448 -0.1935  0.0881
  664POPI   C2B10222   1.962  12.893   7.127 -0.0878  0.1335  0.3595
  664POPI   C3B10223   2.132  12.448   7.139  0.2611 -0.2248 -0.1835
  664POPI   C4B10224   2.354  12.169   7.462  0.1666  0.3060  0.1129
  665POPI    C110225   0.927  16.465   5.884  0.0349  0.1836  0.3985
  665POPI    C210226   1.187  16.709   5.702  0.1314 -0.0312  0.2428
  665POPI    C310227   0.809  16.827   5.761 -0.0034 -0.0891 -0.4300
  665POPI   PO410228   1.129  16.404   6.174 -0.1601 -0.2793  0.1359
  665POPI   GL110229   1.334  16.405   6.511  0.1368 -0.1170  0.0262
  665POPI   GL210230   1.421  16.748   6.614 -0.1589 -0.0764  0.1417
  665POPI   C1A10231   1.417  16.357   6.917 -0.1066  0.0169  0.1943
  665POPI   D2A10232   1.548  16.362   7.221  0.0900 -0.4148  0.1660
  665POPI   C3A10233   1.393  16.187   7.675  0.1290 -0.0663  0.7368
  665POPI   C4A10234   1.096  16.138   7.969  0.2487  0.0062  0.3362
  665POPI   C1B10235   1.478  16.889   7.041  0.1378  0.0296 -0.0655
  665POPI   C2B10236   1.760  16.885   7.318  0.2468 -0.0462  0.2428
  665POPI   C3B10237   1.441  17.011   7.638 -0.2747 -0.1295 -0.0837
  665POPI   C4B10238   1.681  17.362   7.880  0.3129 -0.1612 -0.1182
  666POPI    C110239   7.845   6.580   5.257 -0.1207 -0.2701 -0.2913
  666POPI    C210240   7.984   6.804   4.956  0.2750 -0.0567  0.0393
  666POPI    C310241   7.612   6.860   5.091  0.3171  0.2982  0.0170
  666POPI   PO410242   8.086   6.619   5.529  0.0532 -0.1413  0.2139
  666POPI   GL110243   8.228   6.492   5.975 -0.2070  0.1976  0.0667
  666POPI   GL210244   7.886   6.657   6.044  0.0037 -0.2233  0.0243
  666POPI   C1A10245   8.356   6.814   6.195 -0.0945 -0.3362  0.2527
  666POPI   D2A10246   8.681   6.928   6.374 -0.2024  0.0511 -0.0757
  666POPI   C3A10247   8.603   7.233   6.789  0.0794  0.0301  0.2082
  666POPI   C4A10248   8.739   7.178   7.149 -0.3447  0.3102  0.4742
  666POPI   C1B10249   7.990   6.444   6.453 -0.2231  0.2037  0.0367
  666POPI   C2B10250   8.045   6.113   6.697  0.1486 -0.0060 -0.1742
  666POPI   C3B10251   7.976   5.824   7.009  0.2830 -0.2294  0.0642
  666POPI   C4B10252   8.116   5.390   7.075  0.2730  0.0086  0.0700
  667POPI    C110253  10.517  10.888   5.676 -0.0580 -0.1352  0.1693
  667POPI    C210254  10.756  10.676   5.435 -0.1640 -0.2402  0.1555
  667POPI    C310255  10.409  10.820   5.297  0.0019  0.1226  0.1038
  667POPI   PO410256  10.534  10.763   5.931 -0.1982  0.4248  0.3271
  667POPI   GL110257  10.223  10.483   6.153 -0.0335 -0.1123  0.0953
  667POPI   GL210258  10.382  10.264   6.144  0.1064  0.2703  0.3512
  667POPI   C1A10259   9.978  10.194   6.389  0.0457  0.2610 -0.1833
  667POPI   D2A10260   9.708  10.086   6.805  0.2462 -0.1573  0.0173
  667POPI   C3A10261   9.830   9.793   7.045 -0.1178  0.4403 -0.0909
  667POPI   C4A10262   9.734   9.402   7.360  0.0245  0.3906 -0.0547
  667POPI   C1B10263  10.502  10.325   6.565 -0.2503  0.1305 -0.0456
  667POPI   C2B10264  10.414  10.536   6.932  0.0980 -0.0238 -0.0707
  667POPI   C3B10265  10.566  10.883   7.237  0.0831  0.0963 -0.2214
  667POPI   C4B10266  10.370  10.885   7.670 -0.0156 -0.1561  0.2871
  668POPI    C110267   6.857   5.821   5.030 -0.1939 -0.0390  0.0046
  668POPI    C210268   6.837   5.429   4.950  0.0012 -0.0089 -0.2016
  668POPI    C310269   6.872   5.693   4.651  0.0916  0.1517 -0.0517
  668POPI   PO410270   7.025   5.913   5.179  0.0438  0.1079 -0.0700
  668POPI   GL110271   7.084   5.881   5.595 -0.1251  0.0666 -0.0333
  668POPI   GL210272   7.188   6.159   5.829  0.0290  0.2753  0.0104
  668POPI   C1A10273   6.722   5.779   5.944  0.3442  0.1987  0.3932
  668POPI   D2A10274   6.397   5.581   6.132  0.0283  0.0229 -0.2625
  668POPI   C3A10275   6.246   5.388   6.551 -0.1741  0.2950  0.2550
  668POPI   C4A10276   6.001   5.467   6.857  0.2250 -0.1278  0.1773
  668POPI   C1B10277   7.218   5.997   6.224  0.2169  0.0717 -0.0715
  668POPI   C2B10278   7.149   5.815   6.619  0.3068 -0.1541  0.2189
  668POPI   C3B10279   6.896   5.794   6.921  0.1393 -0.3097 -0.3026
  668POPI   C4B10280   6.691   5.957   7.277 -0.2999  0.4150  0.1381
  669POPI    C110281   6.242  13.961   6.255 -0.0099  0.0220  0.0016
  669POPI    C210282   5.968  13.750   6.054 -0.1264 -0.0755  0.2591
  669POPI    C310283   6.199  14.013   5.861 -0.1087 -0.3012 -0.0328
  669POPI   PO410284   6.325  13.771   6.462  0.0816 -0.3335 -0.1986
  669POPI   GL110285   6.181  13.755   6.813 -0.1162  0.1356  0.1257
  669POPI   GL210286   6.059  13.464   6.880  0.0466  0.2779  0.3961
  669POPI   C1A10287   6.555  13.632   7.063  0.3345 -0.0701 -0.0378
  669POPI   D2A10288   6.901  13.517   7.110 -0.3537  0.0824 -0.0807
  669POPI   C3A10289   7.204  13.407   7.462  0.0254 -0.4218 -0.0600
  669POPI   C4A10290   7.472  13.124   7.434  0.3009 -0.1109 -0.0767
  669POPI   C1B10291   6.113  13.600   7.296  0.2723  0.0136 -0.0953
  669POPI   C2B10292   6.106  13.665   7.749  0.2051 -0.1141 -0.0039
  669POPI   C3B10293   6.198  13.628   8.188 -0.0195  0.1470  0.1052
  669POPI   C4B10294   5.985  13.934   8.571  0.2402  0.0532 -0.1674
  670POPI    C110295  10.736   2.284   5.387 -0.0301  0.1171  0.0409
  670POPI    C210296  10.561   1.966   5.556  0.0738  0.0479  0.0192
  670POPI    C310297  10.766   1.924   5.215  0.1860  0.1161  0.0776
  670POPI   PO410298  10.545   2.530   5.581  0.0314 -0.0364 -0.1212
  670POPI   GL110299  10.587   2.471   6.013 -0.0973  0.0836  0.0795
  670POPI   GL210300  10.682   2.177   5.979  0.0878  0.1527  0.1814
  670POPI   C1A10301  10.366   2.403   6.417 -0.0713  0.4149  0.3651
  670POPI   D2A10302  10.288   2.598   6.812 -0.1000  0.1158 -0.0687
  670POPI   C3A10303  10.481   2.929   6.900  0.0967  0.1408 -0.0485
  670POPI   C4A10304  10.593   3.264   7.022 -0.1769 -0.1615 -0.1139
  670POPI   C1B10305  10.816   2.200   6.394 -0.0210  0.0078 -0.0602
  670POPI   C2B10306  10.713   2.171   6.807 -0.1967 -0.0126 -0.2451
  670POPI   C3B10307  10.676   2.406   7.145 -0.1397 -0.3227  0.0223
  670POPI   C4B10308  10.381   2.541   7.357  0.0939 -0.3886 -0.1748
  671POPI    C110309  12.076   2.326   5.769 -0.3136  0.1446 -0.0528
  671POPI    C210310  11.972   2.705   5.842 -0.1249  0.2087 -0.1119
  671POPI    C310311  12.028   2.582   5.466 -0.1137  0.1415 -0.0884
  671POPI   PO410312  12.333   2.300   6.004 -0.0052 -0.1926  0.0742
  671POPI   GL110313  12.632   2.276   6.260  0.3600 -0.0539  0.1120
  671POPI   GL210314  12.643   1.989   6.378 -0.0656 -0.1385 -0.0570
  671POPI   C1A10315  12.722   2.620   6.674  0.2393  0.4552 -0.0397
  671POPI   D2A10316  12.927   2.833   7.022 -0.1212 -0.1426 -0.2544
  671POPI   C3A10317  13.112   2.609   7.373 -0.1267  0.2468 -0.2750
  671POPI   C4A10318  13.448   2.599   7.602 -0.5382 -0.0769 -0.0002
  671POPI   C1B10319  12.654   1.712   6.619  0.0897 -0.1497 -0.2325
  671POPI   C2B10320  12.310   1.712   6.924  0.1371 -0.2539  0.1288
  671POPI   C3B10321  12.189   1.594   7.303 -0.0711  0.0397 -0.0573
  671POPI   C4B10322  12.065   1.371   7.667  0.4880  0.2348 -0.0147
  672POPI    C110323   6.711  11.217   5.733 -0.2528  0.2019 -0.1796
  672POPI    C210324   7.013  11.240   5.472 -0.1796  0.0807 -0.1066
  672POPI    C310325   6.801  10.902   5.504 -0.1307  0.0645  0.0535
  672POPI   PO410326   6.841  11.344   5.927  0.1048  0.3054  0.0025
  672POPI   GL110327   7.019  11.182   6.381  0.4270  0.1186  0.2690
  672POPI   GL210328   6.624  11.043   6.253 -0.1440 -0.0885  0.0008
  672POPI   C1A10329   7.481  11.190   6.632  0.0999  0.0156 -0.1885
  672POPI   D2A10330   7.663  11.097   7.065  0.4227 -0.1112  0.3222
  672POPI   C3A10331   7.830  11.221   7.468 -0.1434 -0.1110  0.1745
  672POPI   C4A10332   8.077  11.045   7.798  0.2761 -0.1058  0.0615
  672POPI   C1B10333   6.628  11.026   6.746 -0.2469 -0.1515  0.2372
  672POPI   C2B10334   6.875  11.138   7.089  0.0379  0.1634  0.0308
  672POPI   C3B10335   6.790  11.230   7.582  0.1343  0.1468 -0.2730
  672POPI   C4B10336   6.728  11.512   7.903 -0.0204 -0.1087 -0.2078
  673POPI    C110337  18.012   8.512   5.791 -0.0380 -0.1641  0.0852
  673POPI    C210338  18.327   8.380   5.583  0.0102  0.1113 -0.0202
  673POPI    C310339  18.375   8.663   5.862 -0.1713  0.3003 -0.1768
  673POPI   PO410340  17.881   8.259   5.732  0.0427 -0.4444 -0.2029
  673POPI   GL110341  17.649   7.934   5.967 -0.2088  0.1007  0.3214
  673POPI   GL210342  17.651   7.689   5.857 -0.1649 -0.3392  0.2743
  673POPI   C1A10343  17.649   7.959   6.441 -0.1761  0.2349  0.2602
  673POPI   D2A10344  17.546   8.065   6.869  0.0824  0.0922  0.0698
  673POPI   C3A10345  17.319   8.073   7.261 -0.1035  0.0876  0.2696
  673POPI   C4A10346  17.100   8.355   7.596 -0.2707 -0.2349  0.1276
  673POPI   C1B10347  17.341   7.597   6.239 -0.1769 -0.1022 -0.0015
  673POPI   C2B10348  17.253   7.661   6.659 -0.1446 -0.3640  0.0902
  673POPI   C3B10349  16.953   7.733   6.949 -0.0742  0.4002  0.0782
  673POPI   C4B10350  16.585   7.894   6.935  0.0844  0.1049  0.1140
  674POPI    C110351   4.574  17.024   5.688 -0.1360 -0.2160  0.2822
  674POPI    C210352   4.288  17.271   5.820 -0.0787 -0.1966  0.3709
  674POPI    C310353   4.322  17.195   5.429 -0.0884 -0.0538  0.3421
  674POPI   PO410354   4.620  16.869   6.017 -0.3477 -0.0052 -0.0392
  674POPI   GL110355   4.699  16.815   6.457 -0.0414  0.1096  0.0500
  674POPI   GL210356   5.035  16.876   6.391 -0.2685 -0.0239 -0.1220
  674POPI   C1A10357   4.601  16.822   6.836  0.3120  0.0281 -0.1529
  674POPI   D2A10358   4.361  17.098   7.156  0.2490  0.2011  0.1901
  674POPI   C3A10359   4.283  16.935   7.606 -0.2844  0.2635  0.0274
  674POPI   C4A10360   3.933  16.971   7.829  0.0162  0.2731  0.0002
  674POPI   C1B10361   5.144  16.837   6.851 -0.0259 -0.1146 -0.3484
  674POPI   C2B10362   5.115  17.051   7.312  0.2041  0.2150 -0.0534
  674POPI   C3B10363   5.282  16.807   7.628  0.0073 -0.0188  0.0409
  674POPI   C4B10364   5.311  16.580   8.082  0.1374  0.1859 -0.0036
  675POPI    C110365  14.809  12.291   5.955 -0.1699  0.2363 -0.0831
  675POPI    C210366  15.000  12.082   6.238  0.2067  0.2608 -0.3127
  675POPI    C310367  14.780  11.892   5.964 -0.0964  0.2312 -0.0542
  675POPI   PO410368  15.186  12.468   5.907  0.1954  0.0539  0.0444
  675POPI   GL110369  15.514  12.559   6.263  0.1148 -0.2176 -0.4451
  675POPI   GL210370  15.732  12.715   6.396  0.4389  0.2400  0.3383
  675POPI   C1A10371  15.379  12.244   6.577 -0.0590 -0.2779  0.2537
  675POPI   D2A10372  15.140  12.179   6.991 -0.0388 -0.3588  0.0840
  675POPI   C3A10373  14.829  12.395   7.226  0.1452  0.1953 -0.3790
  675POPI   C4A10374  14.737  12.335   7.616  0.0918  0.0351  0.0412
  675POPI   C1B10375  15.761  12.574   6.771 -0.1682  0.0212  0.1721
  675POPI   C2B10376  15.664  12.358   7.016  0.2858  0.1788  0.0090
  675POPI   C3B10377  15.584  12.083   7.386 -0.1434 -0.0706  0.0430
  675POPI   C4B10378  15.532  12.077   7.850  0.3862 -0.1626  0.0640
  676POPI    C110379  14.883  15.166   5.312 -0.0376 -0.0221  0.0502
  676POPI    C210380  14.957  15.559   5.300 -0.2352  0.0150  0.0279
  676POPI    C310381  14.582  15.423   5.258 -0.1649 -0.1773  0.0114
  676POPI   PO410382  15.005  15.120   5.582  0.2213  0.0877 -0.0252
  676POPI   GL110383  14.849  15.139   5.976  0.0233  0.3465  0.4013
  676POPI   GL210384  14.912  14.844   6.181  0.0783  0.2389 -0.1364
  676POPI   C1A10385  14.765  15.400   6.425  0.1628  0.1060 -0.1274
  676POPI   D2A10386  14.427  15.690   6.719 -0.0963  0.0620 -0.2218
  676POPI   C3A10387  14.614  15.813   7.163  0.0339  0.0641  0.0132
  676POPI   C4A10388  15.030  15.914   7.278  0.2011 -0.0927 -0.1561
  676POPI   C1B10389  14.586  14.879   6.528 -0.1668  0.1872  0.1203
  676POPI   C2B10390  14.454  15.217   6.825 -0.0455  0.2006 -0.0388
  676POPI   C3B10391  14.463  15.331   7.249  0.0328 -0.2426  0.3310
  676POPI   C4B10392  14.896  15.421   7.428  0.0139 -0.4914 -0.1075
  677POPI    C110393  10.579   5.903   5.264 -0.1086 -0.0726 -0.0777
  677POPI    C210394  10.370   5.805   5.591 -0.3016  0.1896 -0.1201
  677POPI    C310395  10.234   5.704   5.228 -0.0821 -0.1108 -0.1221
  677POPI   PO410396  10.670   6.136   5.359 -0.1252  0.0389  0.1209
  677POPI   GL110397  10.643   6.266   5.640 -0.1735  0.2341  0.1618
  677POPI   GL210398  10.376   6.434   5.671  0.1421 -0.2039  0.1661
  677POPI   C1A10399  10.771   6.227   6.140 -0.0336 -0.0011 -0.1546
  677POPI   D2A10400  10.635   6.231   6.600 -0.4144  0.1617  0.0000
  677POPI   C3A10401  10.919   6.420   6.902  0.1017  0.0206  0.0005
  677POPI   C4A10402  10.828   6.799   7.044  0.1993  0.1863  0.0149
  677POPI   C1B10403  10.174   6.136   5.887 -0.4253 -0.0812 -0.3642
  677POPI   C2B10404   9.882   5.813   5.852 -0.1180 -0.0791  0.0059
  677POPI   C3B10405   9.468   5.718   6.110  0.0667  0.2372  0.3273
  677POPI   C4B10406   9.299   5.533   6.512  0.0386  0.3015 -0.0594
  678POPI    C110407   7.993   1.698   5.255 -0.0033  0.1437  0.1728
  678POPI    C210408   8.115   1.334   5.140 -0.2609  0.0834  0.0828
  678POPI    C310409   8.382   1.628   5.189 -0.0975 -0.0025 -0.2633
  678POPI   PO410410   7.926   1.726   5.482 -0.0836  0.0007  0.0364
  678POPI   GL110411   7.808   1.657   5.929 -0.1599 -0.1697  0.0915
  678POPI   GL210412   7.523   1.767   6.029 -0.3873  0.2124  0.0407
  678POPI   C1A10413   8.043   1.791   6.299  0.2116  0.2523  0.1754
  678POPI   D2A10414   8.061   1.794   6.849  0.0688  0.1597 -0.0596
  678POPI   C3A10415   8.326   1.747   7.122  0.1453  0.2745 -0.0384
  678POPI   C4A10416   8.774   1.651   7.237  0.0067  0.3088  0.0030
  678POPI   C1B10417   7.577   1.793   6.536  0.1070  0.0781 -0.2728
  678POPI   C2B10418   7.570   1.861   6.929 -0.0453 -0.0797 -0.1328
  678POPI   C3B10419   7.430   1.920   7.317  0.1515  0.1208 -0.0824
  678POPI   C4B10420   7.402   2.239   7.652  0.1016 -0.0208 -0.1897
  679POPI    C110421   2.395   5.920   5.503 -0.0106  0.3301  0.0472
  679POPI    C210422   2.177   5.855   5.832  0.0849 -0.2057  0.0129
  679POPI    C310423   2.103   5.647   5.498  0.5907 -0.3423 -0.0240
  679POPI   PO410424   2.623   5.908   5.542 -0.2219  0.1456  0.1610
  679POPI   GL110425   2.753   5.859   5.933 -0.0341  0.1305 -0.0984
  679POPI   GL210426   3.008   5.639   5.988  0.2684  0.2383 -0.2890
  679POPI   C1A10427   2.823   6.131   6.153  0.2000 -0.1488 -0.0402
  679POPI   D2A10428   2.956   6.565   6.213  0.2533 -0.0390 -0.1448
  679POPI   C3A10429   2.762   6.671   6.603 -0.0296 -0.0575  0.2811
  679POPI   C4A10430   2.481   6.688   6.975 -0.0807  0.2910 -0.1102
  679POPI   C1B10431   3.065   5.647   6.504  0.1661 -0.2338  0.0157
  679POPI   C2B10432   3.056   5.773   6.914  0.0703 -0.1312  0.4932
  679POPI   C3B10433   2.959   5.924   7.336 -0.2531  0.0038  0.2363
  679POPI   C4B10434   2.709   6.206   7.511 -0.0627 -0.1060  0.1642
  680POPI    C110435   1.409   6.901   5.620  0.1874  0.0553  0.0295
  680POPI    C210436   1.088   6.732   5.451  0.1911 -0.2392  0.3069
  680POPI    C310437   1.454   6.650   5.312  0.1502  0.1277 -0.0353
  680POPI   PO410438   1.293   6.978   5.866 -0.2587 -0.1604 -0.0522
  680POPI   GL110439   1.436   6.801   6.191 -0.0192 -0.0418  0.0783
  680POPI   GL210440   1.206   6.935   6.337 -0.0489 -0.0372 -0.1759
  680POPI   C1A10441   1.625   6.681   6.650 -0.0705  0.1726  0.2956
  680POPI   D2A10442   1.479   6.817   7.082  0.1764  0.0466  0.0910
  680POPI   C3A10443   1.716   6.885   7.436  0.3810 -0.3367 -0.2311
  680POPI   C4A10444   1.717   6.859   7.869 -0.3037  0.4012  0.3996
  680POPI   C1B10445   1.326   7.201   6.618 -0.0845 -0.0795  0.1033
  680POPI   C2B10446   1.126   7.289   6.954 -0.1463  0.1929 -0.0130
  680POPI   C3B10447   0.867   7.473   7.244  0.3698 -0.0153  0.3846
  680POPI   C4B10448   0.812   7.793   7.489 -0.0395 -0.1749  0.2103
  681POPI    C110449   9.312   0.096   5.401  0.0026  0.1079  0.0422
  681POPI    C210450   9.389   0.432   5.199  0.4195  0.0399  0.0780
  681POPI    C310451   9.506   0.079   5.052 -0.1498 -0.1121 -0.0337
  681POPI   PO410452   9.405   0.181   5.654  0.2774  0.0805 -0.0902
  681POPI   GL110453   9.439   0.228   6.000 -0.0572 -0.1521  0.0303
  681POPI   GL210454   9.117   0.159   6.129 -0.2412  0.0713  0.1926
  681POPI   C1A10455   9.819   0.257   6.322 -0.2945  0.0319  0.1889
  681POPI   D2A10456   9.970   0.567   6.629  0.0199  0.0887 -0.0097
  681POPI   C3A10457   9.861   0.537   7.108  0.0357 -0.0664 -0.0442
  681POPI   C4A10458   9.515   0.682   7.328  0.1946 -0.0555 -0.2473
  681POPI   C1B10459   9.294   0.086   6.492  0.0722 -0.2804 -0.2112
  681POPI   C2B10460   9.568   0.177   6.767 -0.2797  0.1744 -0.3580
  681POPI   C3B10461   9.468   0.201   7.200 -0.1242 -0.0395 -0.2208
  681POPI   C4B10462   9.165  -0.217   7.424  0.0740  0.4529 -0.1635
  682POPS   CNO10463   1.394   4.309   5.423  0.0103  0.1719 -0.1164
  682POPS   PO410464   1.629   4.082   5.752  0.0177  0.0787 -0.0698
  682POPS   GL110465   1.676   4.454   6.049 -0.2230  0.1797 -0.1670
  682POPS   GL210466   1.382   4.469   6.151 -0.1214 -0.2487 -0.0454
  682POPS   C1A10467   1.919   4.520   6.530 -0.0919 -0.0207  0.1325
  682POPS   D2A10468   1.767   4.423   6.881  0.3472  0.2617  0.1991
  682POPS   C3A10469   1.336   4.161   7.016  0.1023  0.4591 -0.1960
  682POPS   C4A10470   1.052   3.861   7.003  0.1590 -0.0387 -0.2725
  682POPS   C1B10471   1.454   4.181   6.493 -0.1423 -0.2619 -0.0568
  682POPS   C2B10472   1.470   3.720   6.680 -0.1870 -0.0444  0.0498
  682POPS   C3B10473   1.814   3.358   6.922  0.1061 -0.5087  0.0865
  682POPS   C4B10474   2.242   3.338   7.022 -0.1885  0.0852 -0.2464
  683POPS   CNO10475   6.869   8.451   5.445 -0.0468 -0.1614 -0.0645
  683POPS   PO410476   6.872   8.164   5.640  0.0276 -0.0767 -0.1765
  683POPS   GL110477   6.467   8.216   5.977 -0.0875  0.0837 -0.0544
  683POPS   GL210478   6.188   8.414   6.050  0.1565  0.0111 -0.1424
  683POPS   C1A10479   6.577   8.350   6.354 -0.5656  0.0984 -0.0642
  683POPS   D2A10480   6.844   8.294   6.689 -0.1952  0.1014 -0.1976
  683POPS   C3A10481   6.950   8.484   7.057 -0.0084 -0.1184  0.0793
  683POPS   C4A10482   6.856   8.781   7.373 -0.2532 -0.1999 -0.0478
  683POPS   C1B10483   6.129   8.548   6.433  0.0502  0.1465  0.0734
  683POPS   C2B10484   6.415   8.557   6.817 -0.1316  0.1525  0.2732
  683POPS   C3B10485   6.268   8.487   7.269 -0.0166  0.1296  0.1956
  683POPS   C4B10486   6.093   8.277   7.595 -0.6696  0.4145  0.1626
  684POPS   CNO10487   1.361   8.307   5.953 -0.2300 -0.0086  0.2732
  684POPS   PO410488   1.383   8.021   5.564  0.1200  0.2394  0.1330
  684POPS   GL110489   1.615   7.873   5.984  0.3239 -0.4248 -0.1166
  684POPS   GL210490   1.847   7.613   6.037 -0.0093 -0.1413  0.0616
  684POPS   C1A10491   1.591   7.737   6.466  0.1007 -0.3744  0.0915
  684POPS   D2A10492   1.636   7.704   6.818 -0.1994 -0.3800  0.1423
  684POPS   C3A10493   1.560   8.050   7.058 -0.1957 -0.2334  0.1216
  684POPS   C4A10494   1.542   8.174   7.523 -0.0716  0.0806  0.0054
  684POPS   C1B10495   2.119   7.615   6.522 -0.1286  0.0129  0.3031
  684POPS   C2B10496   2.159   7.458   6.897  0.0615 -0.0707 -0.0981
  684POPS   C3B10497   2.094   7.705   7.197 -0.0881 -0.0520 -0.1773
  684POPS   C4B10498   1.859   7.820   7.560 -0.0111  0.0924  0.3623
  685POPS   CNO10499   8.972  16.112   5.823 -0.0523 -0.0570 -0.0273
  685POPS   PO410500   9.388  15.988   5.654  0.1543  0.2351  0.0687
  685POPS   GL110501   9.390  16.138   6.117  0.1855 -0.1166 -0.0215
  685POPS   GL210502   9.067  16.041   6.280 -0.1229  0.1770 -0.1847
  685POPS   C1A10503   9.596  16.284   6.537  0.1485  0.1379  0.1847
  685POPS   D2A10504   9.566  16.384   7.001 -0.4959 -0.2103 -0.0547
  685POPS   C3A10505   9.393  16.741   6.997  0.0030  0.1236  0.0005
  685POPS   C4A10506   9.521  17.176   7.100 -0.3249  0.0173  0.2067
  685POPS   C1B10507   9.090  16.140   6.724 -0.0606 -0.1955 -0.0478
  685POPS   C2B10508   9.123  16.140   7.051 -0.0957 -0.0863 -0.1204
  685POPS   C3B10509   8.959  16.190   7.539  0.3484 -0.2634  0.0855
  685POPS   C4B10510   8.833  16.186   7.987  0.0356 -0.0675 -0.1961
  686POPS   CNO10511   6.709   6.364   4.990 -0.1295  0.2228 -0.1782
  686POPS   PO410512   6.443   6.120   5.203  0.0511 -0.3511 -0.0114
  686POPS   GL110513   6.389   6.130   5.672  0.1598  0.1866  0.1296
  686POPS   GL210514   6.064   6.303   5.810  0.2375  0.1010  0.2065
  686POPS   C1A10515   6.640   6.302   6.118  0.2000  0.0721  0.1708
  686POPS   D2A10516   6.933   6.392   6.453  0.2424  0.4290  0.0034
  686POPS   C3A10517   7.032   6.368   6.841  0.0119 -0.0927  0.0196
  686POPS   C4A10518   7.259   6.150   7.207 -0.0124 -0.0556 -0.1182
  686POPS   C1B10519   5.701   6.549   5.934  0.1641  0.0881 -0.0257
  686POPS   C2B10520   5.553   6.798   6.217  0.0141  0.0445  0.0009
  686POPS   C3B10521   5.273   7.023   6.390  0.2264 -0.1719 -0.3089
  686POPS   C4B10522   5.073   7.167   6.784  0.1492  0.0754 -0.0218
  687POPS   CNO10523   1.753  13.084   6.264  0.1411  0.1699 -0.0274
  687POPS   PO410524   1.423  12.775   6.236 -0.0414 -0.1170 -0.0650
  687POPS   GL110525   1.286  12.855   6.660  0.1336  0.1703 -0.2385
  687POPS   GL210526   1.399  13.156   6.698  0.1982  0.2096 -0.2764
  687POPS   C1A10527   1.435  12.782   7.002  0.1020  0.0837 -0.1645
  687POPS   D2A10528   1.552  12.625   7.370  0.0035 -0.1981  0.0163
  687POPS   C3A10529   1.766  12.395   7.566 -0.1289  0.1652 -0.0800
  687POPS   C4A10530   2.095  12.293   7.890 -0.1143 -0.0785  0.4345
  687POPS   C1B10531   1.393  13.304   7.132  0.1195  0.4900  0.2019
  687POPS   C2B10532   1.466  13.132   7.502 -0.0914  0.0324  0.1238
  687POPS   C3B10533   1.689  12.922   7.836  0.3198  0.0145  0.1904
  687POPS   C4B10534   1.872  12.682   8.197 -0.1278 -0.1697  0.2520
  688POPS   CNO10535  15.008  10.487   5.533 -0.2667 -0.0734  0.0669
  688POPS   PO410536  14.859  10.866   5.759  0.4235 -0.3316  0.1411
  688POPS   GL110537  15.003  10.661   6.099 -0.3584  0.0630  0.0863
  688POPS   GL210538  15.124  10.280   5.935 -0.0357  0.2974 -0.2118
  688POPS   C1A10539  15.035  10.473   6.476 -0.0447  0.1130 -0.2806
  688POPS   D2A10540  15.017  10.554   6.891 -0.1562  0.2142 -0.2219
  688POPS   C3A10541  15.150  10.182   7.203 -0.1994 -0.1373 -0.2533
  688POPS   C4A10542  15.117   9.829   7.506  0.2626  0.1782  0.0439
  688POPS   C1B10543  15.037  10.031   6.284 -0.2196 -0.0023 -0.0101
  688POPS   C2B10544  15.009   9.560   6.312  0.0055 -0.0525 -0.3819
  688POPS   C3B10545  14.888   9.139   6.426  0.1769  0.0529  0.0966
  688POPS   C4B10546  14.636   8.897   6.622  0.1719 -0.2812  0.1177
  689POPS   CNO10547  16.174  12.177   5.331 -0.2195 -0.0742 -0.2059
  689POPS   PO410548  16.110  11.912   5.713  0.1486 -0.2175  0.0218
  689POPS   GL110549  16.043  11.797   6.060  0.4805  0.1899  0.0631
  689POPS   GL210550  16.305  11.787   6.240  0.0789  0.0271  0.0233
  689POPS   C1A10551  15.784  11.846   6.440  0.0499  0.1082 -0.0523
  689POPS   D2A10552  15.584  11.728   6.789  0.3304  0.1295  0.3135
  689POPS   C3A10553  15.791  11.647   7.186 -0.0284 -0.1278 -0.2300
  689POPS   C4A10554  15.514  11.214   7.305 -0.3053  0.4197  0.1438
  689POPS   C1B10555  16.619  11.798   6.578  0.0459 -0.4001  0.1584
  689POPS   C2B10556  16.552  11.727   7.052  0.1218 -0.0960 -0.1214
  689POPS   C3B10557  16.380  11.670   7.468  0.1392 -0.0632  0.1355
  689POPS   C4B10558  16.419  11.904   7.895  0.4380  0.3020  0.0683
  690POPS   CNO10559   4.364   8.263   5.534  0.1951  0.0550 -0.3623
  690POPS   PO410560   4.378   8.642   5.749  0.0165 -0.0796  0.1504
  690POPS   GL110561   4.489   8.392   6.038 -0.3237 -0.0454  0.1239
  690POPS   GL210562   4.744   8.545   6.135 -0.0259 -0.1631 -0.0133
  690POPS   C1A10563   4.573   8.359   6.557 -0.3431  0.0283  0.1387
  690POPS   D2A10564   4.757   8.263   6.962  0.1562 -0.1333 -0.0070
  690POPS   C3A10565   4.519   8.088   7.243 -0.0735  0.3255  0.2833
  690POPS   C4A10566   4.363   8.101   7.666  0.0984 -0.0916  0.0034
  690POPS   C1B10567   4.548   8.905   6.292 -0.0072  0.1019 -0.1367
  690POPS   C2B10568   4.268   9.180   6.584 -0.2353 -0.1277 -0.3158
  690POPS   C3B10569   3.836   9.167   6.536  0.3053  0.0570  0.2337
  690POPS   C4B10570   3.499   8.965   6.377  0.0789 -0.0455  0.0375
  691POPS   CNO10571   4.731  11.698   5.913  0.0398 -0.3202  0.1955
  691POPS   PO410572   4.374  11.649   6.112 -0.2163 -0.1276  0.3868
  691POPS   GL110573   4.714  11.357   6.345 -0.2961  0.1850 -0.0878
  691POPS   GL210574   4.834  11.618   6.517  0.2060  0.1093  0.1626
  691POPS   C1A10575   4.898  11.140   6.721 -0.0972 -0.0238 -0.0468
  691POPS   D2A10576   5.194  10.809   6.776  0.1366  0.5425 -0.2897
  691POPS   C3A10577   5.386  10.527   7.145 -0.1389  0.1309 -0.1774
  691POPS   C4A10578   5.678  10.578   7.553  0.2263 -0.0458 -0.2571
  691POPS   C1B10579   4.734  11.566   6.904  0.0136  0.0105  0.0091
  691POPS   C2B10580   4.424  11.250   7.028  0.1165 -0.0103  0.0638
  691POPS   C3B10581   4.217  10.838   7.080 -0.0938  0.1178 -0.1992
  691POPS   C4B10582   4.368  10.381   7.004 -0.0583 -0.0324 -0.2958
  692POPS   CNO10583  16.739  16.287   5.376  0.1105 -0.0433 -0.1008
  692POPS   PO410584  16.386  16.122   5.703  0.0243  0.0704 -0.1824
  692POPS   GL110585  16.649  16.440   5.884 -0.3007  0.1680 -0.4839
  692POPS   GL210586  16.734  16.806   5.934  0.2168  0.0079  0.1858
  692POPS   C1A10587  16.881  16.519   6.337  0.0758  0.1265 -0.1174
  692POPS   D2A10588  17.250  16.610   6.677 -0.1989 -0.1329  0.0434
  692POPS   C3A10589  17.061  16.510   7.063 -0.2125  0.0288  0.1911
  692POPS   C4A10590  17.012  16.030   7.126 -0.2479 -0.0608  0.0250
  692POPS   C1B10591  16.367  16.977   6.197 -0.0260  0.1290  0.1598
  692POPS   C2B10592  16.169  17.134   6.573  0.1085 -0.1696 -0.4221
  692POPS   C3B10593  16.560  17.189   6.913 -0.1111 -0.0977 -0.0011
  692POPS   C4B10594  16.723  16.900   7.046  0.1797  0.1507  0.1209
  693POPS   CNO10595   4.699   6.675   5.229 -0.2746  0.2282  0.0720
  693POPS   PO410596   4.887   6.960   5.516  0.2730 -0.0710 -0.0688
  693POPS   GL110597   4.978   6.904   5.982  0.0473  0.0767 -0.1114
  693POPS   GL210598   4.608   6.783   6.103  0.0359  0.1052 -0.1764
  693POPS   C1A10599   5.127   6.575   6.115  0.2280  0.0640 -0.1879
  693POPS   D2A10600   4.994   6.188   6.347  0.1818  0.2863 -0.0409
  693POPS   C3A10601   4.792   5.766   6.255 -0.2902 -0.1411 -0.0121
  693POPS   C4A10602   4.713   5.340   6.047 -0.3122 -0.0514 -0.1652
  693POPS   C1B10603   4.849   6.755   6.522 -0.0604 -0.0869 -0.0745
  693POPS   C2B10604   5.299   6.546   6.598  0.3217  0.1659 -0.3114
  693POPS   C3B10605   5.379   6.102   6.774  0.1249  0.1992  0.0750
  693POPS   C4B10606   5.494   5.698   6.822  0.0478 -0.1842  0.3090
  694POPS   CNO10607   9.301  15.581   5.925  0.4351 -0.2763 -0.0257
  694POPS   PO410608   9.041  15.220   6.123 -0.2611  0.2918  0.0246
  694POPS   GL110609   9.200  15.446   6.530  0.2395  0.1241  0.0671
  694POPS   GL210610   9.434  15.706   6.412 -0.2121 -0.2090 -0.0352
  694POPS   C1A10611   9.167  15.642   6.892  0.0268  0.1826  0.3892
  694POPS   D2A10612   9.110  15.612   7.238 -0.1057 -0.0222  0.2444
  694POPS   C3A10613   8.770  15.682   7.309 -0.1243  0.0679  0.1594
  694POPS   C4A10614   8.514  15.401   7.429  0.0960 -0.1979 -0.3547
  694POPS   C1B10615   9.635  15.866   6.780  0.1934  0.2678 -0.0181
  694POPS   C2B10616   9.557  15.945   7.215 -0.2071  0.0676 -0.0626
  694POPS   C3B10617   9.462  15.974   7.647  0.3333 -0.4751  0.1214
  694POPS   C4B10618   9.318  16.262   7.926 -0.0590 -0.2715  0.1268
  695POPS   CNO10619  16.131  14.677   6.204 -0.1622  0.1297  0.0739
  695POPS   PO410620  15.769  14.757   5.876  0.0668  0.1819  0.0820
  695POPS   GL110621  15.613  14.626   6.183  0.2157  0.1474 -0.2312
  695POPS   GL210622  15.667  14.922   6.387 -0.5143 -0.3545 -0.0128
  695POPS   C1A10623  15.311  14.624   6.464 -0.2571 -0.0676 -0.2301
  695POPS   D2A10624  15.359  14.383   6.792 -0.1649 -0.0663 -0.1667
  695POPS   C3A10625  15.138  14.047   6.867 -0.2894 -0.3183  0.1513
  695POPS   C4A10626  15.002  13.661   6.709 -0.0974  0.0480 -0.2056
  695POPS   C1B10627  15.509  15.098   6.769  0.3428  0.1194 -0.5978
  695POPS   C2B10628  15.309  15.389   7.100 -0.0300 -0.0573 -0.1669
  695POPS   C3B10629  14.957  15.496   6.951  0.1886 -0.1391 -0.2769
  695POPS   C4B10630  14.896  15.814   6.698  0.0669  0.1291 -0.0585
  696POPS   CNO10631   5.521   2.453   5.053 -0.2695 -0.2558 -0.2431
  696POPS   PO410632   5.715   2.404   5.402 -0.1666 -0.0539  0.2300
  696POPS   GL110633   5.703   2.553   5.876 -0.0104  0.0707  0.1141
  696POPS   GL210634   5.928   2.850   5.823 -0.0122  0.2566  0.0903
  696POPS   C1A10635   5.520   2.829   6.159  0.5274 -0.2357  0.0230
  696POPS   D2A10636   5.312   2.965   6.458  0.0532 -0.1431 -0.0557
  696POPS   C3A10637   5.374   3.160   6.806 -0.3801 -0.0454  0.2442
  696POPS   C4A10638   5.251   3.547   7.107  0.3329  0.6875 -0.0515
  696POPS   C1B10639   6.003   2.738   6.233  0.0989 -0.1236  0.0040
  696POPS   C2B10640   5.730   2.592   6.566  0.3387 -0.1992 -0.2793
  696POPS   C3B10641   5.656   2.579   7.044 -0.0218 -0.4430  0.2443
  696POPS   C4B10642   5.378   2.622   7.446 -0.1007 -0.1459  0.1618
  697POPS   CNO10643   8.233   9.493   5.396  0.2232 -0.0591 -0.0369
  697POPS   PO410644   7.999   9.275   5.658  0.0234  0.1031 -0.2944
  697POPS   GL110645   7.951   9.233   6.142 -0.0244  0.0892  0.2764
  697POPS   GL210646   7.804   9.358   6.247  0.3174  0.3340  0.1820
  697POPS   C1A10647   8.072   8.960   6.487  0.0515 -0.0229  0.0408
  697POPS   D2A10648   8.198   8.627   6.803  0.0668  0.0154  0.2968
  697POPS   C3A10649   8.176   8.590   7.289 -0.2931  0.3643 -0.1121
  697POPS   C4A10650   8.126   8.643   7.818  0.2553  0.1656 -0.0740
  697POPS   C1B10651   8.124   9.498   6.543 -0.0771 -0.3725 -0.1157
  697POPS   C2B10652   8.246   9.617   6.871 -0.0413  0.1346  0.1939
  697POPS   C3B10653   8.222   9.509   7.284  0.2487 -0.0176  0.0222
  697POPS   C4B10654   8.614   9.453   7.481 -0.2604  0.0096 -0.1717
  698POPS   CNO10655   3.331  15.790   5.954  0.0603 -0.1199  0.0564
  698POPS   PO410656   3.410  15.469   6.135 -0.0290 -0.3719  0.0723
  698POPS   GL110657   3.370  15.423   6.524 -0.1611 -0.1447 -0.0627
  698POPS   GL210658   3.656  15.461   6.625  0.0103  0.0709 -0.3624
  698POPS   C1A10659   3.148  15.188   6.853  0.1656  0.4463 -0.1795
  698POPS   D2A10660   3.379  15.060   7.132  0.0089 -0.0380 -0.1535
  698POPS   C3A10661   3.241  14.947   7.580 -0.0607  0.0616 -0.0655
  698POPS   C4A10662   3.424  15.061   7.968  0.1389 -0.0168  0.0281
  698POPS   C1B10663   3.728  15.433   7.158  0.1288  0.1783  0.3384
  698POPS   C2B10664   3.642  15.321   7.533 -0.2052 -0.3612  0.2366
  698POPS   C3B10665   3.744  15.630   7.782  0.1986 -0.2447  0.2827
  698POPS   C4B10666   4.082  15.956   7.676  0.0136  0.0976 -0.1473
  699POPS   CNO10667   8.634  11.884   6.059 -0.6263  0.1208  0.0798
  699POPS   PO410668   8.464  12.230   6.303  0.0645  0.2806 -0.0698
  699POPS   GL110669   8.622  12.278   6.648  0.0761 -0.3577 -0.1074
  699POPS   GL210670   8.920  12.510   6.702 -0.0034  0.2333  0.2070
  699POPS   C1A10671   8.915  12.051   6.928  0.3391  0.2461  0.0203
  699POPS   D2A10672   9.177  12.109   7.195  0.0322 -0.0946 -0.3740
  699POPS   C3A10673   9.505  12.294   7.004 -0.1873 -0.1706 -0.0294
  699POPS   C4A10674   9.426  12.560   6.712 -0.0932  0.0387  0.3376
  699POPS   C1B10675   8.818  12.499   7.076  0.0508  0.2737 -0.3616
  699POPS   C2B10676   8.927  12.544   7.556  0.1081 -0.0747  0.1308
  699POPS   C3B10677   9.174  12.659   7.881  0.0838 -0.2102  0.1983
  699POPS   C4B10678   9.298  12.728   8.348  0.1360  0.2648  0.2772
  700POPS   CNO10679   9.320  13.328   5.958  0.2616 -0.1113  0.0361
  700POPS   PO410680   9.776  13.321   5.885 -0.0370  0.0809 -0.2055
  700POPS   GL110681   9.692  13.217   6.415  0.2024  0.2374 -0.2461
  700POPS   GL210682   9.426  13.486   6.404 -0.1511 -0.1136 -0.2979
  700POPS   C1A10683   9.746  13.020   6.888 -0.1357 -0.1495  0.1427
  700POPS   D2A10684  10.215  12.947   7.174 -0.0371  0.0962  0.0077
  700POPS   C3A10685  10.035  12.752   7.518 -0.1260  0.1082  0.0662
  700POPS   C4A10686  10.129  12.700   7.936 -0.0248  0.3379 -0.1097
  700POPS   C1B10687   9.489  13.435   6.813 -0.2925 -0.0730 -0.0529
  700POPS   C2B10688   9.869  13.459   7.150  0.2389 -0.1559 -0.2221
  700POPS   C3B10689  10.036  13.776   7.455 -0.1248 -0.3494 -0.0432
  700POPS   C4B10690  10.211  13.585   7.823  0.0677 -0.0782  0.1200
  701POPS   CNO10691  13.859  15.893   6.681  0.0575  0.0549  0.3212
  701POPS   PO410692  14.100  15.752   6.377 -0.0042  0.1715  0.0975
  701POPS   GL110693  14.226  16.180   6.475  0.0134  0.2380  0.0862
  701POPS   GL210694  14.555  16.147   6.406  0.3112 -0.0638 -0.1456
  701POPS   C1A10695  14.103  16.529   6.813  0.0788  0.1039  0.0973
  701POPS   D2A10696  14.283  16.933   7.021 -0.0545  0.1306  0.0355
  701POPS   C3A10697  14.547  17.127   7.274  0.1243  0.1042  0.4373
  701POPS   C4A10698  14.481  17.240   7.733  0.2439 -0.0364  0.2469
  701POPS   C1B10699  14.588  16.240   6.905  0.3697 -0.0641 -0.2640
  701POPS   C2B10700  14.658  16.258   7.334  0.0071 -0.1040  0.0612
  701POPS   C3B10701  14.401  16.058   7.662  0.0102  0.2793  0.1251
  701POPS   C4B10702  14.511  15.562   7.729 -0.3551  0.0750 -0.3565
  702POPS   CNO10703   7.647  10.341   5.636  0.1907  0.0897 -0.0325
  702POPS   PO410704   7.533  10.022   5.848  0.0422 -0.1726  0.1130
  702POPS   GL110705   7.426  10.225   6.243  0.1817 -0.1227  0.0457
  702POPS   GL210706   7.059  10.248   6.259  0.1090  0.0003 -0.1728
  702POPS   C1A10707   7.256  10.311   6.688 -0.0538 -0.1770  0.0729
  702POPS   D2A10708   7.062  10.224   7.013 -0.4405 -0.0954 -0.3924
  702POPS   C3A10709   7.313  10.244   7.458  0.1794 -0.3617  0.0258
  702POPS   C4A10710   7.140  10.354   7.863 -0.3791 -0.0995  0.0506
  702POPS   C1B10711   7.002   9.903   6.513 -0.0561 -0.3183 -0.2568
  702POPS   C2B10712   6.841   9.813   6.918  0.0400  0.1567  0.1945
  702POPS   C3B10713   6.805   9.755   7.341  0.3880 -0.1686  0.0185
  702POPS   C4B10714   6.547   9.644   7.597  0.1700  0.1603  0.2533
  703POPS   CNO10715  12.620  13.354   5.480 -0.0499  0.1183 -0.0564
  703POPS   PO410716  12.657  13.343   5.945  0.1233 -0.0106  0.1040
  703POPS   GL110717  12.952  13.606   6.162 -0.0866 -0.0972  0.0468
  703POPS   GL210718  13.172  13.455   6.126 -0.0433 -0.1664 -0.3833
  703POPS   C1A10719  13.072  13.467   6.654 -0.2834  0.1000  0.2219
  703POPS   D2A10720  13.152  13.270   7.060 -0.0584 -0.0332 -0.1820
  703POPS   C3A10721  13.148  13.550   7.380  0.0450  0.1838 -0.1915
  703POPS   C4A10722  13.474  13.524   7.680 -0.2099 -0.0887 -0.1168
  703POPS   C1B10723  13.386  13.159   6.350 -0.0290 -0.0211 -0.0061
  703POPS   C2B10724  13.550  13.051   6.846  0.2565  0.0510 -0.0348
  703POPS   C3B10725  13.598  13.252   7.286 -0.0603 -0.0039  0.0851
  703POPS   C4B10726  13.905  13.150   7.625  0.3996 -0.2554  0.3030
  704POPS   CNO10727   1.606   9.606   5.704 -0.1863 -0.4287 -0.0724
  704POPS   PO410728   1.248   9.971   5.844  0.2649 -0.3889 -0.3577
  704POPS   GL110729   1.475   9.752   6.235 -0.0963 -0.2326  0.2987
  704POPS   GL210730   1.733   9.783   6.278 -0.1433  0.1014  0.1378
  704POPS   C1A10731   1.614   9.648   6.703  0.2601  0.1734 -0.3020
  704POPS   D2A10732   1.602   9.743   7.119 -0.1761  0.0054 -0.0844
  704POPS   C3A10733   1.253   9.857   7.150 -0.0055 -0.0203  0.0074
  704POPS   C4A10734   1.053  10.132   7.422  0.2462 -0.3982  0.1374
  704POPS   C1B10735   1.964   9.977   6.530 -0.0381  0.0768 -0.1092
  704POPS   C2B10736   2.039   9.849   6.947  0.2591 -0.0219  0.0148
  704POPS   C3B10737   2.341   9.879   7.243 -0.0135  0.2983 -0.1659
  704POPS   C4B10738   2.262   9.831   7.607  0.0839  0.3513 -0.1469
  705POPS   CNO10739   6.472  13.317   6.622 -0.0930 -0.1588 -0.1302
  705POPS   PO410740   6.389  12.989   6.274  0.0789 -0.1523  0.3411
  705POPS   GL110741   6.538  12.738   6.659  0.0437 -0.1452  0.0326
  705POPS   GL210742   6.481  12.433   6.843 -0.0700  0.0100  0.1292
  705POPS   C1A10743   6.795  12.654   7.074  0.3307 -0.1302 -0.0711
  705POPS   D2A10744   6.988  12.889   7.425 -0.1709  0.1199 -0.3157
  705POPS   C3A10745   6.603  12.985   7.611 -0.0800  0.1271 -0.2659
  705POPS   C4A10746   6.217  13.174   7.546 -0.1888 -0.4320 -0.1755
  705POPS   C1B10747   6.484  12.297   7.348 -0.1048  0.0274  0.1396
  705POPS   C2B10748   6.761  12.466   7.712 -0.2146 -0.3809 -0.2802
  705POPS   C3B10749   6.717  12.356   8.029  0.0614 -0.0892  0.0497
  705POPS   C4B10750   6.930  12.314   8.415 -0.0666  0.0653  0.0418
  706POPS   CNO10751  11.766  12.606   6.293  0.0513 -0.0726 -0.0570
  706POPS   PO410752  11.616  12.251   6.150 -0.1354 -0.0698 -0.0333
  706POPS   GL110753  11.347  12.332   6.557 -0.0479  0.0353 -0.1857
  706POPS   GL210754  11.517  12.406   6.828 -0.3188  0.0082  0.1004
  706POPS   C1A10755  11.000  12.671   6.824 -0.0656  0.0103 -0.3657
  706POPS   D2A10756  10.667  12.606   6.807 -0.2410  0.0200 -0.0382
  706POPS   C3A10757  10.519  12.523   7.229  0.1624 -0.1268  0.6378
  706POPS   C4A10758  10.463  12.527   7.605 -0.2828  0.2353  0.0267
  706POPS   C1B10759  11.386  12.598   7.158 -0.0491  0.2882 -0.1127
  706POPS   C2B10760  11.030  12.538   7.327 -0.1905 -0.1495 -0.2832
  706POPS   C3B10761  10.926  12.299   7.479  0.0496 -0.1657  0.2597
  706POPS   C4B10762  10.774  11.904   7.315  0.1486 -0.1980  0.0965
  707POPS   CNO10763  14.024  14.081   5.349 -0.4146 -0.3680  0.0761
  707POPS   PO410764  14.148  13.911   5.768 -0.1909  0.1380  0.0668
  707POPS   GL110765  13.962  13.982   6.123 -0.0665 -0.0939 -0.1912
  707POPS   GL210766  14.192  14.089   6.321  0.1160 -0.1587 -0.0615
  707POPS   C1A10767  13.956  13.854   6.641  0.1287  0.2777 -0.1613
  707POPS   D2A10768  13.995  13.624   7.064  0.2753  0.1344 -0.1336
  707POPS   C3A10769  13.912  13.697   7.509  0.1320 -0.2880  0.1062
  707POPS   C4A10770  14.034  13.483   7.898 -0.2573  0.2002 -0.1428
  707POPS   C1B10771  14.288  14.291   6.690  0.1348  0.3489  0.1574
  707POPS   C2B10772  14.130  14.360   7.047  0.1227 -0.0085  0.2898
  707POPS   C3B10773  13.992  14.213   7.482  0.1387 -0.1706  0.2625
  707POPS   C4B10774  13.860  14.009   7.866 -0.3177  0.0916  0.0577
  708POPS   CNO10775  11.564  10.459   5.341 -0.0847 -0.0294 -0.1531
  708POPS   PO410776  11.285  10.536   5.691  0.2651 -0.2148 -0.3592
  708POPS   GL110777  11.067  10.599   6.166 -0.0668  0.3263  0.2853
  708POPS   GL210778  10.852  10.596   6.272 -0.0658 -0.1162  0.3253
  708POPS   C1A10779  11.137  10.834   6.594  0.0977  0.0698 -0.3311
  708POPS   D2A10780  10.988  10.965   6.973 -0.1544  0.2092  0.3043
  708POPS   C3A10781  11.076  10.733   7.415  0.1015 -0.0246 -0.1836
  708POPS   C4A10782  11.095  10.377   7.731 -0.0548  0.0639 -0.2645
  708POPS   C1B10783  10.948  10.391   6.701  0.2417 -0.0927  0.1854
  708POPS   C2B10784  11.306  10.379   6.773  0.1866  0.0191  0.0137
  708POPS   C3B10785  11.616  10.065   6.984 -0.0842 -0.1898 -0.1063
  708POPS   C4B10786  11.741   9.665   6.982  0.1938 -0.2455 -0.4356
  709POPS   CNO10787   4.761  14.430   5.855 -0.1329 -0.3382 -0.1432
  709POPS   PO410788   5.228  14.250   5.751 -0.1316 -0.0987 -0.0201
  709POPS   GL110789   5.100  14.236   6.154  0.0294 -0.1368 -0.3229
  709POPS   GL210790   5.039  14.609   6.411  0.0430  0.2647  0.2407
  709POPS   C1A10791   4.882  14.121   6.533  0.1230 -0.0341  0.0492
  709POPS   D2A10792   4.940  14.004   7.054 -0.2836 -0.0087  0.0671
  709POPS   C3A10793   5.014  14.230   7.331  0.2713 -0.1494  0.1716
  709POPS   C4A10794   5.041  14.589   7.367 -0.1117  0.1147  0.0758
  709POPS   C1B10795   4.854  14.501   6.789  0.3493  0.2386  0.0757
  709POPS   C2B10796   4.589  14.478   7.140 -0.0218 -0.2666 -0.2883
  709POPS   C3B10797   4.134  14.575   7.322  0.0071  0.0956 -0.2659
  709POPS   C4B10798   3.726  14.663   7.059  0.2288 -0.1583 -0.1143
  710POPS   CNO10799   0.159  15.447   5.783  0.1824  0.2867 -0.0215
  710POPS   PO410800   0.039  15.383   6.306  0.1641  0.2144 -0.1272
  710POPS   GL110801  -0.146  15.422   6.695 -0.2860 -0.3264 -0.0610
  710POPS   GL210802  -0.497  15.369   6.745  0.1509  0.0821 -0.0364
  710POPS   C1A10803  -0.041  15.639   6.960  0.3854  0.0146  0.0949
  710POPS   D2A10804  -0.384  15.794   7.278 -0.1637  0.1254 -0.4583
  710POPS   C3A10805  -0.812  15.959   7.078  0.0177  0.2117  0.1293
  710POPS   C4A10806  -1.056  16.124   6.778 -0.3470 -0.1504  0.1701
  710POPS   C1B10807  -0.702  15.479   7.197  0.0677  0.0828  0.0345
  710POPS   C2B10808  -0.813  15.477   7.639  0.0058 -0.1332  0.0008
  710POPS   C3B10809  -1.063  15.622   7.889  0.1003 -0.0952  0.1185
  710POPS   C4B10810  -1.274  15.556   8.286  0.3530 -0.3319  0.3148
  711POPS   CNO10811   5.474   4.494   5.210 -0.0847 -0.1158  0.1163
  711POPS   PO410812   4.968   4.519   5.262 -0.4411 -0.0044 -0.0110
  711POPS   GL110813   5.133   4.442   5.600 -0.0211  0.1990  0.2314
  711POPS   GL210814   4.989   4.404   5.859 -0.1180  0.1694 -0.0864
  711POPS   C1A10815   5.394   4.709   5.889 -0.1071 -0.1149  0.2515
  711POPS   D2A10816   5.691   4.563   6.174  0.1973 -0.2156 -0.1517
  711POPS   C3A10817   5.625   4.584   6.600 -0.2395  0.0215  0.3439
  711POPS   C4A10818   5.547   4.655   7.025  0.0630 -0.1526  0.1586
  711POPS   C1B10819   5.178   4.485   6.267  0.0489  0.0332  0.0305
  711POPS   C2B10820   5.117   4.723   6.743 -0.0092  0.1429  0.1540
  711POPS   C3B10821   4.893   5.053   6.961 -0.0238  0.2664  0.3912
  711POPS   C4B10822   4.849   5.213   7.361 -0.3879 -0.2551 -0.1265
  712POPS   CNO10823  15.173  17.986   5.845 -0.1348 -0.0985  0.2608
  712POPS   PO410824  14.778  18.199   5.791  0.0545 -0.1648 -0.1425
  712POPS   GL110825  14.730  17.837   6.122  0.0659  0.0458 -0.2015
  712POPS   GL210826  14.982  17.660   6.125 -0.0093 -0.0472 -0.2729
  712POPS   C1A10827  14.428  17.811   6.535  0.0278  0.5733  0.0963
  712POPS   D2A10828  14.002  17.855   6.780 -0.2772  0.1124  0.3011
  712POPS   C3A10829  13.936  18.244   7.019 -0.1631 -0.0957  0.1109
  712POPS   C4A10830  13.679  18.685   6.934 -0.1352  0.1423  0.0811
  712POPS   C1B10831  15.039  17.649   6.581  0.0531 -0.0466 -0.2095
  712POPS   C2B10832  15.346  17.755   6.865  0.0497 -0.0312  0.6866
  712POPS   C3B10833  15.155  17.734   7.343  0.0282 -0.2825 -0.3129
  712POPS   C4B10834  15.141  17.765   7.741 -0.2086 -0.0207 -0.2191
  713POPS   CNO10835  13.225   5.083   5.766  0.0643 -0.1764  0.1751
  713POPS   PO410836  13.671   4.888   5.887  0.3903 -0.0313  0.3193
  713POPS   GL110837  13.464   4.990   6.227  0.2481 -0.2108  0.1567
  713POPS   GL210838  13.352   5.209   6.321  0.0547 -0.1820 -0.1208
  713POPS   C1A10839  13.503   5.131   6.732 -0.0350  0.1499  0.0471
  713POPS   D2A10840  13.541   5.234   7.122 -0.2556  0.1507  0.0517
  713POPS   C3A10841  13.271   5.225   7.504 -0.0240 -0.1057 -0.1727
  713POPS   C4A10842  12.956   5.479   7.691 -0.3483  0.2315 -0.1603
  713POPS   C1B10843  13.346   5.618   6.609  0.3519  0.0056  0.0759
  713POPS   C2B10844  13.329   5.744   7.059 -0.1481 -0.1768 -0.2437
  713POPS   C3B10845  13.524   5.648   7.496 -0.2709 -0.5575  0.0441
  713POPS   C4B10846  13.348   5.683   7.934  0.1101 -0.1893  0.1173
  714POPS   CNO10847   0.073   6.472   5.639  0.1273  0.0374 -0.0937
  714POPS   PO410848   0.171   6.822   5.596 -0.2102 -0.1364 -0.1328
  714POPS   GL110849   0.303   6.728   5.961 -0.1964  0.1855 -0.1629
  714POPS   GL210850   0.321   6.960   6.219  0.2588 -0.2135 -0.0489
  714POPS   C1A10851  -0.153   6.718   6.230 -0.3076  0.4286 -0.0145
  714POPS   D2A10852  -0.521   6.904   6.216 -0.1227  0.4008  0.0885
  714POPS   C3A10853  -0.843   6.644   6.016  0.0202  0.0152  0.1956
  714POPS   C4A10854  -1.303   6.621   5.914 -0.3048  0.2541  0.0242
  714POPS   C1B10855   0.088   6.975   6.646 -0.0265 -0.0931 -0.1875
  714POPS   C2B10856   0.041   7.201   7.086  0.2405  0.1136  0.1556
  714POPS   C3B10857  -0.090   7.075   7.598  0.1529  0.0894  0.0102
  714POPS   C4B10858  -0.039   7.124   7.970  0.0121 -0.1554 -0.2015
  715POPS   CNO10859   3.703   5.704   5.080  0.1661  0.1077 -0.1965
  715POPS   PO410860   4.046   5.405   5.262 -0.0848 -0.0341  0.1137
  715POPS   GL110861   4.360   5.327   5.579  0.1222  0.0261  0.1710
  715POPS   GL210862   4.449   5.026   5.756 -0.1032 -0.2838  0.1140
  715POPS   C1A10863   4.831   5.212   5.548  0.0224 -0.1047  0.0017
  715POPS   D2A10864   4.946   4.933   5.862 -0.1869  0.1384  0.0457
  715POPS   C3A10865   4.704   4.814   6.206  0.1195 -0.2089  0.1972
  715POPS   C4A10866   4.594   4.863   6.542  0.0902 -0.0533  0.1405
  715POPS   C1B10867   4.270   5.124   6.205 -0.0043 -0.2069 -0.0143
  715POPS   C2B10868   4.356   5.448   6.457 -0.0757  0.2590 -0.0170
  715POPS   C3B10869   4.575   5.838   6.688 -0.3080  0.2093  0.1009
  715POPS   C4B10870   4.994   5.833   6.713 -0.2391 -0.0789 -0.2702
  716POPS   CNO10871  18.309   8.705   5.226 -0.1414  0.5075 -0.1285
  716POPS   PO410872  18.125   8.967   5.521  0.0589 -0.0432  0.0158
  716POPS   GL110873  18.090   9.033   6.015 -0.0320  0.2104  0.3980
  716POPS   GL210874  17.739   8.879   6.071 -0.3194 -0.2329 -0.1204
  716POPS   C1A10875  18.082   9.194   6.389 -0.1301 -0.0085 -0.0634
  716POPS   D2A10876  18.245   9.264   6.799  0.0591 -0.1275 -0.0645
  716POPS   C3A10877  18.070   9.364   7.175  0.0441  0.0956  0.1803
  716POPS   C4A10878  17.865   9.306   7.595 -0.2875  0.0008 -0.0412
  716POPS   C1B10879  17.576   9.076   6.393 -0.3008  0.1707  0.1743
  716POPS   C2B10880  17.765   9.116   6.814 -0.0937 -0.1114  0.0544
  716POPS   C3B10881  17.577   9.114   7.179  0.1600 -0.1067 -0.1668
  716POPS   C4B10882  17.382   9.125   7.501 -0.0661  0.1568 -0.2013
  717POPS   CNO10883  12.821  12.548   6.196  0.1192  0.0607 -0.0842
  717POPS   PO410884  12.393  12.619   6.308 -0.0072  0.0681 -0.2392
  717POPS   GL110885  12.581  12.657   6.654  0.5637  0.4338  0.0244
  717POPS   GL210886  12.793  12.423   6.719 -0.1981 -0.0333 -0.1591
  717POPS   C1A10887  12.836  12.820   7.037 -0.2425  0.2513  0.0123
  717POPS   D2A10888  13.274  12.859   7.311  0.0479  0.2092 -0.1901
  717POPS   C3A10889  13.107  12.720   7.695 -0.1494 -0.3675  0.0552
  717POPS   C4A10890  12.889  12.451   8.026  0.1721 -0.0929  0.1773
  717POPS   C1B10891  12.554  12.366   7.198  0.1959 -0.0931 -0.2871
  717POPS   C2B10892  12.618  12.682   7.521  0.0263 -0.0654 -0.1548
  717POPS   C3B10893  12.558  12.931   7.829  0.2264 -0.4397  0.0285
  717POPS   C4B10894  12.630  13.213   8.129 -0.0724 -0.2031 -0.0854
  718POPS   CNO10895   2.227   0.054   6.417 -0.0134  0.2447  0.4103
  718POPS   PO410896   2.616   0.189   6.462  0.2376 -0.0902  0.3889
  718POPS   GL110897   2.528   0.461   6.694  0.0884  0.2677 -0.0307
  718POPS   GL210898   2.638   0.397   6.982 -0.2163  0.0814  0.2180
  718POPS   C1A10899   2.341   0.762   7.023  0.0929  0.0016  0.0026
  718POPS   D2A10900   2.168   1.017   7.268  0.0165 -0.1538 -0.2713
  718POPS   C3A10901   2.277   0.897   7.576 -0.0544  0.1788 -0.0656
  718POPS   C4A10902   2.357   0.977   8.002 -0.1664  0.1130 -0.1411
  718POPS   C1B10903   2.502   0.329   7.427 -0.1648  0.1194 -0.1510
  718POPS   C2B10904   2.232   0.309   7.807  0.1716 -0.0242 -0.1106
  718POPS   C3B10905   1.961   0.374   8.147  0.0349  0.1799 -0.0554
  718POPS   C4B10906   1.493   0.348   8.409 -0.1556  0.0259  0.1296
  719POPS   CNO10907   2.941  17.146   6.264  0.1159 -0.0086 -0.2043
  719POPS   PO410908   2.566  17.322   6.094 -0.1307  0.0906  0.1473
  719POPS   GL110909   2.658  17.432   6.526 -0.2494  0.1701  0.0407
  719POPS   GL210910   2.372  17.488   6.726  0.1050  0.0207 -0.2039
  719POPS   C1A10911   2.800  17.189   6.898  0.1251 -0.0991 -0.1114
  719POPS   D2A10912   2.826  17.073   7.317  0.0543  0.3191 -0.0942
  719POPS   C3A10913   3.046  16.806   7.543  0.1048  0.0398 -0.5489
  719POPS   C4A10914   3.426  16.643   7.645 -0.0129 -0.0535 -0.2170
  719POPS   C1B10915   2.442  17.370   7.163 -0.0599  0.3715 -0.1364
  719POPS   C2B10916   2.340  17.211   7.588 -0.1180  0.1250 -0.1823
  719POPS   C3B10917   2.049  17.031   7.770  0.2478 -0.2283  0.0431
  719POPS   C4B10918   1.788  16.909   8.056 -0.0778  0.3878  0.3801
  720POPS   CNO10919   9.486   6.441   5.403 -0.2336  0.2161  0.1250
  720POPS   PO410920   9.426   6.870   5.623 -0.1741 -0.1619 -0.3261
  720POPS   GL110921   9.432   6.592   5.977  0.0063  0.0650  0.1719
  720POPS   GL210922   9.387   6.199   5.858 -0.0497  0.0143 -0.2413
  720POPS   C1A10923   9.547   6.605   6.407 -0.1695 -0.3376  0.3630
  720POPS   D2A10924   9.424   6.520   6.743 -0.3273 -0.0039  0.1142
  720POPS   C3A10925   9.524   6.600   7.186  0.2517  0.1633 -0.1463
  720POPS   C4A10926   9.840   6.406   7.464 -0.2138  0.1191 -0.0795
  720POPS   C1B10927   9.577   6.155   6.251  0.0532 -0.1957 -0.1103
  720POPS   C2B10928   9.548   5.969   6.672 -0.0121 -0.0467 -0.1498
  720POPS   C3B10929   9.312   5.969   7.074 -0.0779 -0.1235  0.1430
  720POPS   C4B10930   9.245   5.851   7.535 -0.1799 -0.1637 -0.0723
  721POPS   CNO10931  15.588   7.995   5.141  0.1663 -0.1167  0.1490
  721POPS   PO410932  15.602   8.065   5.575 -0.1428  0.1424 -0.0153
  721POPS   GL110933  15.665   8.258   6.063 -0.3388 -0.0975 -0.0158
  721POPS   GL210934  15.977   8.308   6.127  0.1006  0.0350 -0.1473
  721POPS   C1A10935  15.677   8.249   6.535 -0.1057  0.0762 -0.1420
  721POPS   D2A10936  15.675   8.059   6.897  0.0660 -0.1765 -0.1622
  721POPS   C3A10937  15.233   7.971   6.913  0.2008 -0.1384  0.2418
  721POPS   C4A10938  14.953   8.014   7.239  0.1418 -0.2010  0.1584
  721POPS   C1B10939  16.139   8.097   6.518 -0.0711  0.0853  0.0688
  721POPS   C2B10940  16.135   7.726   6.819 -0.0637  0.0680  0.2159
  721POPS   C3B10941  15.811   7.510   6.808  0.0679  0.2003 -0.4315
  721POPS   C4B10942  15.553   7.198   6.575 -0.1683 -0.2695 -0.0219
  722POPS   CNO10943   9.287  12.575   5.463 -0.1874  0.0982 -0.1583
  722POPS   PO410944   9.298  12.402   5.924 -0.0527  0.0860 -0.2418
  722POPS   GL110945   9.281  12.276   6.300  0.2599  0.0115  0.3295
  722POPS   GL210946   9.020  12.116   6.352  0.2881 -0.0618 -0.0478
  722POPS   C1A10947   9.314  11.874   6.684  0.1073 -0.1776 -0.2309
  722POPS   D2A10948   9.363  11.507   6.975 -0.0290  0.1053  0.1742
  722POPS   C3A10949   9.197  11.226   7.107 -0.2899 -0.1574  0.4713
  722POPS   C4A10950   9.387  10.907   7.027  0.1173 -0.4503  0.0461
  722POPS   C1B10951   8.839  11.679   6.471 -0.2009 -0.1307  0.0965
  722POPS   C2B10952   8.802  11.512   6.800 -0.1317  0.3832  0.0278
  722POPS   C3B10953   8.974  11.634   7.207 -0.0255 -0.1666  0.0644
  722POPS   C4B10954   9.195  11.703   7.575 -0.2796  0.2957  0.2232
  723POPS   CNO10955  12.440   2.306   5.428  0.0754  0.2173 -0.3792
  723POPS   PO410956  12.328   1.919   5.586 -0.0861  0.1633  0.0550
  723POPS   GL110957  12.222   1.795   6.120  0.0199  0.3093  0.1351
  723POPS   GL210958  12.315   1.574   6.263  0.1954 -0.1793 -0.0287
  723POPS   C1A10959  12.198   1.991   6.549  0.0540 -0.4702  0.1407
  723POPS   D2A10960  12.532   2.196   6.832  0.0923 -0.0132 -0.2993
  723POPS   C3A10961  12.590   1.999   7.284  0.1461 -0.1271  0.0913
  723POPS   C4A10962  12.746   2.052   7.753 -0.1115 -0.1938  0.0192
  723POPS   C1B10963  12.064   1.446   6.569 -0.1544  0.0786  0.0928
  723POPS   C2B10964  11.823   1.497   6.788  0.2196  0.0145  0.4935
  723POPS   C3B10965  11.633   1.802   7.064 -0.0653  0.1967 -0.0183
  723POPS   C4B10966  11.814   1.845   7.434  0.0268 -0.0962  0.0549
  724POPS   CNO10967   4.431   7.107   5.346  0.0261 -0.3664 -0.0340
  724POPS   PO410968   4.193   7.433   5.558  0.2027  0.0748 -0.0087
  724POPS   GL110969   4.032   7.496   5.945  0.0454  0.2892  0.3753
  724POPS   GL210970   4.247   7.461   6.254  0.1630 -0.2920  0.1657
  724POPS   C1A10971   3.758   7.532   6.295  0.1911  0.4128 -0.2040
  724POPS   D2A10972   3.420   7.434   6.579  0.0933 -0.4009 -0.0518
  724POPS   C3A10973   3.001   7.201   6.520 -0.2169 -0.0060 -0.0764
  724POPS   C4A10974   2.567   7.117   6.762  0.2317 -0.3336  0.3284
  724POPS   C1B10975   4.041   7.406   6.738  0.1704  0.3655 -0.0684
  724POPS   C2B10976   3.763   7.570   6.991  0.2448  0.2604  0.1883
  724POPS   C3B10977   3.593   7.550   7.481 -0.2147 -0.4830 -0.0410
  724POPS   C4B10978   3.323   7.720   7.838 -0.1609 -0.1795  0.1610
  725POPS   CNO10979   8.750   7.413   5.242  0.0071  0.2127 -0.0111
  725POPS   PO410980   8.293   7.530   5.360  0.2908 -0.0285 -0.3123
  725POPS   GL110981   8.142   7.494   5.795  0.0325  0.0842 -0.0869
  725POPS   GL210982   8.103   7.120   5.899  0.0885 -0.2515  0.2057
  725POPS   C1A10983   7.844   7.554   6.138  0.0368 -0.1606 -0.0540
  725POPS   D2A10984   7.866   7.549   6.525 -0.3816  0.0156 -0.3109
  725POPS   C3A10985   8.083   7.441   6.923 -0.1440 -0.1853 -0.2049
  725POPS   C4A10986   8.251   7.149   7.271 -0.4103  0.1768 -0.3066
  725POPS   C1B10987   7.598   7.124   6.194 -0.2548  0.1244 -0.2513
  725POPS   C2B10988   7.397   7.433   6.377  0.3620 -0.0688  0.0503
  725POPS   C3B10989   7.491   7.914   6.310  0.2252  0.4997  0.1771
  725POPS   C4B10990   7.148   8.286   6.316  0.2504 -0.2855  0.3009
  726POPS   CNO10991   5.465  10.540   5.817 -0.1396 -0.0357 -0.0070
  726POPS   PO410992   5.416  10.935   5.945  0.5014 -0.1693  0.0590
  726POPS   GL110993   5.459  10.672   6.292  0.0503  0.0469  0.2904
  726POPS   GL210994   5.227  10.443   6.310 -0.1245 -0.0064 -0.0160
  726POPS   C1A10995   5.686  10.780   6.684 -0.1897 -0.1949  0.1491
  726POPS   D2A10996   5.632  11.017   7.138 -0.2705 -0.1549  0.1458
  726POPS   C3A10997   5.989  10.914   7.432 -0.2176 -0.1795 -0.0016
  726POPS   C4A10998   6.298  10.563   7.508 -0.0948 -0.0095  0.1165
  726POPS   C1B10999   5.407  10.405   6.695 -0.3313  0.1782  0.0461
  726POPS   C2B11000   5.562  10.000   6.969  0.3519 -0.3153 -0.1997
  726POPS   C3B11001   5.728   9.947   7.320  0.1952 -0.1444 -0.0696
  726POPS   C4B11002   5.945  10.049   7.710 -0.1612 -0.2063  0.2546
  727POPS   CNO11003  13.627  14.143   5.662 -0.0501  0.1040  0.2497
  727POPS   PO411004  13.612  13.722   5.849 -0.1970  0.1869 -0.2636
  727POPS   GL111005  13.703  13.613   6.286  0.0082 -0.2204 -0.1189
  727POPS   GL211006  13.422  13.792   6.405 -0.1729 -0.0049  0.0861
  727POPS   C1A11007  13.783  13.413   6.578  0.0272  0.3151  0.0601
  727POPS   D2A11008  13.491  13.658   6.866  0.3065  0.0467  0.0055
  727POPS   C3A11009  13.041  13.843   6.931 -0.2207  0.4238 -0.1016
  727POPS   C4A11010  12.835  14.004   7.237 -0.0003 -0.1458  0.1053
  727POPS   C1B11011  13.325  14.159   6.703  0.2093 -0.0568  0.1458
  727POPS   C2B11012  13.183  14.332   7.117 -0.0074  0.0998  0.1578
  727POPS   C3B11013  12.880  14.490   7.512 -0.0607  0.1734  0.1813
  727POPS   C4B11014  12.530  14.300   7.878  0.2590 -0.0344  0.3022
  728POPS   CNO11015  11.915  16.412   6.401 -0.0511  0.2435  0.1096
  728POPS   PO411016  12.069  15.936   6.319 -0.0559 -0.1541  0.3088
  728POPS   GL111017  12.140  15.904   6.794  0.0704 -0.1695  0.1006
  728POPS   GL211018  12.212  16.151   6.738 -0.0022 -0.0908 -0.1518
  728POPS   C1A11019  12.138  15.974   7.179  0.2852  0.0358 -0.6148
  728POPS   D2A11020  12.363  16.334   7.306 -0.1268 -0.3390 -0.1850
  728POPS   C3A11021  12.387  16.719   7.179  0.1509 -0.0343  0.1033
  728POPS   C4A11022  11.986  17.004   6.987 -0.4169  0.0706  0.0862
  728POPS   C1B11023  11.976  16.447   6.975 -0.4338 -0.3417 -0.3162
  728POPS   C2B11024  11.835  16.668   7.319  0.0635  0.0328  0.2295
  728POPS   C3B11025  11.663  17.120   7.394 -0.2147 -0.0815  0.5450
  728POPS   C4B11026  11.684  17.561   7.524  0.2845  0.4022 -0.2879
  729POPS   CNO11027  12.772   7.145   5.205 -0.1380 -0.2394  0.0586
  729POPS   PO411028  13.121   7.269   5.184 -0.3772  0.1420 -0.1257
  729POPS   GL111029  13.060   7.354   5.680 -0.0975  0.0960  0.0424
  729POPS   GL211030  12.758   7.418   5.582  0.2936  0.0401 -0.0817
  729POPS   C1A11031  13.149   7.373   6.107 -0.2757 -0.1229  0.3560
  729POPS   D2A11032  13.050   7.069   6.416 -0.1243  0.0989 -0.2263
  729POPS   C3A11033  13.153   7.152   6.913  0.0535 -0.2039  0.2472
  729POPS   C4A11034  13.479   7.391   7.021  0.0722  0.1382 -0.0863
  729POPS   C1B11035  12.655   7.264   5.999 -0.2936  0.2247 -0.2160
  729POPS   C2B11036  12.614   7.297   6.460  0.1401 -0.1816 -0.0840
  729POPS   C3B11037  12.594   7.188   6.901 -0.2078  0.0449 -0.0377
  729POPS   C4B11038  12.457   7.254   7.249  0.0745 -0.0427 -0.0548
  730POPS   CNO11039  14.496  13.419   5.689 -0.2761 -0.0965  0.1128
  730POPS   PO411040  14.799  13.357   5.896  0.1794 -0.0084  0.0968
  730POPS   GL111041  14.599  13.241   6.211 -0.2504 -0.1294 -0.1379
  730POPS   GL211042  14.272  13.042   6.177 -0.0118  0.0682  0.2943
  730POPS   C1A11043  14.501  13.371   6.586 -0.0740  0.3407 -0.2328
  730POPS   D2A11044  14.553  13.479   7.088 -0.2472 -0.0615 -0.1534
  730POPS   C3A11045  14.754  13.741   7.336 -0.0566 -0.1256  0.5640
  730POPS   C4A11046  14.860  14.087   7.659  0.0104  0.0411 -0.0204
  730POPS   C1B11047  13.883  12.882   6.495 -0.0377  0.2028  0.1582
  730POPS   C2B11048  13.756  12.566   6.886 -0.0549  0.0914  0.1002
  730POPS   C3B11049  13.569  12.317   7.308 -0.2671  0.2612 -0.1117
  730POPS   C4B11050  13.701  12.212   7.607 -0.0843 -0.1881 -0.0652
  731POPS   CNO11051  12.644   8.408   5.732 -0.3475 -0.2808 -0.0605
  731POPS   PO411052  12.761   8.743   5.624 -0.3945 -0.1844  0.0060
  731POPS   GL111053  12.738   8.877   5.971 -0.0012 -0.0856  0.0644
  731POPS   GL211054  12.389   8.738   6.032  0.0680 -0.1255  0.1048
  731POPS   C1A11055  12.784   9.252   6.265 -0.2051 -0.1394  0.0712
  731POPS   D2A11056  12.788   9.174   6.678  0.1693  0.1130  0.0345
  731POPS   C3A11057  13.005   9.012   7.014  0.4977  0.1758  0.3533
  731POPS   C4A11058  13.386   8.764   7.179  0.2243 -0.0937 -0.3945
  731POPS   C1B11059  12.594   8.781   6.406  0.3537  0.0572 -0.4267
  731POPS   C2B11060  12.756   8.704   6.731 -0.2785 -0.0070  0.0050
  731POPS   C3B11061  12.955   8.501   6.934 -0.2694  0.3294 -0.2169
  731POPS   C4B11062  13.198   8.259   7.138 -0.1251 -0.2106 -0.1798
  732POPS   CNO11063   6.292   0.061   5.411 -0.1323  0.1782 -0.1332
  732POPS   PO411064   5.955  -0.083   5.632 -0.1444  0.0452 -0.3591
  732POPS   GL111065   6.223   0.003   6.021  0.1475  0.0103  0.0948
  732POPS   GL211066   6.053   0.039   6.447 -0.1131  0.0011 -0.2195
  732POPS   C1A11067   6.370  -0.387   6.304  0.0933 -0.1709  0.0630
  732POPS   D2A11068   6.558  -0.312   6.600  0.1506 -0.0783 -0.3031
  732POPS   C3A11069   6.429  -0.543   6.929  0.1078 -0.0494 -0.0848
  732POPS   C4A11070   6.327  -0.862   6.768  0.0906  0.2003 -0.3895
  732POPS   C1B11071   6.132  -0.050   6.902 -0.3930  0.0237 -0.0749
  732POPS   C2B11072   6.332  -0.066   7.235  0.3847  0.1006  0.0443
  732POPS   C3B11073   6.672  -0.023   7.554 -0.2068  0.1946  0.4036
  732POPS   C4B11074   6.499  -0.201   7.915  0.0567 -0.1583 -0.0481
  733POPS   CNO11075  15.870   0.118   5.210 -0.1720  0.0144 -0.0601
  733POPS   PO411076  16.193   0.252   5.415 -0.1023  0.2573 -0.2957
  733POPS   GL111077  16.184   0.495   5.790 -0.0849  0.1417  0.0990
  733POPS   GL211078  16.076   0.776   5.929  0.1395 -0.2139 -0.1996
  733POPS   C1A11079  16.040   0.480   6.351 -0.2138 -0.2723 -0.0066
  733POPS   D2A11080  16.340   0.530   6.677 -0.1145 -0.1374  0.1393
  733POPS   C3A11081  16.056   0.550   7.029  0.1529 -0.0203  0.1990
  733POPS   C4A11082  16.136   0.546   7.409  0.1698  0.1790  0.0566
  733POPS   C1B11083  15.865   0.930   6.281 -0.1568  0.3922  0.1001
  733POPS   C2B11084  15.792   0.864   6.740 -0.3397  0.1698  0.1454
  733POPS   C3B11085  15.831   0.994   7.186  0.1058  0.3879 -0.1520
  733POPS   C4B11086  15.695   0.926   7.633  0.0138 -0.3470 -0.3059
  734POPS   CNO11087   7.069  14.441   5.978  0.2860  0.0555 -0.0488
  734POPS   PO411088   7.327  14.577   6.304 -0.1897  0.0562 -0.1534
  734POPS   GL111089   7.571  14.756   6.636  0.1201 -0.0994 -0.1895
  734POPS   GL211090   7.704  15.093   6.603 -0.0654 -0.1665 -0.0322
  734POPS   C1A11091   7.623  14.972   7.095  0.0391 -0.1580 -0.0264
  734POPS   D2A11092   7.326  14.990   7.500 -0.2104  0.0747  0.0934
  734POPS   C3A11093   7.647  14.990   7.857  0.1528 -0.3533 -0.2187
  734POPS   C4A11094   7.709  14.911   8.282 -0.1007 -0.3410  0.0345
  734POPS   C1B11095   8.096  15.116   6.833 -0.0993  0.2208 -0.0694
  734POPS   C2B11096   8.077  15.016   7.321  0.1204 -0.2307  0.0562
  734POPS   C3B11097   8.216  15.193   7.769 -0.0752  0.0993 -0.1702
  734POPS   C4B11098   8.359  15.063   8.167  0.0510 -0.0794 -0.1931
  735POPS   CNO11099   3.326  10.124   5.576 -0.2118 -0.0972 -0.0825
  735POPS   PO411100   3.290  10.144   6.046  0.2782  0.0787  0.1108
  735POPS   GL111101   3.208  10.297   6.430 -0.0411 -0.2681 -0.0376
  735POPS   GL211102   3.178  10.653   6.339  0.0305 -0.1441  0.0670
  735POPS   C1A11103   3.025  10.321   6.813  0.0986 -0.1672 -0.2222
  735POPS   D2A11104   2.763  10.055   7.117  0.3277 -0.0491 -0.0578
  735POPS   C3A11105   2.793   9.659   7.444 -0.1444 -0.1536  0.3581
  735POPS   C4A11106   2.701   9.406   7.806  0.1603 -0.0236 -0.0239
  735POPS   C1B11107   3.437  10.711   6.682  0.0374 -0.3063  0.2054
  735POPS   C2B11108   3.392  10.756   7.047  0.2038 -0.0563 -0.0919
  735POPS   C3B11109   3.421  10.649   7.487 -0.1306  0.3606 -0.0288
  735POPS   C4B11110   3.191  10.805   7.855 -0.0210  0.5020 -0.2200
  736POPS   CNO11111   9.592  10.306   5.452 -0.0098 -0.1236 -0.1289
  736POPS   PO411112   9.089  10.398   5.626 -0.0301 -0.0794 -0.0167
  736POPS   GL111113   8.961  10.106   5.914  0.0608 -0.0159 -0.0735
  736POPS   GL211114   8.788  10.332   6.033  0.1448  0.0221  0.3511
  736POPS   C1A11115   9.004   9.988   6.348  0.2017  0.1732  0.2190
  736POPS   D2A11116   8.714   9.853   6.619 -0.0686  0.0340 -0.3335
  736POPS   C3A11117   8.546  10.028   7.045  0.1732  0.1426  0.1803
  736POPS   C4A11118   8.459   9.924   7.369  0.1527 -0.0755  0.1055
  736POPS   C1B11119   8.508  10.365   6.332  0.5174 -0.0386 -0.2221
  736POPS   C2B11120   8.560  10.378   6.722 -0.1789 -0.0926 -0.0299
  736POPS   C3B11121   8.465  10.567   7.227 -0.1785 -0.4834 -0.1084
  736POPS   C4B11122   8.507  10.881   7.574  0.1618  0.2771 -0.2478
  737POPS   CNO11123  16.987   3.584   5.931  0.0989 -0.0851 -0.0245
  737POPS   PO411124  17.050   3.206   6.061  0.2336 -0.1545  0.1232
  737POPS   GL111125  17.126   3.453   6.421 -0.1263  0.0300  0.1933
  737POPS   GL211126  17.426   3.368   6.546  0.2100  0.0260  0.4233
  737POPS   C1A11127  17.072   3.661   6.724  0.1372  0.3376 -0.0518
  737POPS   D2A11128  16.791   3.750   7.182  0.2843  0.3243 -0.2905
  737POPS   C3A11129  16.683   4.147   7.417 -0.0947 -0.1388  0.0699
  737POPS   C4A11130  16.576   4.380   7.742  0.0008  0.0635 -0.1329
  737POPS   C1B11131  17.267   3.193   6.875 -0.0121 -0.1546 -0.0013
  737POPS   C2B11132  17.366   3.071   7.274  0.0067 -0.2941  0.0985
  737POPS   C3B11133  17.327   2.860   7.727 -0.1149 -0.0052  0.2774
  737POPS   C4B11134  17.218   3.059   8.122  0.1044 -0.0503  0.1825
  738POPS   CNO11135  12.595  15.689   5.767 -0.1024  0.0826  0.0381
  738POPS   PO411136  12.575  15.814   6.052  0.1603 -0.0002 -0.2374
  738POPS   GL111137  12.508  15.782   6.424  0.2170 -0.1912  0.1288
  738POPS   GL211138  12.685  15.963   6.575 -0.2018 -0.3323  0.1969
  738POPS   C1A11139  12.474  15.491   6.732 -0.1754 -0.4121  0.1709
  738POPS   D2A11140  12.721  15.260   7.142 -0.3460 -0.0505  0.0463
  738POPS   C3A11141  13.117  15.495   7.298 -0.1127 -0.0251  0.0358
  738POPS   C4A11142  13.309  15.193   7.621 -0.1919 -0.1294 -0.1052
  738POPS   C1B11143  12.671  16.220   6.941 -0.0503  0.1783 -0.2093
  738POPS   C2B11144  12.878  16.299   7.262  0.1566 -0.0432  0.0588
  738POPS   C3B11145  12.745  16.213   7.620 -0.3078  0.4796 -0.0424
  738POPS   C4B11146  12.566  16.380   8.049  0.0941 -0.2455 -0.0957
  739POPS   CNO11147  10.555  11.686   5.463  0.3304  0.0770 -0.3037
  739POPS   PO411148  10.463  11.751   5.913 -0.2041 -0.0074 -0.1812
  739POPS   GL111149  10.448  11.865   6.372 -0.4251 -0.1132 -0.0940
  739POPS   GL211150  10.436  11.595   6.472  0.4521  0.1459 -0.0000
  739POPS   C1A11151  10.258  12.130   6.806 -0.0261  0.0585  0.2801
  739POPS   D2A11152  10.157  12.067   7.211 -0.0024  0.0335 -0.2515
  739POPS   C3A11153   9.805  12.233   7.468 -0.1217  0.3546  0.1837
  739POPS   C4A11154   9.433  12.418   7.620 -0.2604 -0.0180 -0.2536
  739POPS   C1B11155  10.311  11.652   6.948 -0.0817 -0.3259 -0.0557
  739POPS   C2B11156  10.115  11.541   7.248  0.1130 -0.0241  0.0427
  739POPS   C3B11157  10.026  11.748   7.610 -0.0676 -0.2379  0.3134
  739POPS   C4B11158  10.047  12.170   7.916  0.2057  0.0343  0.0973
  740POPS   CNO11159  15.815   4.312   5.598 -0.0729 -0.1450  0.2295
  740POPS   PO411160  15.803   4.544   5.880 -0.0279  0.1853  0.0836
  740POPS   GL111161  16.070   4.393   6.117 -0.0696 -0.2245  0.1354
  740POPS   GL211162  16.398   4.144   6.101 -0.2321 -0.0014 -0.0567
  740POPS   C1A11163  16.120   4.677   6.432 -0.1125 -0.0018  0.3814
  740POPS   D2A11164  16.009   5.165   6.509 -0.0593 -0.0362 -0.2798
  740POPS   C3A11165  15.771   5.422   6.862 -0.2626  0.1331 -0.3829
  740POPS   C4A11166  15.736   5.198   7.302 -0.0464 -0.1489 -0.2129
  740POPS   C1B11167  16.317   4.138   6.526 -0.0587  0.0833  0.1196
  740POPS   C2B11168  16.299   4.324   6.806 -0.2787 -0.0176  0.1173
  740POPS   C3B11169  16.535   4.554   7.170  0.0338 -0.0613 -0.1147
  740POPS   C4B11170  16.647   4.904   7.513 -0.1456 -0.1870  0.1982
  741POPS   CNO11171  14.111  10.649   5.609  0.0167 -0.0264 -0.2036
  741POPS   PO411172  14.144  10.185   5.740 -0.2226 -0.0624  0.4112
  741POPS   GL111173  14.177  10.403   6.132  0.1559 -0.0629 -0.0689
  741POPS   GL211174  14.432  10.288   6.278  0.1238 -0.2143  0.1818
  741POPS   C1A11175  14.036  10.586   6.480 -0.0584 -0.0212 -0.0358
  741POPS   D2A11176  14.078  10.956   6.802  0.2317  0.0321  0.2501
  741POPS   C3A11177  13.800  11.063   7.086  0.2774  0.2616  0.2462
  741POPS   C4A11178  13.575  11.174   7.383  0.4079  0.1854  0.2764
  741POPS   C1B11179  14.463  10.482   6.662 -0.0625  0.0465  0.2331
  741POPS   C2B11180  14.500  10.738   6.997 -0.0224  0.1561  0.0015
  741POPS   C3B11181  14.367  11.213   7.085 -0.0168  0.1085 -0.3774
  741POPS   C4B11182  14.476  11.353   7.456 -0.0221  0.1908  0.0552
  742POPS   CNO11183   8.399   7.014   5.448 -0.0445 -0.2704 -0.0119
  742POPS   PO411184   8.649   7.162   5.746  0.0346  0.2237 -0.2590
  742POPS   GL111185   8.930   6.864   5.934 -0.1282  0.1115  0.0567
  742POPS   GL211186   9.127   7.078   5.974 -0.1925  0.0104 -0.2138
  742POPS   C1A11187   9.072   6.597   6.349  0.1536  0.0732  0.3974
  742POPS   D2A11188   8.972   6.382   6.679 -0.0116  0.2696 -0.1958
  742POPS   C3A11189   9.023   6.426   7.099  0.3848  0.0954  0.2101
  742POPS   C4A11190   9.177   6.379   7.429 -0.0191 -0.0424  0.0201
  742POPS   C1B11191   9.049   7.332   6.217 -0.1938 -0.3521  0.0590
  742POPS   C2B11192   8.828   7.581   6.491  0.1285  0.2156 -0.1052
  742POPS   C3B11193   8.908   7.957   6.637  0.0700  0.2016  0.1694
  742POPS   C4B11194   9.162   8.103   6.867  0.0112 -0.2840 -0.2752
  743POPS   CNO11195  16.372   5.954   4.943 -0.2507  0.1192 -0.0223
  743POPS   PO411196  16.402   5.990   5.415 -0.0009 -0.2275 -0.3835
  743POPS   GL111197  16.308   5.690   5.729 -0.1978  0.2022  0.1175
  743POPS   GL211198  16.067   5.522   5.862  0.1092  0.1212 -0.2284
  743POPS   C1A11199  16.680   5.472   5.944  0.2227  0.0047  0.0466
  743POPS   D2A11200  16.925   5.035   6.086 -0.0304 -0.1565  0.1090
  743POPS   C3A11201  17.051   4.946   6.470 -0.2978 -0.1286 -0.0308
  743POPS   C4A11202  16.894   4.872   6.925 -0.0754 -0.1383 -0.1624
  743POPS   C1B11203  16.227   5.550   6.219  0.2221  0.2112  0.0092
  743POPS   C2B11204  16.342   5.590   6.648 -0.0072  0.1413 -0.2444
  743POPS   C3B11205  16.301   5.469   7.061 -0.1069 -0.1964 -0.0405
  743POPS   C4B11206  16.465   5.370   7.363  0.1647 -0.1354  0.0508
  744POPS   CNO11207  11.517   0.076   5.713 -0.0269  0.1935 -0.0062
  744POPS   PO411208  11.165   0.065   5.860 -0.3363  0.1614 -0.0182
  744POPS   GL111209  11.258   0.224   6.280  0.0702  0.3096  0.0401
  744POPS   GL211210  11.575   0.336   6.197  0.1379  0.4622  0.2151
  744POPS   C1A11211  11.081   0.324   6.698 -0.0495  0.1594 -0.3255
  744POPS   D2A11212  10.844   0.506   7.059  0.1540 -0.1112 -0.0656
  744POPS   C3A11213  10.695   0.240   7.388 -0.1137  0.4186  0.0577
  744POPS   C4A11214  10.613   0.193   7.796  0.0377  0.0735 -0.0876
  744POPS   C1B11215  11.673   0.058   6.573 -0.0404  0.1052 -0.0695
  744POPS   C2B11216  11.957   0.341   6.868 -0.0665 -0.1111  0.1167
  744POPS   C3B11217  12.047   0.338   7.318  0.2538 -0.0146 -0.1069
  744POPS   C4B11218  11.983   0.370   7.716  0.2472 -0.2293  0.0678
  745POPS   CNO11219   4.185  13.673   6.388 -0.0912  0.1035  0.2189
  745POPS   PO411220   4.478  13.525   6.037 -0.0594  0.1653  0.1482
  745POPS   GL111221   4.229  13.145   6.216 -0.3079  0.1010 -0.4926
  745POPS   GL211222   4.304  12.890   6.485  0.1293 -0.1917  0.3612
  745POPS   C1A11223   4.117  13.274   6.719 -0.0475 -0.1738 -0.1236
  745POPS   D2A11224   3.919  13.694   6.854 -0.1658  0.1709 -0.3548
  745POPS   C3A11225   3.921  13.890   7.332  0.0912  0.1694  0.1414
  745POPS   C4A11226   3.828  14.211   7.750 -0.1159  0.1990 -0.1043
  745POPS   C1B11227   4.327  12.833   6.880  0.3529  0.1255  0.0057
  745POPS   C2B11228   4.087  13.030   7.189  0.0581 -0.1312 -0.4266
  745POPS   C3B11229   4.046  13.128   7.540  0.0378 -0.0083  0.1824
  745POPS   C4B11230   4.246  13.269   7.962 -0.3390  0.0053 -0.1406
  746POPS   CNO11231   5.531   1.718   5.464  0.0864  0.0534 -0.0775
  746POPS   PO411232   5.634   2.077   5.812  0.2300  0.1084 -0.2908
  746POPS   GL111233   5.991   2.117   6.036 -0.0360  0.0974  0.0277
  746POPS   GL211234   6.261   2.046   5.810  0.0229  0.0370 -0.1171
  746POPS   C1A11235   6.159   1.915   6.329 -0.0600 -0.4810  0.0252
  746POPS   D2A11236   6.279   1.881   6.744  0.3529 -0.0315 -0.0185
  746POPS   C3A11237   6.554   2.170   6.922  0.2322  0.1208 -0.0792
  746POPS   C4A11238   6.389   2.419   7.282  0.0732 -0.1570 -0.1447
  746POPS   C1B11239   6.606   1.841   6.097  0.1642  0.1379  0.0619
  746POPS   C2B11240   6.683   1.995   6.484  0.1225  0.0272 -0.1096
  746POPS   C3B11241   6.736   2.426   6.533  0.3261 -0.1945 -0.1933
  746POPS   C4B11242   6.778   2.592   6.944  0.2844 -0.1281 -0.3196
  747POPS   CNO11243   1.681   0.590   6.357 -0.0346  0.0400  0.0238
  747POPS   PO411244   1.783   0.129   6.129 -0.3387 -0.0928  0.0282
  747POPS   GL111245   1.676   0.004   6.547  0.0850 -0.1366 -0.2407
  747POPS   GL211246   1.865   0.267   6.654 -0.1332  0.0181  0.1401
  747POPS   C1A11247   1.579   0.026   7.024  0.2556 -0.2681 -0.2405
  747POPS   D2A11248   1.695  -0.069   7.359  0.2013 -0.0858 -0.2176
  747POPS   C3A11249   1.818  -0.417   7.569 -0.1272 -0.0316 -0.2272
  747POPS   C4A11250   1.966  -0.671   7.886  0.0409 -0.0632  0.1168
  747POPS   C1B11251   2.019   0.275   7.059 -0.0390  0.0103  0.2015
  747POPS   C2B11252   1.964   0.474   7.419  0.3540 -0.3911  0.0451
  747POPS   C3B11253   1.818   0.770   7.663 -0.1261 -0.1080 -0.0315
  747POPS   C4B11254   1.896   1.128   7.967 -0.1818  0.1580 -0.1063
  748POPS   CNO11255  17.931   2.321   5.752 -0.0736 -0.0613  0.1598
  748POPS   PO411256  17.998   2.115   6.104  0.0166  0.0282 -0.1641
  748POPS   GL111257  17.852   2.069   6.522 -0.3133  0.2642  0.2107
  748POPS   GL211258  17.556   1.828   6.520 -0.2611  0.0287  0.0334
  748POPS   C1A11259  17.869   1.942   6.917 -0.0853 -0.1115  0.1428
  748POPS   D2A11260  17.734   1.929   7.322 -0.0207 -0.2725 -0.2946
  748POPS   C3A11261  17.404   1.798   7.532 -0.1227  0.1356 -0.0258
  748POPS   C4A11262  17.176   1.523   7.828 -0.2722 -0.2056 -0.4194
  748POPS   C1B11263  17.281   2.066   6.783 -0.0556  0.2252  0.1554
  748POPS   C2B11264  17.144   2.200   7.198 -0.1910  0.1015 -0.1648
  748POPS   C3B11265  17.298   2.427   7.491 -0.3478  0.3684  0.1980
  748POPS   C4B11266  17.492   2.432   7.863 -0.2259  0.3678  0.0515
  749POPS   CNO11267   6.566  15.278   6.771  0.2058  0.1712  0.1855
  749POPS   PO411268   6.316  15.450   6.549  0.0645 -0.1404  0.1392
  749POPS   GL111269   6.067  15.594   6.867 -0.2510  0.0408  0.0670
  749POPS   GL211270   6.327  15.809   6.936  0.2155  0.1927  0.0565
  749POPS   C1A11271   6.236  15.356   7.235  0.1711  0.2167 -0.2949
  749POPS   D2A11272   6.246  15.061   7.668  0.0938 -0.0167  0.1338
  749POPS   C3A11273   5.980  14.741   7.940 -0.4872  0.4260  0.3414
  749POPS   C4A11274   5.687  14.581   8.186  0.0587 -0.0442 -0.1213
  749POPS   C1B11275   6.274  15.944   7.421 -0.0924 -0.1262 -0.1545
  749POPS   C2B11276   6.440  16.076   7.921 -0.0626  0.2103  0.1306
  749POPS   C3B11277   6.386  15.827   8.250 -0.1715  0.1908  0.2755
  749POPS   C4B11278   6.276  15.667   8.670 -0.2751  0.3938 -0.1983
  750POPS   CNO11279   3.406   1.514   6.086  0.2451  0.2213 -0.4114
  750POPS   PO411280   3.589   1.013   6.031  0.1849 -0.0529 -0.0014
  750POPS   GL111281   3.682   1.055   6.377 -0.4495  0.1148  0.0580
  750POPS   GL211282   3.525   0.836   6.616 -0.0698 -0.1056 -0.0044
  750POPS   C1A11283   4.004   1.326   6.584 -0.1461  0.1931  0.1824
  750POPS   D2A11284   3.793   1.557   6.926  0.3398 -0.0438  0.0845
  750POPS   C3A11285   3.731   1.757   7.364 -0.2269  0.1366  0.1501
  750POPS   C4A11286   3.836   1.761   7.731  0.1047 -0.1385  0.1023
  750POPS   C1B11287   3.869   0.926   6.895 -0.0921 -0.0875 -0.0831
  750POPS   C2B11288   4.016   1.165   7.234 -0.1626 -0.0532  0.0204
  750POPS   C3B11289   4.208   1.167   7.701  0.0442  0.6482 -0.0077
  750POPS   C4B11290   4.351   1.553   7.913  0.1112 -0.0015 -0.0142
  751POPS   CNO11291  12.868   4.404   5.275  0.1582 -0.2854 -0.2418
  751POPS   PO411292  12.778   4.298   5.650  0.3963 -0.0124  0.2128
  751POPS   GL111293  12.791   4.308   6.009 -0.1203  0.0727 -0.1542
  751POPS   GL211294  12.529   4.522   6.094 -0.0765 -0.0536  0.4099
  751POPS   C1A11295  12.922   4.117   6.328 -0.4645 -0.1246 -0.1032
  751POPS   D2A11296  12.754   4.163   6.748 -0.2482 -0.1596 -0.4115
  751POPS   C3A11297  12.913   4.268   7.180 -0.2392  0.0419  0.0334
  751POPS   C4A11298  12.851   4.445   7.650  0.0416  0.3695  0.2602
  751POPS   C1B11299  12.730   4.579   6.418  0.0498  0.0755 -0.1078
  751POPS   C2B11300  12.709   4.643   6.797 -0.3162  0.2027 -0.2776
  751POPS   C3B11301  12.838   4.906   7.192 -0.1411 -0.0024  0.0160
  751POPS   C4B11302  12.921   4.912   7.581 -0.0840  0.0764 -0.2212
  752YOPS   CNO11303   8.656   2.963   5.373  0.0750  0.2038 -0.1189
  752YOPS   PO411304   8.511   2.522   5.428  0.2390  0.3983  0.4077
  752YOPS   GL111305   8.549   2.533   5.902 -0.3029 -0.2505 -0.1244
  752YOPS   GL211306   8.847   2.622   6.107 -0.1810  0.1882  0.2152
  752YOPS   C1A11307   8.270   2.679   6.270  0.0793 -0.2157  0.1911
  752YOPS   D2A11308   8.230   2.653   6.630  0.2806 -0.0461 -0.0276
  752YOPS   C3A11309   8.042   2.702   6.999 -0.0820  0.0143 -0.0452
  752YOPS   C4A11310   8.018   2.703   7.444 -0.0521 -0.0833  0.0948
  752YOPS   C1B11311   8.766   2.769   6.445 -0.3429  0.1436 -0.1205
  752YOPS   C2B11312   8.625   2.888   6.729  0.0123  0.1993  0.2578
  752YOPS   D3B11313   8.274   3.177   6.912 -0.2077 -0.1400 -0.1039
  752YOPS   C4B11314   7.963   3.199   7.237  0.0150 -0.0676 -0.0462
  753YOPS   CNO11315  11.059   9.217   5.185  0.0079  0.1744  0.0985
  753YOPS   PO411316  11.482   9.039   5.455  0.1266 -0.2767  0.3026
  753YOPS   GL111317  11.349   8.766   5.643 -0.1179 -0.0530  0.0492
  753YOPS   GL211318  11.298   8.524   5.489  0.4168  0.1422  0.2715
  753YOPS   C1A11319  11.275   8.818   6.072 -0.1378 -0.1010  0.1988
  753YOPS   D2A11320  11.067   9.071   6.441  0.2447 -0.1557  0.0319
  753YOPS   C3A11321  11.065   9.136   6.804  0.0324  0.2211  0.0409
  753YOPS   C4A11322  10.818   8.799   7.071 -0.0674  0.3769  0.2786
  753YOPS   C1B11323  10.886   8.619   5.739  0.0601  0.0248  0.0413
  753YOPS   C2B11324  10.889   8.439   6.139  0.2824  0.0781  0.0349
  753YOPS   D3B11325  11.073   8.160   6.499  0.0391 -0.2961 -0.4495
  753YOPS   C4B11326  10.948   8.320   6.935 -0.2610  0.0950 -0.1587
  754YOPS   CNO11327  18.188   3.878   5.967 -0.0809  0.1195  0.0080
  754YOPS   PO411328  18.373   3.466   6.183 -0.0034  0.0215 -0.2879
  754YOPS   GL111329  18.148   3.662   6.432  0.0455 -0.1500  0.0953
  754YOPS   GL211330  17.731   3.741   6.416  0.3810  0.0482 -0.0429
  754YOPS   C1A11331  18.010   3.848   6.854 -0.3671 -0.0474  0.1144
  754YOPS   D2A11332  18.084   3.888   7.271  0.0073  0.2406  0.1971
  754YOPS   C3A11333  17.979   4.070   7.537  0.0433 -0.0653 -0.0272
  754YOPS   C4A11334  17.850   3.955   7.945  0.0736 -0.5195 -0.0478
  754YOPS   C1B11335  17.477   3.729   6.908 -0.3884  0.1012  0.3609
  754YOPS   C2B11336  17.198   3.987   7.265  0.0283  0.0966 -0.0465
  754YOPS   D3B11337  16.985   3.801   7.623  0.3646  0.0291 -0.1849
  754YOPS   C4B11338  16.971   3.698   8.089 -0.1356  0.2681 -0.0596
  755YOPS   CNO11339   6.755  14.089   6.161  0.0752 -0.0934 -0.0822
  755YOPS   PO411340   7.103  14.130   6.449 -0.2010  0.1274 -0.0241
  755YOPS   GL111341   7.174  14.433   6.759 -0.0538  0.0634 -0.2055
  755YOPS   GL211342   7.092  14.832   6.779  0.3356 -0.1179  0.1141
  755YOPS   C1A11343   7.210  14.522   7.237  0.0022  0.0787  0.0574
  755YOPS   D2A11344   7.149  14.305   7.646 -0.2063  0.3195  0.1169
  755YOPS   C3A11345   7.133  14.030   7.911 -0.0904  0.2348  0.0900
  755YOPS   C4A11346   7.474  13.809   7.756 -0.1176  0.0911  0.0031
  755YOPS   C1B11347   7.013  15.054   7.077 -0.2572  0.1081  0.0453
  755YOPS   C2B11348   6.856  15.239   7.546 -0.0610 -0.0600 -0.0391
  755YOPS   D3B11349   6.808  15.222   7.999  0.3035 -0.0143  0.1091
  755YOPS   C4B11350   6.845  14.969   8.383  0.0415 -0.2122 -0.0071
  756YOPS   CNO11351   5.835  12.660   5.976 -0.1711 -0.0476  0.1254
  756YOPS   PO411352   5.826  12.901   6.409 -0.2749  0.0748  0.0434
  756YOPS   GL111353   5.505  12.899   6.761  0.4021  0.3354 -0.3115
  756YOPS   GL211354   5.597  13.198   6.854  0.1416 -0.0493 -0.0099
  756YOPS   C1A11355   5.312  12.982   7.189  0.0072 -0.2311  0.2563
  756YOPS   D2A11356   5.364  12.779   7.624 -0.0238  0.0118 -0.1209
  756YOPS   C3A11357   5.316  12.554   7.998 -0.0029  0.2119  0.2924
  756YOPS   C4A11358   5.004  12.385   8.296  0.3042  0.1927  0.0004
  756YOPS   C1B11359   5.785  13.123   7.266 -0.0804  0.5263  0.2489
  756YOPS   C2B11360   5.803  13.001   7.703 -0.0816  0.3483 -0.1142
  756YOPS   D3B11361   6.141  13.046   8.036  0.2444 -0.3072 -0.1437
  756YOPS   C4B11362   5.958  13.154   8.436  0.0136  0.2195  0.0079
  757YOPS   CNO11363   3.888   1.390   6.059 -0.3218  0.0942  0.4084
  757YOPS   PO411364   3.798   1.718   5.804  0.0011  0.0990  0.0024
  757YOPS   GL111365   3.903   1.851   6.274  0.0960 -0.0445 -0.0552
  757YOPS   GL211366   4.199   1.838   6.232  0.0602  0.5337 -0.1863
  757YOPS   C1A11367   3.723   1.969   6.668  0.1668  0.2478  0.0433
  757YOPS   D2A11368   3.369   1.804   7.003 -0.3085  0.0705  0.1963
  757YOPS   C3A11369   3.054   1.844   7.308 -0.2370 -0.2202 -0.3131
  757YOPS   C4A11370   2.960   1.551   7.594 -0.0078  0.0516 -0.3205
  757YOPS   C1B11371   4.333   2.058   6.727  0.2422 -0.1067  0.4550
  757YOPS   C2B11372   4.115   2.152   7.014  0.3677 -0.0471 -0.1179
  757YOPS   D3B11373   3.693   2.191   7.161  0.0140  0.0349  0.1747
  757YOPS   C4B11374   3.428   2.195   7.495 -0.0801  0.2619 -0.3470
  758YOPS   CNO11375   9.873   9.287   5.657 -0.0743  0.0715  0.0073
  758YOPS   PO411376  10.108   9.102   5.406  0.1628 -0.1672 -0.1002
  758YOPS   GL111377  10.463   9.158   5.697  0.2030 -0.0804  0.1213
  758YOPS   GL211378  10.326   9.274   5.921 -0.2219  0.2940 -0.3221
  758YOPS   C1A11379  10.663   8.944   6.072  0.0242  0.0079 -0.2499
  758YOPS   D2A11380  10.596   8.917   6.564 -0.1023 -0.0013  0.3025
  758YOPS   C3A11381  10.264   8.923   6.909  0.0105  0.1178  0.4309
  758YOPS   C4A11382  10.019   8.651   7.012 -0.0929 -0.1630  0.0280
  758YOPS   C1B11383  10.788   9.473   6.004  0.0704 -0.2212 -0.0041
  758YOPS   C2B11384  11.083   9.546   6.257 -0.1059  0.1974 -0.0927
  758YOPS   D3B11385  11.377   9.545   6.587  0.0767 -0.3486  0.0122
  758YOPS   C4B11386  11.778   9.424   6.457 -0.1820 -0.1493  0.0492
  759YOPS   CNO11387  15.535   2.794   5.761 -0.2675  0.3143 -0.1028
  759YOPS   PO411388  15.700   3.149   5.840  0.1765  0.1389 -0.3275
  759YOPS   GL111389  15.710   3.006   6.177 -0.0732 -0.2477  0.2499
  759YOPS   GL211390  16.005   3.134   6.323  0.0047  0.2821  0.3564
  759YOPS   C1A11391  15.759   2.677   6.426 -0.0351  0.1293  0.2715
  759YOPS   D2A11392  15.594   2.411   6.716 -0.2206 -0.1083 -0.1733
  759YOPS   C3A11393  15.633   2.190   7.078 -0.1495 -0.2363  0.2891
  759YOPS   C4A11394  15.314   2.297   7.329  0.2055 -0.0842  0.4557
  759YOPS   C1B11395  16.068   3.306   6.666 -0.1763 -0.2801 -0.1853
  759YOPS   C2B11396  16.261   3.325   7.078  0.2183  0.1429  0.2982
  759YOPS   D3B11397  16.310   3.125   7.403 -0.1130  0.0865  0.1696
  759YOPS   C4B11398  16.063   2.972   7.761 -0.0586  0.5684  0.1031
  760YOPS   CNO11399   6.390  14.347   6.528 -0.0175 -0.1221 -0.2379
  760YOPS   PO411400   6.385  14.756   6.378 -0.1339  0.0301 -0.0565
  760YOPS   GL111401   6.633  14.803   6.809  0.3890 -0.0029 -0.1047
  760YOPS   GL211402   6.674  14.509   6.911  0.0906 -0.1270  0.0517
  760YOPS   C1A11403   6.520  14.855   7.283  0.1634  0.1472  0.1624
  760YOPS   D2A11404   6.746  14.819   7.703  0.0542  0.3255  0.0350
  760YOPS   C3A11405   7.113  14.789   7.921  0.0718  0.0230 -0.0388
  760YOPS   C4A11406   7.258  15.158   8.200  0.1097  0.1242  0.2626
  760YOPS   C1B11407   6.662  14.372   7.352  0.0093  0.2124 -0.1964
  760YOPS   C2B11408   6.308  14.521   7.639 -0.0999 -0.0973 -0.1274
  760YOPS   D3B11409   5.971  14.557   7.416  0.1703 -0.2271 -0.2028
  760YOPS   C4B11410   5.793  14.985   7.490 -0.0209 -0.1363  0.1197
  761YOPS   CNO11411  10.453  15.858   6.272 -0.3477 -0.3391 -0.1409
  761YOPS   PO411412  10.409  15.447   6.194 -0.0450  0.0041  0.3137
  761YOPS   GL111413  10.479  15.358   6.611  0.0702  0.0615  0.3033
  761YOPS   GL211414  10.537  15.684   6.787 -0.1947  0.0332  0.1633
  761YOPS   C1A11415  10.544  15.270   7.034 -0.1792  0.4806  0.0562
  761YOPS   D2A11416  10.676  14.820   7.194  0.0040  0.0724 -0.0441
  761YOPS   C3A11417  10.326  14.816   7.562 -0.1300  0.0746 -0.2397
  761YOPS   C4A11418  10.585  14.603   7.925 -0.2752 -0.3241 -0.1739
  761YOPS   C1B11419  10.611  16.024   7.190 -0.3003  0.1054 -0.1140
  761YOPS   C2B11420  10.675  16.458   7.311  0.0917  0.0357  0.1401
  761YOPS   D3B11421  10.865  16.772   7.602 -0.0801 -0.0847  0.1069
  761YOPS   C4B11422  11.230  16.774   7.566 -0.0861 -0.2448 -0.2166
  762YOPS   CNO11423  15.186   3.343   5.731 -0.0042 -0.0598  0.0177
  762YOPS   PO411424  14.715   3.390   5.852  0.0075 -0.0864  0.0913
  762YOPS   GL111425  14.924   3.195   6.177  0.2657 -0.2944  0.2587
  762YOPS   GL211426  15.138   2.911   6.064 -0.1447 -0.2694 -0.2858
  762YOPS   C1A11427  14.756   3.030   6.505  0.0903  0.1932 -0.2854
  762YOPS   D2A11428  14.722   3.068   6.963 -0.0449 -0.3699 -0.1877
  762YOPS   C3A11429  14.941   2.946   7.310 -0.0375  0.1444 -0.2619
  762YOPS   C4A11430  14.784   2.624   7.379 -0.1639 -0.2288 -0.1792
  762YOPS   C1B11431  15.284   2.947   6.523 -0.2983  0.2177 -0.1712
  762YOPS   C2B11432  15.292   2.967   6.906  0.1217  0.0724  0.1591
  762YOPS   D3B11433  15.456   2.790   7.254  0.1414 -0.1069  0.2243
  762YOPS   C4B11434  15.735   3.052   7.370  0.0490 -0.1547  0.2089
  763YOPS   CNO11435  15.754   9.929   5.279  0.2363  0.1687  0.2762
  763YOPS   PO411436  15.553   9.694   5.550  0.0686 -0.1402 -0.0806
  763YOPS   GL111437  15.664   9.815   5.970  0.0244  0.1033 -0.4054
  763YOPS   GL211438  15.952   9.999   6.096  0.1811 -0.1797 -0.2203
  763YOPS   C1A11439  15.505   9.786   6.423  0.3205 -0.1064 -0.0118
  763YOPS   D2A11440  15.202   9.907   6.739  0.3335 -0.0253  0.1889
  763YOPS   C3A11441  14.796   9.985   6.743  0.1138 -0.1378  0.1427
  763YOPS   C4A11442  14.559   9.775   6.314 -0.3474 -0.5024  0.2293
  763YOPS   C1B11443  16.356   9.970   6.259 -0.0209 -0.0758  0.1749
  763YOPS   C2B11444  16.464   9.964   6.698 -0.1535 -0.1412  0.2251
  763YOPS   D3B11445  16.295   9.695   6.937 -0.2353  0.0770 -0.1410
  763YOPS   C4B11446  16.232   9.664   7.367  0.0167 -0.4009  0.0835
  764YOPS   CNO11447  13.490  16.808   5.904 -0.0303  0.0907  0.0568
  764YOPS   PO411448  13.662  17.029   5.750 -0.1844 -0.2733  0.1910
  764YOPS   GL111449  13.701  17.191   6.163  0.2060  0.1766 -0.2687
  764YOPS   GL211450  13.878  17.438   6.070 -0.1319 -0.1964 -0.1554
  764YOPS   C1A11451  13.741  17.072   6.627 -0.0282 -0.0350  0.3961
  764YOPS   D2A11452  13.674  17.043   6.947 -0.0849  0.0054 -0.2252
  764YOPS   C3A11453  13.501  17.147   7.383  0.1449  0.3027  0.0806
  764YOPS   C4A11454  13.217  17.500   7.478  0.1152 -0.0797  0.1859
  764YOPS   C1B11455  14.016  17.448   6.507 -0.3501 -0.0307  0.0101
  764YOPS   C2B11456  14.053  17.342   6.889 -0.1911  0.1150 -0.1580
  764YOPS   D3B11457  13.993  17.371   7.316 -0.0933  0.1866  0.0685
  764YOPS   C4B11458  14.069  16.986   7.510  0.0553 -0.3731  0.0635
  765YOPS   CNO11459   8.629  16.980   5.788 -0.1110 -0.0177  0.0084
  765YOPS   PO411460   8.830  16.584   5.578  0.2173 -0.3076  0.1937
  765YOPS   GL111461   9.117  16.549   5.917  0.0653 -0.1918  0.1193
  765YOPS   GL211462   8.886  16.562   6.145  0.1175 -0.0619  0.3046
  765YOPS   C1A11463   9.338  16.646   6.296 -0.3046  0.0875 -0.1140
  765YOPS   D2A11464   9.005  16.697   6.651 -0.1008  0.0328 -0.0070
  765YOPS   C3A11465   8.945  16.633   7.128 -0.0619  0.3490  0.3660
  765YOPS   C4A11466   8.632  16.379   7.253 -0.1103 -0.0192  0.3593
  765YOPS   C1B11467   8.457  16.743   6.291  0.2166  0.0053  0.0763
  765YOPS   C2B11468   8.063  16.896   6.493 -0.0388 -0.3313 -0.0928
  765YOPS   D3B11469   7.802  17.312   6.526  0.0127  0.1490  0.1728
  765YOPS   C4B11470   7.301  17.411   6.465 -0.1427  0.0319 -0.1423
  766YOPS   CNO11471   8.393  13.243   6.152  0.1964  0.1770  0.3732
  766YOPS   PO411472   8.559  13.348   6.486  0.1207  0.2994 -0.1470
  766YOPS   GL111473   8.662  13.516   6.784 -0.0404  0.2074  0.0533
  766YOPS   GL211474   8.468  13.822   6.777  0.1731 -0.1417  0.1994
  766YOPS   C1A11475   8.595  13.572   7.240  0.5205  0.2936 -0.1257
  766YOPS   D2A11476   8.598  13.351   7.593 -0.2281 -0.2258  0.0343
  766YOPS   C3A11477   8.688  12.957   7.798 -0.2351 -0.0481 -0.0249
  766YOPS   C4A11478   8.952  13.069   8.101  0.0816 -0.3156 -0.2932
  766YOPS   C1B11479   8.134  13.718   7.037  0.1494  0.1286  0.3633
  766YOPS   C2B11480   8.114  13.778   7.481 -0.0486 -0.3211 -0.1151
  766YOPS   D3B11481   8.074  13.779   7.903 -0.2508 -0.1942 -0.0123
  766YOPS   C4B11482   7.785  13.718   8.186  0.0694 -0.1086  0.2029
  767YOPS   CNO11483   9.978   1.750   5.448  0.1561  0.1799  0.0341
  767YOPS   PO411484   9.785   2.164   5.299 -0.1558 -0.3015 -0.1257
  767YOPS   GL111485   9.909   2.449   5.660  0.0409  0.1490 -0.0514
  767YOPS   GL211486  10.163   2.287   5.684 -0.0692  0.0652  0.0838
  767YOPS   C1A11487  10.028   2.630   6.011  0.0451  0.0237  0.1344
  767YOPS   D2A11488   9.828   2.417   6.325  0.0512 -0.0230  0.0698
  767YOPS   C3A11489   9.630   1.983   6.429  0.0634  0.0378 -0.0154
  767YOPS   C4A11490   9.291   1.795   6.289 -0.0505 -0.3413 -0.0582
  767YOPS   C1B11491  10.114   2.090   6.053  0.0259  0.2187 -0.2562
  767YOPS   C2B11492  10.472   1.852   6.245  0.3731  0.2342 -0.0575
  767YOPS   D3B11493  10.777   1.683   6.605 -0.0950 -0.0788 -0.3360
  767YOPS   C4B11494  10.596   1.718   7.042 -0.2076  0.0249  0.3244
  768YOPS   CNO11495   0.775   0.657   6.103  0.4453  0.2516  0.2959
  768YOPS   PO411496   0.640   0.979   5.904 -0.0259  0.1089  0.0891
  768YOPS   GL111497   0.548   1.134   6.312 -0.3713 -0.1784 -0.0073
  768YOPS   GL211498   0.783   1.257   6.470  0.1778 -0.2407 -0.1236
  768YOPS   C1A11499   0.401   1.054   6.758  0.1135 -0.2215 -0.0867
  768YOPS   D2A11500   0.507   1.101   7.230 -0.1284  0.0835 -0.1138
  768YOPS   C3A11501   0.790   1.269   7.620 -0.0875  0.1001  0.0010
  768YOPS   C4A11502   1.179   1.404   7.628 -0.1162  0.2676  0.3567
  768YOPS   C1B11503   0.862   1.172   6.900 -0.1997  0.0354 -0.1635
  768YOPS   C2B11504   1.123   1.223   7.167 -0.5007 -0.2085 -0.0260
  768YOPS   D3B11505   1.454   1.065   7.335 -0.0129 -0.1137 -0.0646
  768YOPS   C4B11506   1.806   1.346   7.500 -0.0358 -0.2667  0.0091
  769YOPS   CNO11507  16.419  15.602   5.754  0.1845  0.1200  0.2384
  769YOPS   PO411508  16.749  15.550   6.032 -0.2104  0.0684  0.0807
  769YOPS   GL111509  16.568  15.407   6.488 -0.1669  0.0770 -0.1676
  769YOPS   GL211510  16.309  15.174   6.382  0.0934 -0.3815  0.0353
  769YOPS   C1A11511  16.261  15.453   6.851 -0.2453  0.0132 -0.3522
  769YOPS   D2A11512  16.214  15.496   7.282 -0.1389 -0.1352  0.3122
  769YOPS   C3A11513  16.029  15.880   7.523 -0.0366  0.0385 -0.0933
  769YOPS   C4A11514  16.284  15.990   7.875 -0.0192  0.2723  0.2153
  769YOPS   C1B11515  16.144  14.984   6.631 -0.0474 -0.0826  0.1469
  769YOPS   C2B11516  15.960  15.012   7.112  0.0738  0.0113 -0.1560
  769YOPS   D3B11517  15.663  14.957   7.398 -0.1525 -0.1508 -0.1911
  769YOPS   C4B11518  15.341  14.794   7.063  0.2767  0.2683 -0.1231
  770YOPS   CNO11519  16.976  11.806   5.482  0.2582  0.0911  0.0003
  770YOPS   PO411520  17.181  12.075   5.825 -0.0816  0.0392 -0.1570
  770YOPS   GL111521  17.297  12.304   6.257 -0.1557 -0.2992 -0.2309
  770YOPS   GL211522  17.606  12.441   6.305 -0.0929 -0.0266 -0.1036
  770YOPS   C1A11523  16.993  12.221   6.565  0.3025  0.1851  0.1583
  770YOPS   D2A11524  16.746  12.185   6.855 -0.1666 -0.0104 -0.0114
  770YOPS   C3A11525  16.618  12.206   7.297  0.2077 -0.0659 -0.3167
  770YOPS   C4A11526  16.955  12.156   7.601 -0.0740  0.0292 -0.1746
  770YOPS   C1B11527  17.746  12.270   6.644  0.3561  0.3548  0.1443
  770YOPS   C2B11528  17.937  12.153   7.018 -0.3462 -0.2490 -0.0528
  770YOPS   D3B11529  18.166  12.060   7.435  0.0145  0.1363  0.1297
  770YOPS   C4B11530  17.754  11.769   7.653  0.0605 -0.0695  0.0055
  771YOPS   CNO11531  13.766   6.444   4.860  0.1012 -0.1281 -0.2225
  771YOPS   PO411532  13.441   6.393   5.238  0.4347  0.1988 -0.2134
  771YOPS   GL111533  13.456   6.505   5.721  0.1234 -0.1381  0.0575
  771YOPS   GL211534  13.309   6.695   5.984 -0.1763 -0.2326  0.1758
  771YOPS   C1A11535  13.744   6.516   6.069 -0.2172 -0.2103  0.3687
  771YOPS   D2A11536  13.946   6.495   6.418  0.3048  0.2348 -0.1503
  771YOPS   C3A11537  14.055   6.178   6.769 -0.2550 -0.3390 -0.2162
  771YOPS   C4A11538  14.372   5.890   6.865  0.0773 -0.1489 -0.0332
  771YOPS   C1B11539  13.331   6.538   6.367 -0.4061  0.1644 -0.2725
  771YOPS   C2B11540  13.444   6.682   6.697 -0.0113  0.1491  0.0589
  771YOPS   D3B11541  13.448   6.798   7.131  0.1832  0.1051 -0.1379
  771YOPS   C4B11542  13.109   7.190   7.396  0.0266 -0.0457 -0.0520
  772YOPS   CNO11543   0.109  14.148   6.089  0.1204  0.1450 -0.1498
  772YOPS   PO411544   0.250  13.711   6.097  0.0902 -0.1636  0.1562
  772YOPS   GL111545   0.122  13.600   6.516  0.1418  0.0702 -0.1761
  772YOPS   GL211546  -0.203  13.457   6.540  0.1134  0.0819 -0.3267
  772YOPS   C1A11547   0.152  13.380   6.896 -0.0031 -0.4313 -0.0182
  772YOPS   D2A11548   0.512  13.278   7.182 -0.1639 -0.0098 -0.0642
  772YOPS   C3A11549   0.605  13.740   7.393  0.1782  0.0693 -0.2304
  772YOPS   C4A11550   0.496  13.970   7.651 -0.3166  0.2284 -0.0186
  772YOPS   C1B11551  -0.414  13.236   6.891  0.0558 -0.2647  0.0455
  772YOPS   C2B11552  -0.155  13.292   7.264  0.0388  0.2281 -0.0115
  772YOPS   D3B11553   0.164  13.440   7.648  0.1726 -0.1997  0.1263
  772YOPS   C4B11554   0.090  13.778   7.937  0.2124  0.1285 -0.2342
  773YOPS   CNO11555   7.457  15.770   5.894  0.1568 -0.1143 -0.0820
  773YOPS   PO411556   7.170  15.601   6.237 -0.2876  0.1409  0.0318
  773YOPS   GL111557   7.323  15.674   6.598  0.0627  0.2799 -0.3008
  773YOPS   GL211558   7.059  15.373   6.692  0.3735  0.0142 -0.0718
  773YOPS   C1A11559   7.183  15.869   6.941  0.3263 -0.1231 -0.2723
  773YOPS   D2A11560   7.167  16.061   7.346  0.2724  0.1009 -0.1213
  773YOPS   C3A11561   7.221  16.358   7.602 -0.1990 -0.0828  0.1424
  773YOPS   C4A11562   7.478  16.520   7.937 -0.5024 -0.1237  0.1417
  773YOPS   C1B11563   7.489  15.495   7.007 -0.0614  0.3045 -0.0881
  773YOPS   C2B11564   7.348  15.581   7.339  0.1474 -0.1198  0.3973
  773YOPS   D3B11565   7.337  15.485   7.786 -0.3258  0.0336 -0.2785
  773YOPS   C4B11566   7.650  15.473   8.047  0.0077  0.1293 -0.0350
  774YOPS   CNO11567  10.084   0.914   5.337 -0.0762 -0.3016  0.0414
  774YOPS   PO411568  10.059   1.230   5.685  0.3313  0.1980  0.1581
  774YOPS   GL111569  10.125   1.171   6.063 -0.2708 -0.1299  0.0355
  774YOPS   GL211570   9.904   0.936   6.298  0.2154 -0.0775  0.2222
  774YOPS   C1A11571  10.404   1.363   6.364 -0.5556  0.0273 -0.0019
  774YOPS   D2A11572  10.281   1.471   6.788  0.1940  0.0158  0.0633
  774YOPS   C3A11573  10.112   1.776   7.030 -0.0955  0.0086 -0.1407
  774YOPS   C4A11574  10.313   1.993   7.339 -0.3541 -0.1577  0.0467
  774YOPS   C1B11575   9.851   1.119   6.672 -0.1445 -0.0224 -0.0914
  774YOPS   C2B11576   9.779   1.015   7.105 -0.0140  0.2949  0.1338
  774YOPS   D3B11577   9.878   1.015   7.457 -0.1583 -0.2728 -0.2940
  774YOPS   C4B11578   9.775   1.262   7.757  0.3738  0.2435 -0.1943
  775YOPS   CNO11579  14.831   3.775   5.523 -0.2743  0.1020 -0.0886
  775YOPS   PO411580  14.763   4.095   5.766  0.0466 -0.0708 -0.0524
  775YOPS   GL111581  14.918   4.151   6.243  0.1888 -0.0323  0.4407
  775YOPS   GL211582  14.852   4.396   6.509 -0.0904 -0.0853  0.1144
  775YOPS   C1A11583  15.193   3.967   6.510  0.0859 -0.2697  0.0340
  775YOPS   D2A11584  15.433   3.940   6.898 -0.0265 -0.0385 -0.2137
  775YOPS   C3A11585  15.612   4.194   7.241 -0.0081 -0.1856 -0.0809
  775YOPS   C4A11586  15.785   4.453   7.014 -0.0159  0.2018  0.0344
  775YOPS   C1B11587  14.811   4.492   6.845 -0.0366 -0.0123 -0.2156
  775YOPS   C2B11588  14.565   4.386   7.129  0.0355  0.1069 -0.0817
  775YOPS   D3B11589  14.376   3.970   7.233 -0.2608  0.0768 -0.1755
  775YOPS   C4B11590  14.060   3.728   6.931 -0.0877  0.0293  0.0480
  776YOPS   CNO11591  16.159   1.314   5.752  0.1053 -0.3246 -0.2485
  776YOPS   PO411592  15.891   1.585   5.595  0.1684 -0.2714  0.2647
  776YOPS   GL111593  15.791   1.538   5.972  0.0348 -0.2200 -0.0295
  776YOPS   GL211594  15.630   1.287   6.054 -0.0329  0.1669 -0.2824
  776YOPS   C1A11595  15.799   1.366   6.471  0.3005  0.1268  0.0664
  776YOPS   D2A11596  15.832   1.418   6.963 -0.3869 -0.0993  0.0950
  776YOPS   C3A11597  15.847   1.372   7.426 -0.1019  0.2015  0.3031
  776YOPS   C4A11598  16.011   1.248   7.821 -0.0051  0.0649 -0.3028
  776YOPS   C1B11599  15.353   1.635   6.242  0.1970 -0.0431  0.0078
  776YOPS   C2B11600  14.991   1.605   6.463  0.0886  0.1033 -0.2955
  776YOPS   D3B11601  14.657   1.343   6.584 -0.0776  0.0033 -0.2638
  776YOPS   C4B11602  14.484   1.673   6.954 -0.4144 -0.0982  0.0990
  777YOPS   CNO11603  17.544   9.958   5.059 -0.1630 -0.1897  0.1169
  777YOPS   PO411604  17.552   9.510   5.338  0.1866  0.1954  0.5160
  777YOPS   GL111605  17.255   9.485   5.815  0.1166 -0.3682 -0.0525
  777YOPS   GL211606  17.250   9.182   5.886 -0.0321 -0.2659  0.1730
  777YOPS   C1A11607  17.235   9.476   6.294  0.4429 -0.2649 -0.0061
  777YOPS   D2A11608  17.346   9.511   6.702  0.0394 -0.0536  0.0554
  777YOPS   C3A11609  17.517   9.632   7.087  0.0449  0.3001  0.0143
  777YOPS   C4A11610  17.200   9.653   7.405  0.2308  0.1531  0.0261
  777YOPS   C1B11611  16.910   9.105   6.023  0.0365 -0.3110 -0.1811
  777YOPS   C2B11612  16.864   9.258   6.599 -0.3682  0.0150 -0.0680
  777YOPS   D3B11613  16.571   9.178   6.927  0.0103 -0.0054 -0.0753
  777YOPS   C4B11614  16.167   8.959   6.785 -0.3682 -0.1945 -0.2802
  778YOPS   CNO11615   7.638   5.155   5.102 -0.2302  0.0665 -0.0707
  778YOPS   PO411616   7.273   5.126   5.095 -0.1521  0.2781  0.0535
  778YOPS   GL111617   7.072   5.355   5.454 -0.1183 -0.0085  0.0301
  778YOPS   GL211618   6.715   5.238   5.471  0.0275 -0.1751 -0.2435
  778YOPS   C1A11619   7.176   5.491   5.875  0.1039 -0.1706  0.0390
  778YOPS   D2A11620   6.980   5.538   6.255  0.1761  0.3479  0.0545
  778YOPS   C3A11621   6.775   5.416   6.513  0.0387  0.0300 -0.3716
  778YOPS   C4A11622   7.077   5.344   6.759 -0.0518  0.0293 -0.0221
  778YOPS   C1B11623   6.713   5.143   6.031  0.0896 -0.4154  0.0641
  778YOPS   C2B11624   6.455   4.965   6.292 -0.2759 -0.0884  0.0621
  778YOPS   D3B11625   6.510   4.946   6.787  0.2849  0.1367  0.0109
  778YOPS   C4B11626   6.768   5.045   7.106  0.0558 -0.3363  0.1479
  779YOPS   CNO11627   5.419  12.029   5.856  0.3103 -0.2144  0.2708
  779YOPS   PO411628   5.228  11.691   6.024 -0.0484 -0.2296  0.1126
  779YOPS   GL111629   5.376  11.583   6.343  0.1364 -0.4369 -0.1418
  779YOPS   GL211630   5.317  11.173   6.497  0.0423  0.0667 -0.0399
  779YOPS   C1A11631   5.304  11.711   6.718 -0.0761 -0.1966 -0.0587
  779YOPS   D2A11632   5.248  11.404   6.995  0.0228 -0.1140  0.0839
  779YOPS   C3A11633   5.027  11.295   7.282 -0.2202 -0.1085  0.0883
  779YOPS   C4A11634   4.633  11.502   7.415  0.4543  0.2550 -0.0069
  779YOPS   C1B11635   5.759  11.312   6.598  0.1082  0.1645  0.1738
  779YOPS   C2B11636   6.083  11.123   6.889 -0.3415  0.2551  0.0604
  779YOPS   D3B11637   6.455  10.964   7.245  0.0468 -0.5054 -0.1062
  779YOPS   C4B11638   6.646  10.665   7.070  0.2423  0.1944  0.1963
  780YOPS   CNO11639   4.498  10.945   5.551 -0.0398 -0.2335  0.0723
  780YOPS   PO411640   4.556  11.061   5.986  0.0439  0.1287  0.0264
  780YOPS   GL111641   4.410  10.906   6.338  0.1144 -0.1561  0.0549
  780YOPS   GL211642   4.159  11.010   6.638  0.1696 -0.0047  0.3039
  780YOPS   C1A11643   4.607  10.704   6.750  0.1241 -0.0382 -0.1198
  780YOPS   D2A11644   4.887  10.610   7.162  0.1356 -0.1465  0.1453
  780YOPS   C3A11645   5.051  10.480   7.533 -0.1072 -0.0324  0.0382
  780YOPS   C4A11646   4.804  10.519   7.928  0.1735 -0.2020 -0.0902
  780YOPS   C1B11647   3.906  10.704   6.740 -0.3995  0.1589 -0.2339
  780YOPS   C2B11648   3.794  10.547   7.031  0.0798  0.1054 -0.1226
  780YOPS   D3B11649   4.044  10.462   7.390  0.0706  0.0730  0.0087
  780YOPS   C4B11650   3.811  10.316   7.745  0.0287  0.1554 -0.1069
  781YOPS   CNO11651  13.598   3.887   5.484  0.0637  0.0922 -0.0528
  781YOPS   PO411652  13.908   3.839   5.707 -0.2526 -0.1232 -0.2102
  781YOPS   GL111653  14.114   3.913   6.143 -0.0411 -0.0400  0.0019
  781YOPS   GL211654  14.448   3.959   6.171 -0.1643  0.1379 -0.1288
  781YOPS   C1A11655  14.056   4.168   6.503  0.0181  0.1610 -0.2076
  781YOPS   D2A11656  13.783   4.480   6.606  0.0005 -0.3793 -0.0324
  781YOPS   C3A11657  13.782   4.782   6.944 -0.2322 -0.1804  0.0373
  781YOPS   C4A11658  14.075   5.067   6.982 -0.1019 -0.0268  0.0511
  781YOPS   C1B11659  14.543   3.987   6.583  0.1382  0.1204 -0.1596
  781YOPS   C2B11660  14.873   4.017   6.910 -0.0172 -0.0996  0.1442
  781YOPS   D3B11661  14.865   3.796   7.353 -0.1796 -0.2027  0.0325
  781YOPS   C4B11662  14.683   3.896   7.645 -0.0489  0.1818 -0.2478
  782POPE   NH311663   6.844   0.803   5.687 -0.4064  0.4439  0.1136
  782POPE   PO411664   7.106   0.503   5.735  0.1424 -0.0100  0.0278
  782POPE   GL111665   7.038   0.402   6.159 -0.2449 -0.0418 -0.1183
  782POPE   GL211666   6.896   0.406   6.407  0.1369 -0.0704  0.2485
  782POPE   C1A11667   7.349   0.233   6.413  0.2172 -0.0817  0.1587
  782POPE   D2A11668   7.378   0.123   6.803 -0.0225 -0.0942  0.0460
  782POPE   C3A11669   7.118   0.235   7.104  0.0088  0.1006 -0.1765
  782POPE   C4A11670   7.170   0.251   7.610 -0.0617  0.3105  0.2078
  782POPE   C1B11671   7.029   0.568   6.732  0.0870 -0.1616 -0.0277
  782POPE   C2B11672   6.979   0.737   7.076  0.0761  0.1577  0.2458
  782POPE   C3B11673   7.013   0.902   7.473  0.0628  0.0974 -0.2262
  782POPE   C4B11674   7.114   0.786   7.821  0.0743 -0.1656  0.1906
  783POPE   NH311675   0.922   2.262   5.743 -0.3068 -0.2208  0.0204
  783POPE   PO411676   1.338   2.383   5.684 -0.0146  0.2160 -0.3662
  783POPE   GL111677   1.553   2.542   6.055  0.0235  0.3111  0.0997
  783POPE   GL211678   1.224   2.513   6.236  0.2901  0.1657  0.2645
  783POPE   C1A11679   1.757   2.334   6.421 -0.2344 -0.3391 -0.1585
  783POPE   D2A11680   2.009   2.165   6.670  0.0670  0.1465  0.0969
  783POPE   C3A11681   1.915   2.313   7.135 -0.0482  0.1856 -0.0333
  783POPE   C4A11682   2.142   2.446   7.454  0.0597 -0.1749 -0.4850
  783POPE   C1B11683   1.160   2.893   6.362  0.1992 -0.1374  0.0689
  783POPE   C2B11684   0.972   2.932   6.740 -0.1659  0.0954 -0.1185
  783POPE   C3B11685   0.972   2.961   7.251  0.0785  0.3059 -0.2350
  783POPE   C4B11686   1.065   3.269   7.535 -0.1208  0.2349  0.4157
  784POPE   NH311687   8.667   2.066   5.493 -0.1726  0.0881 -0.1539
  784POPE   PO411688   8.986   2.327   5.576 -0.2074  0.0505 -0.3485
  784POPE   GL111689   8.862   2.085   5.955 -0.3187  0.1867 -0.2050
  784POPE   GL211690   9.050   2.209   6.237 -0.1646  0.0236 -0.2306
  784POPE   C1A11691   8.593   1.797   6.263 -0.1841 -0.1505  0.1070
  784POPE   D2A11692   8.606   1.830   6.652 -0.1420 -0.1977 -0.0560
  784POPE   C3A11693   8.378   2.202   6.885 -0.1694 -0.1950 -0.2516
  784POPE   C4A11694   8.424   2.489   7.209 -0.1887  0.0152  0.0801
  784POPE   C1B11695   9.319   2.344   6.531  0.2180 -0.0215  0.1415
  784POPE   C2B11696   9.306   2.318   6.999 -0.2392 -0.0261 -0.0833
  784POPE   C3B11697   9.290   2.353   7.479 -0.2883  0.0073  0.1163
  784POPE   C4B11698   9.173   2.509   7.908  0.0983  0.0895 -0.4154
  785POPE   NH311699  13.079  10.965   5.909  0.1244  0.0305  0.3018
  785POPE   PO411700  13.305  11.199   5.672  0.1341  0.4474 -0.0075
  785POPE   GL111701  13.576  11.190   5.977  0.1759 -0.1188  0.0058
  785POPE   GL211702  13.518  11.100   6.318  0.1546 -0.1055  0.0123
  785POPE   C1A11703  13.977  11.235   6.217  0.0643  0.2063  0.3140
  785POPE   D2A11704  14.351  11.379   6.606  0.0469 -0.1294 -0.2094
  785POPE   C3A11705  14.697  11.633   6.517 -0.2171  0.1927  0.0346
  785POPE   C4A11706  15.138  11.795   6.629  0.3021 -0.2146 -0.5407
  785POPE   C1B11707  13.531  10.862   6.513  0.3882  0.1673 -0.0268
  785POPE   C2B11708  13.257  10.775   6.904  0.0995 -0.2995 -0.1325
  785POPE   C3B11709  13.178  10.789   7.346 -0.1752 -0.4109  0.1190
  785POPE   C4B11710  12.825  10.963   7.557  0.3151 -0.2152  0.1999
  786POPE   NH311711   2.441  16.255   6.030  0.1158 -0.1717  0.1193
  786POPE   PO411712   2.710  16.251   6.384  0.1594  0.0401 -0.0226
  786POPE   GL111713   2.655  16.323   6.815 -0.0375  0.1072 -0.0522
  786POPE   GL211714   2.400  16.165   6.835 -0.4685  0.0088  0.2566
  786POPE   C1A11715   2.718  16.497   7.272 -0.0633  0.0736  0.1029
  786POPE   D2A11716   2.897  16.351   7.624 -0.1321 -0.1558 -0.2482
  786POPE   C3A11717   2.765  16.282   7.987  0.1021  0.2004 -0.0402
  786POPE   C4A11718   2.692  16.463   8.354  0.1560  0.0145 -0.0747
  786POPE   C1B11719   2.346  15.849   7.187 -0.3629  0.0077 -0.0744
  786POPE   C2B11720   2.178  15.498   7.418 -0.1521  0.3589 -0.0545
  786POPE   C3B11721   1.898  15.290   7.665  0.0251  0.0459 -0.3649
  786POPE   C4B11722   1.816  14.801   7.736 -0.0992  0.3009 -0.0275
  787POPE   NH311723  16.228   2.953   5.748 -0.0099  0.1382 -0.0775
  787POPE   PO411724  16.623   3.291   5.775  0.1930 -0.1507  0.1870
  787POPE   GL111725  16.577   3.349   6.216 -0.0247 -0.3540 -0.1008
  787POPE   GL211726  16.497   3.004   6.191 -0.3961  0.0114 -0.0146
  787POPE   C1A11727  16.672   3.288   6.691  0.0813 -0.2899 -0.1332
  787POPE   D2A11728  16.811   3.287   7.017 -0.3050  0.3028  0.1468
  787POPE   C3A11729  16.886   3.264   7.368 -0.0719 -0.1262 -0.2221
  787POPE   C4A11730  17.096   3.314   7.724  0.0578  0.3010  0.0912
  787POPE   C1B11731  16.343   2.853   6.605  0.1584 -0.2931 -0.1428
  787POPE   C2B11732  16.370   2.816   6.996 -0.0718  0.0356  0.3572
  787POPE   C3B11733  16.476   2.612   7.382  0.1915 -0.0172  0.0419
  787POPE   C4B11734  16.613   2.383   7.668  0.2691  0.0708  0.2299
  788POPE   NH311735   5.773  11.724   6.057 -0.2951 -0.0624 -0.0548
  788POPE   PO411736   5.917  12.193   6.133  0.1542  0.2909  0.1754
  788POPE   GL111737   5.967  12.006   6.461 -0.0834 -0.3601  0.0941
  788POPE   GL211738   6.315  12.085   6.519  0.0638 -0.2368  0.2802
  788POPE   C1A11739   5.872  11.905   6.745 -0.0091  0.3595  0.2142
  788POPE   D2A11740   5.758  11.634   6.977  0.1885 -0.1111  0.0411
  788POPE   C3A11741   6.035  11.409   7.279 -0.2003 -0.0520  0.2153
  788POPE   C4A11742   6.387  11.498   7.551  0.2057 -0.1887  0.3132
  788POPE   C1B11743   6.290  11.965   6.964 -0.3324  0.0426 -0.0301
  788POPE   C2B11744   6.072  12.007   7.275  0.0980  0.0606  0.5323
  788POPE   C3B11745   6.159  11.967   7.689 -0.1490 -0.1109 -0.1225
  788POPE   C4B11746   6.625  11.970   7.727 -0.3858  0.0698  0.4129
  789POPE   NH311747   8.847  12.510   6.154  0.2653  0.0594 -0.2046
  789POPE   PO411748   8.737  12.847   6.390  0.0640  0.0134  0.0970
  789POPE   GL111749   8.701  13.037   6.862 -0.0548  0.1887 -0.0111
  789POPE   GL211750   8.395  13.142   6.941  0.2732 -0.0158  0.0787
  789POPE   C1A11751   8.771  12.954   7.311  0.2754 -0.1753 -0.1469
  789POPE   D2A11752   9.085  13.049   7.515 -0.0182  0.2268  0.1156
  789POPE   C3A11753   9.531  13.193   7.452  0.3276  0.0272  0.1387
  789POPE   C4A11754   9.884  13.282   7.661 -0.3077 -0.0417  0.1832
  789POPE   C1B11755   8.312  12.760   7.107  0.2353 -0.3211  0.0232
  789POPE   C2B11756   8.409  12.612   7.483 -0.1042  0.0960  0.0830
  789POPE   C3B11757   8.474  12.321   7.861 -0.0155 -0.2362 -0.0126
  789POPE   C4B11758   8.616  12.097   8.169 -0.2418  0.1799  0.2572
  790POPE   NH311759   5.227   7.309   5.607  0.0220 -0.0238 -0.3472
  790POPE   PO411760   4.986   7.569   5.875  0.1251 -0.1439 -0.2381
  790POPE   GL111761   5.156   7.499   6.257  0.1403  0.1197  0.1180
  790POPE   GL211762   4.868   7.296   6.346 -0.2215  0.0151 -0.0015
  790POPE   C1A11763   5.301   7.530   6.545  0.3345  0.0758 -0.2713
  790POPE   D2A11764   5.409   7.505   6.972  0.0744  0.0473  0.1514
  790POPE   C3A11765   5.616   7.226   7.131 -0.1253  0.0447 -0.1251
  790POPE   C4A11766   5.870   6.877   7.345  0.1405 -0.0531  0.1881
  790POPE   C1B11767   4.597   7.364   6.708  0.0256 -0.5079 -0.0091
  790POPE   C2B11768   4.510   7.127   7.019  0.1261  0.1163  0.1262
  790POPE   C3B11769   4.176   6.879   7.364 -0.1247  0.1083  0.2701
  790POPE   C4B11770   3.667   6.883   7.428  0.0095  0.2089  0.5024
  791POPE   NH311771   8.133   5.738   5.152 -0.0452  0.0994  0.0687
  791POPE   PO411772   7.946   5.488   4.928  0.1204 -0.3228 -0.1332
  791POPE   GL111773   7.968   5.385   5.458 -0.0643 -0.0270 -0.2272
  791POPE   GL211774   8.257   5.595   5.656 -0.2530  0.0069  0.1868
  791POPE   C1A11775   7.983   5.184   5.823 -0.4176  0.2350 -0.1642
  791POPE   D2A11776   7.769   4.851   6.063 -0.1565 -0.2539  0.2065
  791POPE   C3A11777   7.377   5.082   6.083  0.0152  0.2437 -0.2119
  791POPE   C4A11778   7.450   5.378   6.416 -0.0402 -0.2612  0.0774
  791POPE   C1B11779   8.507   5.573   5.992 -0.1017 -0.2604  0.1542
  791POPE   C2B11780   8.748   5.557   6.413  0.0424  0.0708 -0.2172
  791POPE   C3B11781   8.892   5.343   6.727  0.2380  0.0312 -0.1048
  791POPE   C4B11782   9.157   5.399   7.052 -0.0579 -0.0244  0.2514
  792POPE   NH311783  12.865  18.097   5.943 -0.1446 -0.0178 -0.0443
  792POPE   PO411784  12.480  18.403   6.059  0.1218 -0.1698 -0.1763
  792POPE   GL111785  12.668  18.104   6.359  0.0973  0.3811  0.0005
  792POPE   GL211786  12.457  17.839   6.515 -0.0036 -0.0054  0.2652
  792POPE   C1A11787  12.694  18.218   6.848  0.1980 -0.1413 -0.2094
  792POPE   D2A11788  12.666  18.097   7.312 -0.2234 -0.1064  0.0409
  792POPE   C3A11789  12.923  18.243   7.691  0.1173  0.0098  0.0283
  792POPE   C4A11790  13.309  18.357   7.845  0.0784 -0.0511  0.2683
  792POPE   C1B11791  12.323  17.829   6.972  0.1122 -0.0144 -0.0098
  792POPE   C2B11792  12.067  17.856   7.428  0.4205 -0.0059 -0.1371
  792POPE   C3B11793  11.715  18.001   7.715 -0.0129 -0.2731 -0.1979
  792POPE   C4B11794  11.416  18.135   7.960 -0.1242 -0.1493 -0.1361
  793POPE   NH311795   6.979   2.933   4.995  0.3998 -0.1423  0.1945
  793POPE   PO411796   7.233   3.299   5.172 -0.0452 -0.0377  0.0308
  793POPE   GL111797   6.952   3.327   5.586 -0.1036 -0.0996 -0.1430
  793POPE   GL211798   6.801   2.936   5.500 -0.2249 -0.0751 -0.1266
  793POPE   C1A11799   6.694   3.166   5.956 -0.1370 -0.3782  0.5171
  793POPE   D2A11800   6.364   3.127   6.106 -0.2856 -0.2275 -0.2059
  793POPE   C3A11801   6.442   2.846   6.394  0.2001 -0.0806  0.0663
  793POPE   C4A11802   6.335   2.854   6.802 -0.0613  0.3387 -0.1922
  793POPE   C1B11803   6.772   2.663   5.839  0.0074 -0.0509 -0.1598
  793POPE   C2B11804   6.534   2.384   6.111 -0.1010  0.2404  0.1368
  793POPE   C3B11805   6.230   2.366   6.458  0.0089 -0.1792  0.1279
  793POPE   C4B11806   6.129   2.435   6.898  0.1722  0.0130 -0.2367
  794POPE   NH311807  14.539   1.880   5.576 -0.1626  0.1716  0.2894
  794POPE   PO411808  14.920   2.040   5.459 -0.0136 -0.1746  0.3909
  794POPE   GL111809  14.835   2.161   5.878  0.2655 -0.0931  0.0645
  794POPE   GL211810  14.809   2.468   5.964  0.2308 -0.0440 -0.1420
  794POPE   C1A11811  14.963   2.041   6.191  0.2812 -0.1455 -0.1324
  794POPE   D2A11812  14.972   2.093   6.637 -0.1560  0.1928  0.0687
  794POPE   C3A11813  15.331   1.920   6.683 -0.0083  0.0048 -0.2107
  794POPE   C4A11814  15.700   1.852   6.738 -0.0059 -0.0486 -0.0164
  794POPE   C1B11815  14.509   2.557   6.345 -0.0762  0.0097  0.0312
  794POPE   C2B11816  14.533   2.277   6.685  0.0417  0.1777 -0.3780
  794POPE   C3B11817  14.721   2.198   7.100  0.0012 -0.2212 -0.1801
  794POPE   C4B11818  14.713   2.111   7.579  0.0164  0.0932 -0.1694
  795POPE   NH311819   8.984  14.592   6.295  0.1566  0.1445 -0.1654
  795POPE   PO411820   8.656  14.851   6.354 -0.0672  0.0977 -0.0230
  795POPE   GL111821   8.934  14.901   6.656 -0.0549 -0.0141  0.1335
  795POPE   GL211822   9.254  14.953   6.532  0.0457  0.1132 -0.1736
  795POPE   C1A11823   8.985  14.726   7.020 -0.4227  0.1418  0.3600
  795POPE   D2A11824   9.188  14.766   7.427 -0.0360  0.0421 -0.0742
  795POPE   C3A11825   9.291  14.532   7.763 -0.2151 -0.0448 -0.2508
  795POPE   C4A11826   9.242  14.756   8.237 -0.1002  0.0680  0.0715
  795POPE   C1B11827   9.342  15.112   6.967  0.0657 -0.2746 -0.2303
  795POPE   C2B11828   9.512  15.140   7.375 -0.1749  0.0545  0.2431
  795POPE   C3B11829   9.417  15.438   7.683 -0.1076  0.1494 -0.3185
  795POPE   C4B11830   9.569  15.415   7.998 -0.1330  0.2998 -0.0013
  796POPE   NH311831  12.262   4.514   5.639  0.2330  0.0851  0.2338
  796POPE   PO411832  12.368   4.901   5.765  0.0079  0.2406  0.3394
  796POPE   GL111833  12.091   5.139   6.013  0.2055  0.0029 -0.0757
  796POPE   GL211834  11.732   5.177   5.930 -0.2307 -0.3196 -0.0823
  796POPE   C1A11835  11.845   4.982   6.432 -0.1140  0.3116  0.3116
  796POPE   D2A11836  11.898   4.791   6.790  0.0495  0.1532  0.1225
  796POPE   C3A11837  11.583   4.686   7.141  0.1693 -0.1252 -0.0160
  796POPE   C4A11838  11.283   4.553   7.395 -0.2135 -0.2117  0.1866
  796POPE   C1B11839  11.410   5.151   6.267 -0.0679 -0.0363 -0.0753
  796POPE   C2B11840  11.187   4.835   6.680  0.0877  0.0587 -0.2219
  796POPE   C3B11841  11.001   4.867   7.105  0.2375  0.0906  0.0184
  796POPE   C4B11842  11.327   5.095   7.309  0.0481 -0.1058  0.1645
  797POPE   NH311843  17.479   3.470   6.023  0.2841  0.0892  0.2694
  797POPE   PO411844  17.645   3.852   5.826  0.0212 -0.0510 -0.3948
  797POPE   GL111845  17.408   4.166   6.091  0.2204  0.3729  0.3540
  797POPE   GL211846  17.271   3.980   6.250 -0.1914 -0.4077  0.0628
  797POPE   C1A11847  17.294   4.522   6.286  0.3485 -0.0166 -0.0993
  797POPE   D2A11848  17.449   4.706   6.775  0.0515  0.0841 -0.1632
  797POPE   C3A11849  17.424   5.116   6.710  0.1173 -0.1860  0.0412
  797POPE   C4A11850  17.087   5.366   7.024  0.0042  0.0697 -0.0598
  797POPE   C1B11851  17.512   4.208   6.666  0.0185 -0.1303  0.1768
  797POPE   C2B11852  17.635   4.123   7.148 -0.1793 -0.1823 -0.1849
  797POPE   C3B11853  17.632   3.769   7.334  0.2147 -0.2048 -0.0354
  797POPE   C4B11854  17.352   3.525   7.358 -0.6120 -0.2019  0.1140
  798POPE   NH311855   7.085   7.029   5.222  0.2253 -0.0753  0.0905
  798POPE   PO411856   7.476   6.939   5.547 -0.1029  0.0107  0.2210
  798POPE   GL111857   7.319   6.788   5.981  0.1150  0.0274  0.0786
  798POPE   GL211858   6.996   6.769   5.968 -0.0089 -0.1261 -0.0254
  798POPE   C1A11859   7.411   6.576   6.322 -0.0480 -0.2475 -0.0181
  798POPE   D2A11860   7.512   6.430   6.712  0.2511  0.1500  0.3999
  798POPE   C3A11861   7.404   6.675   7.001  0.0437 -0.0169  0.0899
  798POPE   C4A11862   7.039   6.630   7.383  0.2270 -0.2232 -0.1218
  798POPE   C1B11863   6.790   6.826   6.304 -0.0062 -0.1379 -0.2309
  798POPE   C2B11864   6.530   6.534   6.650  0.0749  0.1607 -0.1188
  798POPE   C3B11865   6.554   6.405   7.080 -0.0043  0.1074  0.0683
  798POPE   C4B11866   6.189   6.464   7.399 -0.1848  0.3226 -0.0621
  799POPE   NH311867   5.410  16.386   5.808 -0.0116  0.1436 -0.1139
  799POPE   PO411868   5.062  16.467   5.691  0.2227  0.1978 -0.0857
  799POPE   GL111869   5.050  16.409   6.163 -0.2046 -0.1360 -0.3236
  799POPE   GL211870   4.949  16.082   6.387  0.0436 -0.0011 -0.0834
  799POPE   C1A11871   5.319  16.381   6.586 -0.2099  0.1913 -0.1269
  799POPE   D2A11872   5.497  16.430   6.989 -0.0026 -0.0657  0.0481
  799POPE   C3A11873   5.358  16.403   7.417 -0.2792 -0.2389  0.0641
  799POPE   C4A11874   5.004  16.367   7.704 -0.1015 -0.0543 -0.1974
  799POPE   C1B11875   4.885  16.426   6.791 -0.0053  0.0390 -0.1335
  799POPE   C2B11876   4.916  16.568   7.182 -0.1904  0.0843  0.5170
  799POPE   C3B11877   4.723  16.745   7.570 -0.1377 -0.0513 -0.1431
  799POPE   C4B11878   4.521  16.718   7.946  0.1503 -0.2549 -0.1447
  800POPE   NH311879  16.951   8.344   5.610  0.1539 -0.1300 -0.1964
  800POPE   PO411880  17.295   8.128   5.735 -0.1288  0.0624  0.0663
  800POPE   GL111881  17.167   8.010   6.084  0.1205 -0.1568 -0.2306
  800POPE   GL211882  16.827   7.886   6.079 -0.3403  0.1458 -0.0446
  800POPE   C1A11883  17.162   8.094   6.416  0.2972 -0.0811 -0.1155
  800POPE   D2A11884  17.023   8.256   6.743 -0.1192 -0.1918 -0.3686
  800POPE   C3A11885  16.875   8.237   7.155 -0.0392  0.2215  0.0843
  800POPE   C4A11886  16.680   7.993   7.500 -0.0017 -0.0899 -0.0220
  800POPE   C1B11887  16.877   7.439   6.237  0.2520  0.0663  0.1728
  800POPE   C2B11888  17.018   7.211   6.588 -0.3252 -0.1729  0.1925
  800POPE   C3B11889  17.072   7.164   7.110 -0.2250 -0.1720  0.2073
  800POPE   C4B11890  17.076   7.100   7.580 -0.4380 -0.0758 -0.2664
  801POPE   NH311891   3.057  12.452   6.253  0.2767 -0.0972 -0.1524
  801POPE   PO411892   2.852  12.101   6.367  0.1144  0.3192  0.1351
  801POPE   GL111893   3.096  11.856   6.584  0.0042  0.1913 -0.4026
  801POPE   GL211894   3.185  12.072   6.745  0.1690  0.3124 -0.1746
  801POPE   C1A11895   2.985  11.602   6.926 -0.2724  0.2443  0.3207
  801POPE   D2A11896   2.963  11.560   7.341 -0.0385 -0.1048 -0.0681
  801POPE   C3A11897   3.177  11.682   7.501  0.2383  0.3327  0.3451
  801POPE   C4A11898   3.308  11.764   7.829  0.0042 -0.3247  0.0255
  801POPE   C1B11899   3.078  12.156   7.183  0.0961  0.3472 -0.1506
  801POPE   C2B11900   2.833  12.123   7.716 -0.1647 -0.1159 -0.2226
  801POPE   C3B11901   2.496  11.954   7.900 -0.3149 -0.1985 -0.0527
  801POPE   C4B11902   2.261  11.746   8.090 -0.1885  0.1276 -0.1704
  802POPE   NH311903  10.836   5.682   5.655 -0.0593  0.1255  0.0786
  802POPE   PO411904  11.249   5.781   5.558  0.1555 -0.2311 -0.3634
  802POPE   GL111905  11.229   6.147   5.867 -0.4792  0.4581  0.2845
  802POPE   GL211906  11.087   6.505   5.733 -0.2109  0.0889  0.1647
  802POPE   C1A11907  11.276   6.157   6.273  0.0395  0.0120  0.3210
  802POPE   D2A11908  11.271   6.092   6.681  0.0637  0.1421  0.3666
  802POPE   C3A11909  11.452   6.340   7.159  0.1961 -0.4450  0.0916
  802POPE   C4A11910  11.280   6.832   7.164  0.1543 -0.1599 -0.1934
  802POPE   C1B11911  11.070   6.628   6.130  0.0554 -0.0067  0.2226
  802POPE   C2B11912  10.777   6.797   6.513 -0.1932 -0.0284  0.0611
  802POPE   C3B11913  10.419   6.688   6.732  0.1296  0.1005 -0.2737
  802POPE   C4B11914  10.190   6.549   7.119 -0.0235 -0.2640  0.2119
  803POPE   NH311915   0.137   0.990   6.053 -0.0617 -0.0497 -0.0133
  803POPE   PO411916  -0.043   0.594   6.036 -0.2986 -0.1647  0.0589
  803POPE   GL111917  -0.175   0.453   6.448  0.0706  0.0447  0.4209
  803POPE   GL211918  -0.319   0.073   6.473  0.1012  0.2186  0.2594
  803POPE   C1A11919  -0.411   0.493   6.899  0.2751 -0.3964 -0.2107
  803POPE   D2A11920  -0.275   0.414   7.215 -0.2443  0.0105  0.0557
  803POPE   C3A11921  -0.125   0.337   7.589 -0.3097  0.2729 -0.1315
  803POPE   C4A11922   0.009   0.254   7.954  0.1578 -0.0174 -0.2200
  803POPE   C1B11923  -0.016   0.152   6.919 -0.2047  0.1849 -0.1098
  803POPE   C2B11924   0.158  -0.033   7.259  0.0857 -0.0103  0.0705
  803POPE   C3B11925   0.278  -0.234   7.641  0.0940 -0.0620 -0.0870
  803POPE   C4B11926   0.439  -0.143   8.104 -0.2520 -0.3539  0.2468
  804POPE   NH311927   1.443  16.007   6.262 -0.4002 -0.0189  0.0782
  804POPE   PO411928   1.106  15.897   5.977  0.1472  0.5258  0.0217
  804POPE   GL111929   0.984  15.725   6.381  0.3530  0.0330 -0.2556
  804POPE   GL211930   0.919  15.968   6.577  0.3135  0.0627  0.2132
  804POPE   C1A11931   1.192  15.417   6.529 -0.0088 -0.1973  0.0923
  804POPE   D2A11932   1.698  15.290   6.619  0.0034  0.2035  0.0562
  804POPE   C3A11933   1.638  14.924   6.712 -0.1202  0.1200  0.2407
  804POPE   C4A11934   1.729  14.587   6.955 -0.0970  0.0358 -0.0979
  804POPE   C1B11935   0.904  16.157   6.938  0.2190 -0.0007  0.0272
  804POPE   C2B11936   1.044  16.123   7.338  0.0891 -0.3259 -0.0933
  804POPE   C3B11937   0.929  15.989   7.549 -0.0377 -0.0619  0.0499
  804POPE   C4B11938   0.569  15.670   7.673  0.1382  0.2369 -0.1608
  805POPE   NH311939   2.276  12.754   6.028 -0.2633  0.0941 -0.0563
  805POPE   PO411940   2.542  12.405   5.974 -0.1507  0.0717  0.6083
  805POPE   GL111941   2.462  12.373   6.381 -0.2446  0.0539 -0.2191
  805POPE   GL211942   2.666  12.559   6.576 -0.1933 -0.0774 -0.4571
  805POPE   C1A11943   2.318  12.800   6.740  0.0946 -0.0576 -0.0653
  805POPE   D2A11944   2.468  13.234   6.931 -0.0832  0.0193 -0.2425
  805POPE   C3A11945   2.815  13.078   7.336 -0.1202  0.1144  0.2890
  805POPE   C4A11946   3.051  12.609   7.381 -0.0466  0.1749  0.0699
  805POPE   C1B11947   2.519  12.192   6.903  0.2194  0.1282 -0.3308
  805POPE   C2B11948   2.672  11.921   7.129  0.1499  0.3003  0.0597
  805POPE   C3B11949   2.448  11.663   7.353 -0.2230  0.1272  0.0588
  805POPE   C4B11950   2.557  11.300   7.471  0.0161  0.0508  0.2430
  806POPE   NH311951   9.411  18.177   5.800  0.0127 -0.4130 -0.1797
  806POPE   PO411952   9.679  17.810   5.805  0.0484 -0.4274 -0.0764
  806POPE   GL111953   9.835  17.982   6.142  0.0457 -0.0955  0.3349
  806POPE   GL211954   9.923  17.641   6.301  0.0431  0.2689  0.1671
  806POPE   C1A11955   9.705  18.154   6.633 -0.0671  0.0525  0.3163
  806POPE   D2A11956   9.649  18.202   7.120  0.0715  0.1730  0.0857
  806POPE   C3A11957   9.773  17.930   7.353  0.0959  0.2723  0.1619
  806POPE   C4A11958   9.709  17.679   7.689  0.1637 -0.0910 -0.0214
  806POPE   C1B11959  10.147  17.942   6.542 -0.0484 -0.3349 -0.1886
  806POPE   C2B11960  10.556  18.092   6.738 -0.0362 -0.1785  0.3783
  806POPE   C3B11961  10.955  18.114   6.901  0.0380 -0.0017 -0.0523
  806POPE   C4B11962  11.269  18.271   6.744 -0.0985 -0.2900 -0.0860
  807POPE   NH311963   7.493   5.680   5.296  0.0159  0.2191 -0.1467
  807POPE   PO411964   7.708   6.043   5.312 -0.1732  0.0770 -0.1773
  807POPE   GL111965   7.657   5.912   5.745 -0.0031 -0.1711 -0.4017
  807POPE   GL211966   7.712   6.141   6.122 -0.0902 -0.0342 -0.0199
  807POPE   C1A11967   7.844   5.623   6.023  0.0907 -0.0098  0.1496
  807POPE   D2A11968   7.959   5.311   6.302  0.1112 -0.0675  0.1577
  807POPE   C3A11969   7.930   5.409   6.640  0.1983 -0.0526 -0.1431
  807POPE   C4A11970   7.643   5.382   6.934  0.1385  0.2714 -0.0083
  807POPE   C1B11971   7.627   5.845   6.463  0.3233  0.0945 -0.0740
  807POPE   C2B11972   7.518   5.913   6.869 -0.0342  0.3089  0.1248
  807POPE   C3B11973   7.651   5.806   7.369 -0.1039 -0.1217 -0.1535
  807POPE   C4B11974   7.878   5.726   7.651 -0.1243 -0.1983 -0.0365
  808POPE   NH311975   3.023  17.423   5.841 -0.4068 -0.0386  0.0313
  808POPE   PO411976   3.286  17.128   5.952 -0.0590 -0.0886  0.0290
  808POPE   GL111977   3.455  17.130   6.399 -0.0455  0.2345  0.0472
  808POPE   GL211978   3.355  16.964   6.659  0.0072 -0.0354 -0.0837
  808POPE   C1A11979   3.261  17.464   6.749  0.1649 -0.1294 -0.2150
  808POPE   D2A11980   2.993  17.734   7.058  0.1262  0.0708  0.2328
  808POPE   C3A11981   2.652  17.876   7.034 -0.2448  0.0516 -0.1547
  808POPE   C4A11982   2.184  17.861   7.046 -0.2706 -0.0432  0.0687
  808POPE   C1B11983   3.453  17.032   7.129 -0.0134 -0.2425  0.2392
  808POPE   C2B11984   3.490  17.153   7.582  0.0209  0.1519 -0.0017
  808POPE   C3B11985   3.331  17.062   7.972 -0.1144  0.1434  0.1255
  808POPE   C4B11986   3.134  17.129   8.457  0.1145  0.0600  0.3000
  809POPE   NH311987   4.870  18.285   6.232 -0.1554  0.0025  0.1501
  809POPE   PO411988   4.484  18.123   6.288 -0.1845 -0.0920 -0.3864
  809POPE   GL111989   4.193  18.100   6.578 -0.1037  0.2280 -0.0354
  809POPE   GL211990   4.207  17.797   6.644  0.2876  0.0222  0.0326
  809POPE   C1A11991   4.227  18.074   7.133  0.2954  0.3441  0.1104
  809POPE   D2A11992   4.110  17.866   7.515  0.1011  0.1482 -0.1683
  809POPE   C3A11993   3.994  17.487   7.575  0.0146 -0.0502  0.0679
  809POPE   C4A11994   3.884  17.204   7.298 -0.1081 -0.0039 -0.0264
  809POPE   C1B11995   4.194  17.575   7.107  0.1501  0.0109  0.1596
  809POPE   C2B11996   4.461  17.512   7.490 -0.1394  0.2036 -0.0484
  809POPE   C3B11997   4.774  17.237   7.696 -0.3038  0.1372  0.0384
  809POPE   C4B11998   5.189  17.327   7.782  0.0534 -0.1241  0.1538
  810POPE   NH311999  14.832  11.413   5.789  0.0074  0.0172  0.1890
  810POPE   PO412000  15.169  11.440   5.611  0.0043 -0.3789 -0.0481
  810POPE   GL112001  15.214  11.155   6.008  0.0892  0.3185  0.2930
  810POPE   GL212002  15.427  10.929   6.149 -0.0385  0.2030 -0.0497
  810POPE   C1A12003  15.146  11.271   6.406  0.0539 -0.2628  0.0701
  810POPE   D2A12004  15.277  11.304   6.826 -0.0740 -0.2496  0.1611
  810POPE   C3A12005  15.281  11.658   7.219 -0.2511  0.0225  0.3731
  810POPE   C4A12006  15.116  11.939   7.476  0.1523 -0.0030  0.1113
  810POPE   C1B12007  15.405  10.887   6.540 -0.1054  0.0870 -0.1552
  810POPE   C2B12008  15.440  10.876   6.948 -0.1887  0.3188  0.2329
  810POPE   C3B12009  15.358  10.655   7.339 -0.0718 -0.0493  0.3360
  810POPE   C4B12010  15.174  10.835   7.730 -0.2446  0.0442 -0.0292
  811POPE   NH312011   1.389   4.706   5.724  0.0300  0.2617 -0.4157
  811POPE   PO412012   1.001   4.992   5.828 -0.0296 -0.0745 -0.1766
  811POPE   GL112013   1.055   4.985   6.192  0.2883 -0.0579  0.1733
  811POPE   GL212014   0.661   4.930   6.272 -0.0070 -0.1331 -0.0354
  811POPE   C1A12015   1.323   4.815   6.562 -0.0853 -0.1176  0.3865
  811POPE   D2A12016   1.343   4.697   6.926 -0.0100 -0.1609  0.5279
  811POPE   C3A12017   1.440   4.566   7.311  0.2109 -0.3464 -0.0020
  811POPE   C4A12018   1.262   4.693   7.759 -0.5523 -0.1242 -0.1589
  811POPE   C1B12019   0.902   5.203   6.590  0.2420  0.0533 -0.3329
  811POPE   C2B12020   0.766   5.413   6.940 -0.4689  0.1006 -0.2445
  811POPE   C3B12021   0.624   5.284   7.384 -0.0599 -0.0655 -0.4152
  811POPE   C4B12022   0.308   5.107   7.640  0.2373 -0.2433  0.0734
  812YOPE   NH312023  11.093  14.468   6.426 -0.0758  0.1902  0.0452
  812YOPE   PO412024  11.121  14.841   6.363 -0.0275  0.1027 -0.2402
  812YOPE   GL112025  11.136  14.854   6.769  0.2092  0.1445  0.1424
  812YOPE   GL212026  10.948  15.089   6.770  0.1122  0.1684  0.1177
  812YOPE   C1A12027  11.217  14.849   7.233  0.0241 -0.0204 -0.5228
  812YOPE   D2A12028  11.389  14.940   7.656  0.2425 -0.0553 -0.0407
  812YOPE   C3A12029  11.163  15.053   8.050  0.1549  0.2064 -0.0057
  812YOPE   C4A12030  11.107  14.936   8.368  0.2437  0.0262  0.2675
  812YOPE   C1B12031  10.999  15.437   7.111 -0.2185  0.0335  0.2702
  812YOPE   C2B12032  10.962  15.179   7.489 -0.0078  0.1258  0.1119
  812YOPE   D3B12033  10.865  14.896   7.687  0.1115  0.0414  0.0096
  812YOPE   C4B12034  11.121  14.509   7.972  0.3718  0.2228  0.0220
  813YOPE   NH312035   4.952  15.629   6.074  0.1532  0.1316  0.0393
  813YOPE   PO412036   4.530  15.516   6.235  0.0624  0.2820  0.3156
  813YOPE   GL112037   4.281  15.495   6.573  0.2215 -0.1344  0.4916
  813YOPE   GL212038   4.116  15.127   6.520 -0.0718 -0.1999  0.0024
  813YOPE   C1A12039   4.147  15.688   6.951 -0.0636 -0.0860 -0.0106
  813YOPE   D2A12040   4.195  15.620   7.336  0.0059  0.2556 -0.0840
  813YOPE   C3A12041   4.345  15.528   7.720 -0.4234  0.0213  0.0063
  813YOPE   C4A12042   4.206  15.758   8.106  0.0775 -0.2154 -0.1052
  813YOPE   C1B12043   3.913  15.056   6.888 -0.0510  0.3235  0.0973
  813YOPE   C2B12044   4.079  15.053   7.334 -0.2482  0.3336 -0.1562
  813YOPE   D3B12045   4.049  14.981   7.803  0.0817  0.1477 -0.2156
  813YOPE   C4B12046   4.115  15.255   8.185 -0.0949 -0.1968  0.0661
  814YOPE   NH312047   3.485   2.525   5.688 -0.0509 -0.0165  0.1594
  814YOPE   PO412048   3.612   2.960   5.777  0.0366 -0.0583  0.1252
  814YOPE   GL112049   3.630   3.268   6.194  0.1421  0.1470  0.2418
  814YOPE   GL212050   3.414   3.051   6.262 -0.3123  0.2487 -0.0720
  814YOPE   C1A12051   3.306   3.480   6.521  0.0182 -0.2906  0.0050
  814YOPE   D2A12052   3.139   3.676   6.903 -0.0887 -0.3628 -0.2019
  814YOPE   C3A12053   2.802   3.469   7.129  0.0226 -0.1104 -0.2409
  814YOPE   C4A12054   2.496   3.386   7.448 -0.2468  0.1884 -0.0407
  814YOPE   C1B12055   3.422   2.938   6.642  0.1939  0.0531  0.0125
  814YOPE   C2B12056   3.460   2.680   6.984  0.1030 -0.1275  0.1438
  814YOPE   D3B12057   3.604   2.759   7.366  0.1402  0.1379  0.1200
  814YOPE   C4B12058   3.471   2.672   7.814 -0.0801 -0.2746 -0.1284
  815YOPE   NH312059   8.393  10.071   5.575 -0.0251  0.2323 -0.2184
  815YOPE   PO412060   8.790   9.693   5.435 -0.0279  0.1252  0.0488
  815YOPE   GL112061   8.597   9.729   5.858 -0.1909 -0.0684  0.1498
  815YOPE   GL212062   8.356   9.487   5.911 -0.1037  0.0165 -0.0568
  815YOPE   C1A12063   8.340   9.886   6.218  0.0910 -0.0731  0.4089
  815YOPE   D2A12064   8.123  10.064   6.582  0.3372 -0.2968  0.0102
  815YOPE   C3A12065   7.770  10.299   6.567 -0.0463 -0.1121 -0.0693
  815YOPE   C4A12066   7.610  10.706   6.588 -0.2752  0.0708 -0.2690
  815YOPE   C1B12067   8.669   9.454   6.218  0.0160  0.1606 -0.1388
  815YOPE   C2B12068   8.672   9.373   6.664 -0.3476 -0.0504 -0.0747
  815YOPE   D3B12069   8.830   9.550   7.017 -0.1644  0.0222 -0.1885
  815YOPE   C4B12070   9.217   9.394   7.331  0.0567  0.2716 -0.0779
  816YOPE   NH312071  17.348  16.965   5.451 -0.1458 -0.0953  0.0293
  816YOPE   PO412072  17.725  16.856   5.769  0.2572 -0.3620  0.2566
  816YOPE   GL112073  17.901  16.922   6.198  0.5393 -0.1795  0.0956
  816YOPE   GL212074  18.045  17.136   6.013  0.1757  0.0382  0.0797
  816YOPE   C1A12075  17.974  17.077   6.624  0.3722  0.1164  0.2075
  816YOPE   D2A12076  17.913  17.033   7.193 -0.0175  0.2055  0.0444
  816YOPE   C3A12077  18.076  17.253   7.566 -0.2168  0.4125  0.1725
  816YOPE   C4A12078  18.430  17.558   7.775  0.2215 -0.0105  0.3125
  816YOPE   C1B12079  17.809  17.429   6.280  0.4480  0.0004  0.0439
  816YOPE   C2B12080  17.599  17.442   6.604  0.1468  0.2013 -0.2606
  816YOPE   D3B12081  17.477  17.530   7.050  0.0764 -0.1767 -0.3109
  816YOPE   C4B12082  17.559  17.495   7.497 -0.2920 -0.4081  0.2875
  817YOPE   NH312083   9.797   4.381   5.135 -0.1809 -0.0078 -0.2634
  817YOPE   PO412084  10.172   4.382   5.441 -0.0158 -0.1728 -0.1740
  817YOPE   GL112085   9.975   4.494   5.863  0.3550  0.1061 -0.0252
  817YOPE   GL212086   9.828   4.279   5.919  0.5960  0.2550 -0.0082
  817YOPE   C1A12087  10.016   4.708   6.279  0.0306  0.2794 -0.1038
  817YOPE   D2A12088  10.148   4.679   6.694  0.1909 -0.2269  0.0715
  817YOPE   C3A12089  10.057   4.868   7.054 -0.2247  0.0777 -0.0481
  817YOPE   C4A12090   9.910   5.106   7.463  0.1668  0.0677 -0.1040
  817YOPE   C1B12091   9.708   4.272   6.397  0.0135 -0.1402 -0.2947
  817YOPE   C2B12092   9.454   4.177   6.844 -0.1721  0.1217 -0.1447
  817YOPE   D3B12093   9.294   4.629   7.126  0.0185  0.0704  0.0945
  817YOPE   C4B12094   8.919   4.798   7.147 -0.2506  0.0413  0.2827
  818YOPE   NH312095  18.252  12.012   5.815  0.2883 -0.1107 -0.0396
  818YOPE   PO412096  18.466  11.785   5.572 -0.1679 -0.0781 -0.0641
  818YOPE   GL112097  18.571  11.501   5.816  0.1633 -0.1175 -0.1509
  818YOPE   GL212098  18.859  11.389   5.969  0.1112  0.1262  0.3254
  818YOPE   C1A12099  18.211  11.265   5.933 -0.0724  0.0018 -0.1972
  818YOPE   D2A12100  18.017  11.049   6.223 -0.0753 -0.0270  0.0020
  818YOPE   C3A12101  18.311  10.905   6.535  0.1472 -0.0921  0.1805
  818YOPE   C4A12102  18.646  10.833   6.792  0.0452 -0.2618  0.0604
  818YOPE   C1B12103  18.598  11.236   6.259 -0.0136 -0.0877  0.1924
  818YOPE   C2B12104  18.450  11.407   6.652  0.2286 -0.2795  0.0851
  818YOPE   D3B12105  17.982  11.260   6.735  0.0118 -0.0085 -0.0659
  818YOPE   C4B12106  17.733  10.978   6.614  0.0231  0.0265 -0.0138
  819YOPE   NH312107   0.632  14.007   6.018  0.0515  0.1441 -0.0045
  819YOPE   PO412108   0.773  13.520   6.043  0.1424 -0.0424 -0.2277
  819YOPE   GL112109   0.661  13.674   6.472  0.2161 -0.0617 -0.1015
  819YOPE   GL212110   0.911  13.487   6.659 -0.0396 -0.1254  0.0947
  819YOPE   C1A12111   0.471  13.799   6.875 -0.0424  0.3078  0.1580
  819YOPE   D2A12112   0.108  13.784   7.277 -0.0316  0.0925  0.4359
  819YOPE   C3A12113  -0.346  13.695   7.076 -0.0988  0.0300  0.0009
  819YOPE   C4A12114  -0.727  13.644   7.093  0.2250  0.1879 -0.1735
  819YOPE   C1B12115   0.924  13.550   7.021  0.1819  0.0879 -0.2575
  819YOPE   C2B12116   1.064  13.494   7.422  0.3334  0.1597  0.2415
  819YOPE   D3B12117   0.705  13.357   7.651  0.0730 -0.0262  0.2500
  819YOPE   C4B12118   0.478  13.498   7.966  0.2277  0.0049  0.0053
  820YOPE   NH312119   2.128   4.131   5.755  0.0308 -0.2355 -0.0355
  820YOPE   PO412120   2.478   4.518   5.702 -0.0350 -0.1498  0.0046
  820YOPE   GL112121   2.170   4.801   5.744  0.1277 -0.2790 -0.0472
  820YOPE   GL212122   2.052   5.182   5.831  0.1358 -0.1121  0.0149
  820YOPE   C1A12123   2.130   4.882   6.204 -0.0699 -0.0832  0.1997
  820YOPE   D2A12124   2.402   4.793   6.597  0.0601 -0.1454  0.0844
  820YOPE   C3A12125   2.247   4.529   6.886  0.1890 -0.6106 -0.0579
  820YOPE   C4A12126   2.152   4.118   6.708  0.0527  0.1250  0.1204
  820YOPE   C1B12127   1.962   5.463   6.168 -0.0136  0.0886 -0.1929
  820YOPE   C2B12128   2.148   5.871   6.457  0.0304 -0.3883  0.1023
  820YOPE   D3B12129   2.185   5.866   6.863  0.1138  0.2598 -0.0797
  820YOPE   C4B12130   2.284   6.192   7.150 -0.0343 -0.3066  0.1676
  821YOPE   NH312131   3.349  18.222   6.171  0.0254 -0.0523 -0.0143
  821YOPE   PO412132   3.326  18.610   6.407  0.2133  0.0246  0.0318
  821YOPE   GL112133   3.483  18.645   6.801  0.0060  0.1222  0.1477
  821YOPE   GL212134   3.542  18.411   7.039  0.0656 -0.0701  0.2501
  821YOPE   C1A12135   3.723  18.920   7.022  0.3085  0.1091  0.0463
  821YOPE   D2A12136   4.135  19.046   7.174 -0.2425 -0.2211  0.2985
  821YOPE   C3A12137   4.432  19.278   7.105  0.0394 -0.0211  0.0712
  821YOPE   C4A12138   4.615  19.649   7.326  0.0098  0.1599  0.3297
  821YOPE   C1B12139   3.443  18.501   7.485 -0.3441  0.1356  0.1549
  821YOPE   C2B12140   3.358  18.557   7.859 -0.0651  0.0316 -0.1985
  821YOPE   D3B12141   3.077  18.855   8.099 -0.2016 -0.0653  0.4194
  821YOPE   C4B12142   2.833  19.342   8.205  0.2642 -0.3197 -0.0632
  822YOPE   NH312143   0.370  15.010   5.860  0.4941 -0.1617  0.2592
  822YOPE   PO412144  -0.015  14.721   6.037 -0.1966  0.0301  0.1562
  822YOPE   GL112145  -0.171  14.927   6.414  0.0047  0.1368  0.2865
  822YOPE   GL212146   0.136  14.994   6.520 -0.0260  0.0426 -0.2530
  822YOPE   C1A12147  -0.388  14.870   6.802 -0.4666 -0.1933 -0.0651
  822YOPE   D2A12148  -0.605  14.977   7.065  0.1679 -0.0483 -0.0281
  822YOPE   C3A12149  -0.583  14.928   7.492 -0.2087  0.2842 -0.1417
  822YOPE   C4A12150  -0.851  14.811   7.879 -0.2710  0.0192 -0.3001
  822YOPE   C1B12151   0.296  15.221   6.856  0.1130 -0.0087 -0.3250
  822YOPE   C2B12152   0.395  15.293   7.327  0.0191 -0.0776  0.3446
  822YOPE   D3B12153   0.253  15.043   7.586 -0.0177 -0.1266 -0.1415
  822YOPE   C4B12154   0.328  14.786   8.056 -0.4255 -0.0810  0.3514
  823YOPE   NH312155   9.573   1.420   5.543 -0.0789 -0.0357  0.0563
  823YOPE   PO412156   9.570   1.006   5.745 -0.0875 -0.1264 -0.0430
  823YOPE   GL112157   9.521   1.242   6.035 -0.1228  0.0734  0.0287
  823YOPE   GL212158   9.713   1.484   6.037 -0.4603 -0.0050  0.1612
  823YOPE   C1A12159   9.473   1.318   6.473 -0.2866 -0.2882  0.2705
  823YOPE   D2A12160   9.367   1.210   6.859 -0.0312 -0.1602 -0.3131
  823YOPE   C3A12161   9.221   1.496   7.188 -0.0232 -0.2204  0.0524
  823YOPE   C4A12162   9.147   1.903   7.390  0.3722  0.1792  0.0181
  823YOPE   C1B12163   9.914   1.578   6.465  0.2040  0.3708 -0.0000
  823YOPE   C2B12164  10.078   1.975   6.584 -0.2596  0.0272 -0.2203
  823YOPE   D3B12165   9.973   2.228   6.852  0.0306  0.0524 -0.0861
  823YOPE   C4B12166   9.752   2.040   7.314 -0.0015 -0.1194  0.3143
  824YOPE   NH312167   6.261  16.283   5.977 -0.1720  0.3475  0.1467
  824YOPE   PO412168   5.898  16.098   6.056 -0.3663  0.1231 -0.1132
  824YOPE   GL112169   5.739  16.179   6.531 -0.1958 -0.0416 -0.1346
  824YOPE   GL212170   6.024  16.175   6.717  0.0392  0.0290  0.0546
  824YOPE   C1A12171   5.382  15.948   6.886  0.0516 -0.1016 -0.0603
  824YOPE   D2A12172   5.048  16.103   7.141  0.0752 -0.0743  0.1116
  824YOPE   C3A12173   4.572  16.003   7.012 -0.0150 -0.2422  0.3307
  824YOPE   C4A12174   4.158  16.120   7.204 -0.3099  0.1960 -0.3028
  824YOPE   C1B12175   5.907  16.010   7.047 -0.4353 -0.2590 -0.4907
  824YOPE   C2B12176   5.842  16.219   7.448  0.0115  0.2727 -0.0266
  824YOPE   D3B12177   5.663  16.239   7.863  0.0223  0.2941 -0.1440
  824YOPE   C4B12178   5.402  15.981   8.149  0.0901 -0.1426 -0.0454
  825YOPE   NH312179   7.461   0.178   5.544  0.1932  0.3321  0.1062
  825YOPE   PO412180   7.800   0.001   5.304  0.0834  0.2435  0.2469
  825YOPE   GL112181   7.968   0.144   5.656 -0.1278  0.2053  0.2151
  825YOPE   GL212182   8.058   0.507   5.659  0.0335 -0.3432  0.1606
  825YOPE   C1A12183   8.041   0.355   6.199 -0.0352 -0.0030 -0.3839
  825YOPE   D2A12184   8.240   0.393   6.577  0.3553 -0.2449  0.1634
  825YOPE   C3A12185   8.212   0.638   6.898 -0.3832 -0.0135  0.3171
  825YOPE   C4A12186   8.062   0.443   7.322  0.2714  0.1696  0.1038
  825YOPE   C1B12187   8.177   0.828   6.012 -0.0458 -0.0735  0.0444
  825YOPE   C2B12188   7.928   0.913   6.493  0.0843  0.1399 -0.2034
  825YOPE   D3B12189   7.845   1.003   6.798  0.3070  0.2643  0.2301
  825YOPE   C4B12190   7.503   1.080   7.138  0.2268  0.0271 -0.1323
  826YOPE   NH312191   2.561   4.990   5.504  0.0083  0.0614  0.0006
  826YOPE   PO412192   2.893   4.886   5.524  0.1093 -0.0078 -0.0766
  826YOPE   GL112193   2.921   5.077   5.907 -0.0396  0.3267  0.0784
  826YOPE   GL212194   2.654   4.851   5.991 -0.0683  0.2119 -0.2617
  826YOPE   C1A12195   2.791   5.261   6.284  0.1224 -0.0339  0.0815
  826YOPE   D2A12196   2.753   5.152   6.569  0.0536  0.0037 -0.2282
  826YOPE   C3A12197   3.032   5.106   6.868 -0.2746 -0.1784 -0.1475
  826YOPE   C4A12198   3.174   5.375   7.261 -0.3118 -0.1684 -0.3464
  826YOPE   C1B12199   2.777   4.687   6.302 -0.2529 -0.1210 -0.2088
  826YOPE   C2B12200   2.836   4.609   6.805 -0.1075 -0.4551  0.2854
  826YOPE   D3B12201   2.671   4.399   7.117  0.2136 -0.2165  0.0315
  826YOPE   C4B12202   2.707   4.386   7.607  0.2502 -0.1648 -0.1354
  827YOPE   NH312203   8.728  15.649   5.996 -0.0078 -0.5085  0.0798
  827YOPE   PO412204   8.399  15.921   5.848 -0.1442 -0.1335  0.2187
  827YOPE   GL112205   8.437  15.960   6.293  0.0795 -0.0880  0.0954
  827YOPE   GL212206   8.588  16.211   6.420  0.3115  0.0269  0.2766
  827YOPE   C1A12207   8.039  15.850   6.603 -0.0707  0.1387 -0.2444
  827YOPE   D2A12208   7.927  15.604   6.721 -0.1998  0.2459  0.3487
  827YOPE   C3A12209   8.013  15.452   7.131 -0.0495  0.1858 -0.1945
  827YOPE   C4A12210   7.831  15.416   7.479 -0.0318 -0.4392 -0.1016
  827YOPE   C1B12211   8.605  16.389   6.744  0.0671  0.0289 -0.1964
  827YOPE   C2B12212   8.521  16.780   6.890  0.2102  0.0448 -0.1993
  827YOPE   D3B12213   8.418  17.134   6.811 -0.4274  0.1054 -0.1452
  827YOPE   C4B12214   8.302  17.488   6.555  0.3262  0.2403 -0.4075
  828YOPE   NH312215   0.141   3.717   5.740 -0.2735  0.3919  0.3216
  828YOPE   PO412216   0.426   3.543   6.067 -0.0604  0.1544 -0.3194
  828YOPE   GL112217   0.536   3.668   6.475  0.0270  0.1166 -0.0623
  828YOPE   GL212218   0.213   3.755   6.486  0.0148 -0.1015  0.1291
  828YOPE   C1A12219   0.568   3.908   6.854 -0.0074 -0.2357  0.2286
  828YOPE   D2A12220   0.567   3.857   7.282 -0.0543  0.0469 -0.0933
  828YOPE   C3A12221   0.980   3.803   7.601 -0.2049 -0.0172 -0.3365
  828YOPE   C4A12222   0.932   3.850   8.091 -0.0425 -0.1594  0.0628
  828YOPE   C1B12223   0.039   3.946   6.866  0.1952  0.1171 -0.1696
  828YOPE   C2B12224   0.080   4.062   7.294 -0.1983 -0.0774 -0.0376
  828YOPE   D3B12225  -0.008   4.099   7.633 -0.0195  0.1811  0.4130
  828YOPE   C4B12226  -0.212   4.257   8.028 -0.0362 -0.0419 -0.2748
  829YOPE   NH312227  11.465   1.127   5.726 -0.0369 -0.0972 -0.2583
  829YOPE   PO412228  11.928   0.962   5.840 -0.1743  0.2363 -0.0792
  829YOPE   GL112229  11.694   0.845   6.222 -0.2329 -0.0235 -0.0343
  829YOPE   GL212230  11.945   0.725   6.290  0.0389  0.2120 -0.1199
  829YOPE   C1A12231  11.575   1.008   6.574 -0.2121  0.3349 -0.1365
  829YOPE   D2A12232  11.726   0.853   6.996  0.1823 -0.1376  0.0053
  829YOPE   C3A12233  11.603   0.734   7.385 -0.1478 -0.0977 -0.1108
  829YOPE   C4A12234  11.466   0.551   7.858  0.0293 -0.2159 -0.0590
  829YOPE   C1B12235  12.173   0.768   6.664 -0.2270 -0.0460 -0.3808
  829YOPE   C2B12236  12.330   0.680   7.101  0.2490 -0.2528  0.0508
  829YOPE   D3B12237  12.661   0.963   7.334 -0.0900 -0.2272 -0.0351
  829YOPE   C4B12238  13.010   1.140   7.455 -0.0407 -0.3285  0.0896
  830YOPE   NH312239  10.138  17.956   5.665 -0.0922 -0.2124  0.1153
  830YOPE   PO412240  10.280  18.186   5.879 -0.1288 -0.0182  0.1176
  830YOPE   GL112241  10.537  17.959   6.189  0.2503  0.0439 -0.1848
  830YOPE   GL212242  10.867  18.118   6.189 -0.0853  0.2132 -0.0928
  830YOPE   C1A12243  10.541  17.602   6.370  0.0219  0.2232 -0.2821
  830YOPE   D2A12244  10.186  17.425   6.685 -0.0087 -0.2015  0.4982
  830YOPE   C3A12245   9.904  17.078   6.823 -0.0337 -0.0848 -0.2281
  830YOPE   C4A12246   9.843  16.716   6.703 -0.1085  0.0764  0.2279
  830YOPE   C1B12247  10.793  18.507   6.474 -0.2353 -0.5156  0.2088
  830YOPE   C2B12248  10.646  18.529   6.930  0.0966  0.5300 -0.3421
  830YOPE   D3B12249  10.596  18.192   7.304  0.0876 -0.0225  0.3008
  830YOPE   C4B12250  10.663  18.121   7.745 -0.1630 -0.2716 -0.0878
  831YOPE   NH312251   8.905   4.342   5.226 -0.2375 -0.1740  0.1349
  831YOPE   PO412252   9.336   4.290   5.159 -0.1025 -0.0581  0.1454
  831YOPE   GL112253   9.498   4.340   5.558  0.0533 -0.1898  0.0622
  831YOPE   GL212254   9.507   3.925   5.796  0.0842  0.1085  0.0994
  831YOPE   C1A12255   9.349   4.517   5.869 -0.2410 -0.3931  0.1208
  831YOPE   D2A12256   8.999   4.532   6.101 -0.0051 -0.0555  0.1279
  831YOPE   C3A12257   8.953   4.977   6.218  0.1510  0.1158  0.2615
  831YOPE   C4A12258   8.973   5.333   6.060  0.0541 -0.1809  0.0345
  831YOPE   C1B12259   9.329   4.097   6.154 -0.0219 -0.0280  0.1799
  831YOPE   C2B12260   9.083   4.193   6.517 -0.0336  0.2138  0.2954
  831YOPE   D3B12261   9.080   4.608   6.665  0.2959  0.0189  0.1813
  831YOPE   C4B12262   9.231   4.992   6.656 -0.0560  0.1387  0.1823
  832YOPE   NH312263  15.718  10.791   5.345 -0.0349 -0.1400  0.3832
  832YOPE   PO412264  16.145  10.861   5.558  0.0797 -0.1348  0.3842
  832YOPE   GL112265  16.098  10.956   5.963  0.0041 -0.0011 -0.1987
  832YOPE   GL212266  16.435  11.092   6.070 -0.0604  0.0597 -0.0848
  832YOPE   C1A12267  15.944  10.911   6.301  0.0279 -0.1794 -0.1612
  832YOPE   D2A12268  15.876  10.646   6.646  0.0421  0.0122  0.0604
  832YOPE   C3A12269  15.937  10.839   7.092 -0.2871  0.1624 -0.1196
  832YOPE   C4A12270  15.779  10.800   7.480 -0.1736  0.2320 -0.1581
  832YOPE   C1B12271  16.634  11.250   6.412  0.2627 -0.3416  0.1104
  832YOPE   C2B12272  16.682  11.297   6.831  0.2204 -0.2455  0.3164
  832YOPE   D3B12273  16.738  11.209   7.260  0.1176 -0.1324  0.0884
  832YOPE   C4B12274  16.834  11.491   7.580 -0.1777  0.0592  0.2682
  833YOPE   NH312275   4.348   6.785   5.705  0.1244 -0.3349 -0.2547
  833YOPE   PO412276   3.890   6.980   5.709 -0.3874 -0.1106  0.0348
  833YOPE   GL112277   4.030   7.014   6.049 -0.0800  0.0408  0.2342
  833YOPE   GL212278   4.059   6.738   6.131 -0.1975 -0.0176 -0.5225
  833YOPE   C1A12279   3.799   7.065   6.417  0.0155  0.1008 -0.1130
  833YOPE   D2A12280   3.809   6.958   6.885  0.0134  0.2296  0.1823
  833YOPE   C3A12281   3.426   7.192   7.027  0.0423  0.2058  0.1279
  833YOPE   C4A12282   3.244   7.574   7.059 -0.0611  0.1071  0.3540
  833YOPE   C1B12283   4.298   6.996   6.469  0.1381  0.1805  0.2317
  833YOPE   C2B12284   4.360   6.685   6.814  0.2257  0.1848 -0.0047
  833YOPE   D3B12285   4.300   6.249   6.910  0.1017  0.0946  0.3315
  833YOPE   C4B12286   4.376   5.889   7.136  0.0218 -0.1727  0.2051
  834YOPE   NH312287  10.917   0.512   5.945  0.0609  0.0765  0.1582
  834YOPE   PO412288  10.651   0.735   5.670 -0.0174 -0.1958 -0.2499
  834YOPE   GL112289  10.458   0.812   6.118 -0.0131  0.0306 -0.0633
  834YOPE   GL212290  10.451   0.462   6.304  0.0860 -0.0007  0.0890
  834YOPE   C1A12291  10.391   0.934   6.656 -0.1330 -0.1736 -0.0197
  834YOPE   D2A12292  10.229   0.984   6.999 -0.2325 -0.1767  0.0723
  834YOPE   C3A12293  10.450   1.259   7.253 -0.1562  0.0753 -0.1519
  834YOPE   C4A12294  10.685   1.700   7.518 -0.0795 -0.4199 -0.1027
  834YOPE   C1B12295  10.538   0.484   6.713 -0.2163  0.1327  0.0632
  834YOPE   C2B12296  10.351   0.467   7.049  0.1291  0.1519  0.2164
  834YOPE   D3B12297  10.185   0.421   7.436  0.2614  0.0489  0.1977
  834YOPE   C4B12298  10.334   0.558   7.789  0.0843  0.0718  0.0681
  835YOPE   NH312299  17.851   2.565   6.224  0.1581 -0.3144  0.1096
  835YOPE   PO412300  17.498   2.952   6.206  0.1031 -0.1481 -0.0148
  835YOPE   GL112301  17.614   2.732   6.649  0.0914 -0.0978 -0.1301
  835YOPE   GL212302  17.657   2.392   6.882 -0.3641  0.0879 -0.2035
  835YOPE   C1A12303  17.320   2.703   6.960 -0.3513  0.3800  0.2265
  835YOPE   D2A12304  16.918   2.750   7.206  0.2802 -0.1926 -0.0100
  835YOPE   C3A12305  16.867   2.836   7.593 -0.0727 -0.1617 -0.3075
  835YOPE   C4A12306  16.660   3.059   7.894 -0.2894  0.3990  0.2163
  835YOPE   C1B12307  17.722   2.689   7.198  0.2986 -0.1930  0.0907
  835YOPE   C2B12308  17.851   2.743   7.665  0.1047  0.2497  0.4012
  835YOPE   D3B12309  17.796   2.741   8.089 -0.2110 -0.1249  0.2825
  835YOPE   C4B12310  17.636   2.862   8.423 -0.0185  0.3534  0.0840
  836YOPE   NH312311   7.555  12.669   6.448 -0.1181 -0.1254  0.5242
  836YOPE   PO412312   7.624  12.243   6.412  0.2721  0.1141  0.0002
  836YOPE   GL112313   7.535  12.364   6.808  0.3009 -0.1419  0.2872
  836YOPE   GL212314   7.193  12.341   6.888 -0.1634 -0.1137 -0.1347
  836YOPE   C1A12315   7.779  12.294   7.167  0.1321  0.0744  0.0256
  836YOPE   D2A12316   7.613  12.202   7.567  0.1442 -0.0517 -0.2708
  836YOPE   C3A12317   7.502  11.984   7.948 -0.1997 -0.1281  0.1579
  836YOPE   C4A12318   7.675  11.708   8.201  0.2046 -0.1946  0.1722
  836YOPE   C1B12319   7.413  11.918   7.154 -0.0120  0.2197  0.0261
  836YOPE   C2B12320   7.609  11.720   7.483  0.0987 -0.6519  0.2494
  836YOPE   D3B12321   7.596  11.385   7.831 -0.2656 -0.2399 -0.4407
  836YOPE   C4B12322   7.222  11.326   8.155  0.4257  0.1103  0.0374
  837YOPE   NH312323  13.472  14.932   5.685 -0.1459 -0.0547 -0.0224
  837YOPE   PO412324  13.008  14.968   5.886 -0.2691 -0.0001  0.1444
  837YOPE   GL112325  13.316  14.843   6.217  0.3278 -0.0806 -0.0539
  837YOPE   GL212326  13.172  14.665   6.450 -0.1134  0.0145  0.3237
  837YOPE   C1A12327  13.521  15.106   6.476  0.2356  0.0696  0.3198
  837YOPE   D2A12328  13.283  15.140   6.892  0.2856  0.4318 -0.2385
  837YOPE   C3A12329  13.569  15.112   7.221  0.0286  0.1900  0.2016
  837YOPE   C4A12330  13.905  15.140   7.441  0.0620 -0.2948  0.0866
  837YOPE   C1B12331  13.370  14.709   6.808  0.0116  0.1495  0.0669
  837YOPE   C2B12332  13.604  14.646   7.219  0.0500 -0.3456 -0.3544
  837YOPE   D3B12333  13.786  14.704   7.655  0.0349  0.2931  0.3215
  837YOPE   C4B12334  14.030  14.553   7.969  0.0160 -0.1547  0.1273
  838YOPE   NH312335  11.608  10.968   5.559 -0.0382  0.0115 -0.0546
  838YOPE   PO412336  11.435  11.304   5.863 -0.0855  0.3383  0.2315
  838YOPE   GL112337  11.446  11.334   6.276  0.0751 -0.1062  0.0153
  838YOPE   GL212338  11.566  11.633   6.411 -0.1484 -0.1146 -0.0842
  838YOPE   C1A12339  11.188  11.401   6.636  0.3260  0.0326  0.0962
  838YOPE   D2A12340  10.843  11.528   6.793 -0.2245 -0.1685 -0.0078
  838YOPE   C3A12341  11.143  11.534   7.188 -0.0481  0.0183 -0.1269
  838YOPE   C4A12342  11.375  11.571   7.464  0.1574 -0.2613  0.1087
  838YOPE   C1B12343  11.782  11.328   6.661 -0.3802 -0.0955  0.0902
  838YOPE   C2B12344  12.012  11.066   6.936  0.2352  0.1014 -0.0073
  838YOPE   D3B12345  12.146  10.831   7.220 -0.0585 -0.0814 -0.2629
  838YOPE   C4B12346  12.647  10.654   7.243 -0.2390  0.0153 -0.2365
  839YOPE   NH312347  11.205  14.010   6.268 -0.3230 -0.0875  0.0159
  839YOPE   PO412348  10.729  14.153   6.393  0.0501  0.1777 -0.0873
  839YOPE   GL112349  10.862  14.172   6.787 -0.1741  0.1933 -0.0044
  839YOPE   GL212350  11.118  13.962   6.779  0.1104 -0.1588  0.1321
  839YOPE   C1A12351  10.908  14.384   7.181 -0.1259  0.0421 -0.1729
  839YOPE   D2A12352  10.894  14.276   7.578 -0.1309  0.2929  0.3206
  839YOPE   C3A12353  10.768  14.078   7.933  0.0942  0.1089 -0.1543
  839YOPE   C4A12354  10.418  13.887   8.162  0.3698  0.4672  0.0622
  839YOPE   C1B12355  11.151  13.945   7.294  0.1925 -0.1403 -0.0798
  839YOPE   C2B12356  11.317  13.563   7.589  0.0749 -0.3550  0.2019
  839YOPE   D3B12357  11.722  13.372   7.690  0.1392  0.1924  0.1087
  839YOPE   C4B12358  12.072  13.158   7.642 -0.3248 -0.2829 -0.3195
  840YOPE   NH312359   3.333  11.678   5.823  0.0942 -0.3676 -0.1253
  840YOPE   PO412360   3.808  11.630   6.010  0.2284  0.0613  0.1667
  840YOPE   GL112361   3.954  11.605   6.450  0.2539 -0.0909 -0.2147
  840YOPE   GL212362   4.268  11.604   6.618 -0.1410 -0.2990  0.2838
  840YOPE   C1A12363   3.553  11.644   6.768  0.1496  0.0432 -0.0640
  840YOPE   D2A12364   3.506  11.760   7.039  0.2765 -0.2156  0.0066
  840YOPE   C3A12365   3.563  11.419   7.258 -0.0196 -0.1926 -0.3644
  840YOPE   C4A12366   3.358  11.112   7.470 -0.1724 -0.2094 -0.1217
  840YOPE   C1B12367   4.010  11.548   6.957 -0.3291 -0.5221 -0.4873
  840YOPE   C2B12368   4.030  11.390   7.374 -0.1558  0.3207  0.0815
  840YOPE   D3B12369   4.181  11.220   7.777  0.2619 -0.0121 -0.2130
  840YOPE   C4B12370   4.512  11.423   8.176 -0.2185  0.2999 -0.0263
  841YOPE   NH312371  12.361   9.120   5.730  0.0309 -0.1055  0.0462
  841YOPE   PO412372  12.008   9.057   5.363  0.1929 -0.1010 -0.3673
  841YOPE   GL112373  11.881   8.980   5.806  0.0273  0.3525 -0.0931
  841YOPE   GL212374  11.915   8.602   5.983 -0.0535  0.0504  0.2005
  841YOPE   C1A12375  11.546   9.193   6.097 -0.1165 -0.1786  0.1333
  841YOPE   D2A12376  11.579   8.986   6.512 -0.2620 -0.2261 -0.2858
  841YOPE   C3A12377  11.619   9.146   6.882  0.0178  0.3162  0.3734
  841YOPE   C4A12378  11.313   9.414   7.125 -0.1415 -0.2041 -0.0015
  841YOPE   C1B12379  11.979   8.339   6.383  0.0981 -0.1199  0.1083
  841YOPE   C2B12380  12.010   8.253   6.767 -0.5046 -0.0150 -0.2729
  841YOPE   D3B12381  12.081   8.248   7.233 -0.3209  0.1855  0.1546
  841YOPE   C4B12382  11.844   8.414   7.536 -0.1204 -0.1981 -0.1600
  842YOPE   NH312383  14.231  14.407   5.954  0.0888  0.0175 -0.1559
  842YOPE   PO412384  13.831  14.613   5.829  0.2653 -0.2819 -0.0474
  842YOPE   GL112385  13.834  14.759   6.265 -0.1633  0.2171 -0.0182
  842YOPE   GL212386  14.098  14.582   6.403 -0.2140 -0.2139 -0.3547
  842YOPE   C1A12387  13.902  14.866   6.804 -0.1569 -0.0517  0.0562
  842YOPE   D2A12388  13.950  15.296   6.896 -0.2013 -0.0043  0.1595
  842YOPE   C3A12389  14.039  15.633   7.153 -0.2470  0.1925  0.1690
  842YOPE   C4A12390  14.147  16.066   7.106 -0.1191 -0.4527  0.3270
  842YOPE   C1B12391  13.767  14.307   6.538  0.0774  0.1075 -0.0241
  842YOPE   C2B12392  13.710  14.152   7.009 -0.1282  0.2693 -0.0299
  842YOPE   D3B12393  13.434  13.932   7.334  0.3572  0.0400  0.1651
  842YOPE   C4B12394  13.127  14.004   7.638 -0.0274  0.0825  0.1361
  843YOPE   NH312395   0.518   4.909   5.787  0.1791  0.0160  0.1527
  843YOPE   PO412396   0.536   5.255   5.932 -0.2525  0.1737 -0.1582
  843YOPE   GL112397   0.545   5.443   6.264 -0.2244 -0.0133 -0.3088
  843YOPE   GL212398   0.300   5.628   6.165 -0.2635 -0.1332  0.0120
  843YOPE   C1A12399   0.373   5.347   6.674 -0.2552 -0.2600 -0.1907
  843YOPE   D2A12400   0.125   5.461   7.119  0.0913 -0.2939  0.2629
  843YOPE   C3A12401  -0.401   5.537   7.207 -0.0957  0.3210  0.2000
  843YOPE   C4A12402  -0.727   5.794   7.378 -0.1052  0.0245  0.2416
  843YOPE   C1B12403   0.476   5.937   6.432 -0.0505 -0.1495  0.0077
  843YOPE   C2B12404   0.507   5.840   6.849  0.2302 -0.0582  0.2163
  843YOPE   D3B12405   0.511   5.818   7.223 -0.2276  0.4406 -0.0967
  843YOPE   C4B12406   0.555   6.059   7.614 -0.1408  0.3107 -0.0744
  844YOPE   NH312407  13.676   0.442   5.959 -0.0687 -0.0313  0.1312
  844YOPE   PO412408  13.943   0.014   6.054  0.1526  0.2686  0.2046
  844YOPE   GL112409  13.932  -0.005   6.483  0.1703 -0.1703 -0.3408
  844YOPE   GL212410  13.630  -0.187   6.655  0.0319 -0.4572  0.1113
  844YOPE   C1A12411  14.272  -0.012   6.716 -0.1531  0.0224  0.1309
  844YOPE   D2A12412  14.470  -0.305   6.934 -0.0224  0.0777 -0.0573
  844YOPE   C3A12413  14.232  -0.473   7.302 -0.1622 -0.0900 -0.0039
  844YOPE   C4A12414  13.794  -0.253   7.606  0.0063  0.0326 -0.2082
  844YOPE   C1B12415  13.270  -0.121   6.869  0.3409  0.1840  0.0834
  844YOPE   C2B12416  13.072   0.054   7.242 -0.1206 -0.2407  0.1923
  844YOPE   D3B12417  13.058   0.253   7.643  0.0437 -0.1451  0.0209
  844YOPE   C4B12418  13.115   0.354   8.044  0.2742 -0.1160  0.2761
  845YOPE   NH312419  17.182  12.590   5.897 -0.0499 -0.0398 -0.0449
  845YOPE   PO412420  16.778  12.488   5.982  0.0079 -0.0669 -0.0287
  845YOPE   GL112421  16.858  12.646   6.319  0.2489 -0.0669 -0.0078
  845YOPE   GL212422  17.004  12.912   6.304 -0.0054 -0.2955 -0.2228
  845YOPE   C1A12423  16.925  12.647   6.831  0.0625 -0.0941  0.0074
  845YOPE   D2A12424  17.105  12.443   7.206 -0.1191 -0.1869  0.1450
  845YOPE   C3A12425  17.010  11.950   7.146  0.2566  0.1274  0.0820
  845YOPE   C4A12426  17.041  11.619   6.888 -0.3400  0.0196  0.1654
  845YOPE   C1B12427  17.107  13.058   6.656  0.2332 -0.3030 -0.0903
  845YOPE   C2B12428  17.375  13.032   7.015 -0.1376  0.1632 -0.2190
  845YOPE   D3B12429  17.682  13.148   7.202 -0.4146  0.2023 -0.3567
  845YOPE   C4B12430  17.861  13.145   7.546 -0.0584  0.3008 -0.1472
  846YOPE   NH312431  14.639  16.360   5.954 -0.0193 -0.3730  0.0643
  846YOPE   PO412432  14.149  16.469   6.011 -0.1396 -0.1066 -0.4708
  846YOPE   GL112433  14.389  16.655   6.277 -0.2283 -0.0459 -0.0963
  846YOPE   GL212434  14.272  16.961   6.438  0.0394  0.2114  0.0656
  846YOPE   C1A12435  14.546  16.625   6.587 -0.0558 -0.1524 -0.3931
  846YOPE   D2A12436  14.850  16.843   6.847  0.2041 -0.1343  0.1440
  846YOPE   C3A12437  14.903  16.819   7.374 -0.4537  0.0375 -0.1476
  846YOPE   C4A12438  15.085  17.272   7.499  0.3502 -0.3439 -0.0683
  846YOPE   C1B12439  14.559  17.295   6.736 -0.0170 -0.0996 -0.0588
  846YOPE   C2B12440  14.399  17.612   7.101 -0.1327  0.0851  0.0252
  846YOPE   D3B12441  14.652  17.642   7.462 -0.2812  0.1520  0.0186
  846YOPE   C4B12442  14.657  17.706   7.934  0.3958 -0.0395 -0.1636
  847YOPE   NH312443   6.046   8.982   5.628  0.0798  0.0437 -0.0523
  847YOPE   PO412444   5.852   8.584   5.694 -0.0810 -0.2276 -0.0502
  847YOPE   GL112445   5.675   8.387   5.905  0.1665  0.0645 -0.0127
  847YOPE   GL212446   5.368   8.541   5.964 -0.2519 -0.0025  0.0820
  847YOPE   C1A12447   5.696   8.310   6.410 -0.4192 -0.0312 -0.1861
  847YOPE   D2A12448   5.891   8.375   6.883  0.2976 -0.1904  0.1149
  847YOPE   C3A12449   5.704   8.459   7.339 -0.0738  0.0251  0.1436
  847YOPE   C4A12450   5.609   8.183   7.636  0.0088  0.2490  0.0352
  847YOPE   C1B12451   5.262   8.575   6.356  0.0297 -0.3440  0.2114
  847YOPE   C2B12452   4.946   8.753   6.607 -0.1098  0.1520  0.1011
  847YOPE   D3B12453   4.740   9.029   6.909  0.3141 -0.1651 -0.0046
  847YOPE   C4B12454   4.753   9.088   7.318 -0.2896 -0.0026 -0.0126
  848YOPE   NH312455   4.479   7.764   5.785  0.0218  0.0364 -0.4649
  848YOPE   PO412456   4.850   8.075   5.717  0.1656 -0.3596 -0.0009
  848YOPE   GL112457   4.845   7.989   6.169 -0.0530  0.1504  0.1082
  848YOPE   GL212458   4.625   7.781   6.261  0.2267 -0.2822 -0.1623
  848YOPE   C1A12459   4.947   7.989   6.540 -0.1740 -0.2699 -0.2806
  848YOPE   D2A12460   4.937   7.751   7.013 -0.0233  0.1592 -0.2149
  848YOPE   C3A12461   4.639   7.553   7.222  0.2238  0.1454  0.1687
  848YOPE   C4A12462   4.551   7.211   7.533  0.0307  0.0197 -0.1216
  848YOPE   C1B12463   4.430   7.844   6.634  0.2775  0.2058  0.1319
  848YOPE   C2B12464   4.250   7.770   7.041 -0.4463  0.0559 -0.0622
  848YOPE   D3B12465   3.867   7.965   7.248 -0.1294 -0.0074 -0.0957
  848YOPE   C4B12466   3.436   8.106   7.423 -0.0246 -0.0291 -0.4020
  849YOPE   NH312467   5.382  13.278   5.674  0.3586  0.0603 -0.1756
  849YOPE   PO412468   5.013  13.417   6.193  0.2615 -0.1121  0.1884
  849YOPE   GL112469   4.788  13.589   6.484  0.0742  0.0034 -0.2566
  849YOPE   GL212470   4.560  13.354   6.546 -0.3370 -0.0293 -0.5273
  849YOPE   C1A12471   4.517  13.879   6.729  0.2198  0.0289  0.0776
  849YOPE   D2A12472   4.379  14.096   7.026 -0.0575 -0.0900  0.1462
  849YOPE   C3A12473   4.466  13.989   7.406 -0.1441 -0.2104  0.0556
  849YOPE   C4A12474   4.657  14.000   7.727 -0.0485  0.1549 -0.1841
  849YOPE   C1B12475   4.600  13.412   6.898 -0.0082  0.0298 -0.3321
  849YOPE   C2B12476   4.254  13.538   7.213 -0.0227 -0.3382 -0.1526
  849YOPE   D3B12477   4.233  13.608   7.637  0.0391 -0.0721  0.3543
  849YOPE   C4B12478   4.143  13.848   7.962 -0.3345  0.0872  0.1371
  850YOPE   NH312479   7.516  13.580   6.270 -0.0654 -0.1237  0.0722
  850YOPE   PO412480   7.636  13.759   6.623 -0.0602  0.1305  0.1455
  850YOPE   GL112481   7.397  14.004   6.853  0.1965  0.2798 -0.0651
  850YOPE   GL212482   7.657  14.220   6.972 -0.3074  0.3088 -0.0719
  850YOPE   C1A12483   7.169  13.925   7.163  0.0908 -0.3499 -0.0121
  850YOPE   D2A12484   6.896  13.909   7.441 -0.0244 -0.1640 -0.1694
  850YOPE   C3A12485   6.737  14.324   7.845  0.0845 -0.0682  0.2006
  850YOPE   C4A12486   6.843  14.513   8.297 -0.0284 -0.2256 -0.2014
  850YOPE   C1B12487   7.822  14.166   7.339  0.1193 -0.0705  0.1696
  850YOPE   C2B12488   8.090  14.230   7.689 -0.3154 -0.0548 -0.2038
  850YOPE   D3B12489   8.163  14.234   8.106 -0.0810 -0.0060 -0.1188
  850YOPE   C4B12490   8.165  14.628   8.419  0.0791 -0.2336  0.1236
  851YOPE   NH312491   4.528  10.528   5.955 -0.0059 -0.1705  0.1736
  851YOPE   PO412492   4.929  10.279   5.886 -0.2844  0.3322 -0.0389
  851YOPE   GL112493   5.178  10.008   6.151 -0.0550 -0.4657 -0.2726
  851YOPE   GL212494   4.865   9.667   6.230  0.1015 -0.3239 -0.0929
  851YOPE   C1A12495   5.324   9.903   6.580 -0.4376  0.2192  0.0180
  851YOPE   D2A12496   5.430   9.545   6.896 -0.1457 -0.0203 -0.1247
  851YOPE   C3A12497   5.802   9.224   6.867  0.1562 -0.1528  0.2114
  851YOPE   C4A12498   5.972   8.845   7.093 -0.1822  0.4158  0.2875
  851YOPE   C1B12499   5.250   9.530   6.276 -0.0055 -0.1749 -0.3287
  851YOPE   C2B12500   5.590   9.274   6.299 -0.0482 -0.1646 -0.0654
  851YOPE   D3B12501   5.715   8.820   6.385 -0.1992  0.0757 -0.0227
  851YOPE   C4B12502   5.572   8.696   6.732  0.0566  0.1560  0.0525
  852YOPE   NH312503   3.544   8.812   5.799 -0.1206  0.0796 -0.1869
  852YOPE   PO412504   3.869   8.976   5.717 -0.0347  0.0005 -0.1856
  852YOPE   GL112505   4.093   8.898   6.113 -0.0173  0.2119 -0.0255
  852YOPE   GL212506   4.387   9.152   5.883  0.0483  0.0897  0.3040
  852YOPE   C1A12507   4.180   8.702   6.526  0.1303  0.3950  0.0487
  852YOPE   D2A12508   4.394   8.699   6.852  0.2508  0.2561  0.1219
  852YOPE   C3A12509   4.437   8.567   7.292 -0.0218  0.0407 -0.2204
  852YOPE   C4A12510   4.624   8.762   7.627  0.2611 -0.0339 -0.3782
  852YOPE   C1B12511   4.376   9.481   6.130  0.3164  0.0505 -0.0916
  852YOPE   C2B12512   4.479   9.671   6.501 -0.1334 -0.1664 -0.2286
  852YOPE   D3B12513   4.476   9.592   6.961  0.0426  0.3440 -0.0054
  852YOPE   C4B12514   4.239   9.532   7.389 -0.1617  0.0269 -0.0444
  853YOPE   NH312515   2.463  13.729   6.304 -0.0536  0.3657 -0.0241
  853YOPE   PO412516   2.014  13.992   6.363 -0.0382  0.2813  0.2084
  853YOPE   GL112517   1.728  13.911   6.664 -0.0007  0.4310  0.5269
  853YOPE   GL212518   1.368  13.700   6.804  0.1070  0.1266  0.0103
  853YOPE   C1A12519   1.506  14.136   6.934 -0.1453  0.0333  0.1745
  853YOPE   D2A12520   1.317  14.435   7.183 -0.1031  0.0216  0.1477
  853YOPE   C3A12521   1.357  14.344   7.639 -0.2029  0.1381 -0.2256
  853YOPE   C4A12522   1.521  14.485   8.088  0.1066  0.1938 -0.0829
  853YOPE   C1B12523   1.693  13.624   7.035 -0.0612  0.1023 -0.1543
  853YOPE   C2B12524   1.969  13.406   7.377  0.1631  0.3543  0.0397
  853YOPE   D3B12525   2.147  13.135   7.631  0.0296 -0.0809 -0.0436
  853YOPE   C4B12526   2.125  12.768   7.653  0.3236  0.0658 -0.1343
  854YOPE   NH312527   0.549   7.850   5.975 -0.0304 -0.0260 -0.2490
  854YOPE   PO412528   0.256   8.154   5.905  0.0480  0.2590 -0.1179
  854YOPE   GL112529   0.133   8.354   6.251 -0.0989  0.3520 -0.0573
  854YOPE   GL212530  -0.233   8.313   6.176  0.1138  0.3773  0.3700
  854YOPE   C1A12531   0.065   8.441   6.649  0.2077 -0.0816  0.3675
  854YOPE   D2A12532   0.051   8.726   6.937  0.1448 -0.1641  0.1599
  854YOPE   C3A12533   0.043   8.427   7.405  0.0674 -0.0639 -0.0942
  854YOPE   C4A12534  -0.129   8.448   7.743 -0.0036 -0.0821  0.2270
  854YOPE   C1B12535  -0.440   8.258   6.607  0.0315 -0.0347  0.1042
  854YOPE   C2B12536  -0.484   8.292   7.097  0.0326 -0.2796  0.0026
  854YOPE   D3B12537  -0.575   7.889   7.192 -0.1506 -0.0460 -0.0915
  854YOPE   C4B12538  -0.764   7.667   7.596  0.0843  0.2326 -0.1395
  855YOPE   NH312539   1.115   6.454   5.913  0.0984  0.0309 -0.0500
  855YOPE   PO412540   1.210   6.011   5.974 -0.2155 -0.1005 -0.1100
  855YOPE   GL112541   0.961   6.006   6.272  0.2008 -0.0494  0.0874
  855YOPE   GL212542   0.964   6.420   6.409 -0.0937  0.0247  0.3174
  855YOPE   C1A12543   1.077   5.812   6.659  0.2205  0.0070  0.2585
  855YOPE   D2A12544   1.036   5.857   7.090  0.3246 -0.0577 -0.0792
  855YOPE   C3A12545   1.403   5.826   7.383 -0.1727  0.1596 -0.1979
  855YOPE   C4A12546   1.780   5.965   7.163  0.2081 -0.1356  0.3309
  855YOPE   C1B12547   0.894   6.265   6.771 -0.2651  0.1126 -0.0117
  855YOPE   C2B12548   0.582   6.331   7.153  0.2024  0.0879 -0.0061
  855YOPE   D3B12549   0.183   6.173   7.304  0.1984 -0.0869 -0.1411
  855YOPE   C4B12550  -0.272   6.176   7.443  0.0303 -0.1219 -0.3624
  856YOPE   NH312551   1.990  10.609   5.880  0.1476  0.0777  0.0505
  856YOPE   PO412552   2.359  10.662   6.142  0.0522 -0.2632 -0.2136
  856YOPE   GL112553   2.287  10.584   6.541 -0.1374  0.2662 -0.3625
  856YOPE   GL212554   2.564  10.524   6.569  0.0440  0.0978  0.3662
  856YOPE   C1A12555   2.236  10.285   6.940 -0.1091  0.2819 -0.0481
  856YOPE   D2A12556   1.985  10.252   7.338 -0.2079 -0.1493  0.2322
  856YOPE   C3A12557   1.829   9.978   7.503  0.2662  0.1484  0.3592
  856YOPE   C4A12558   1.519   9.981   7.637  0.0027 -0.0181 -0.0288
  856YOPE   C1B12559   2.654  10.575   7.032 -0.3241  0.3205  0.0529
  856YOPE   C2B12560   2.414  10.535   7.481  0.0615 -0.1703  0.3865
  856YOPE   D3B12561   2.183  10.280   7.797  0.0487  0.1689 -0.0421
  856YOPE   C4B12562   2.108  10.304   8.156 -0.3178 -0.3413  0.1519
  857YOPE   NH312563   6.753  15.719   6.484 -0.3472 -0.0591  0.0976
  857YOPE   PO412564   6.418  16.062   6.416  0.2146 -0.0768  0.2089
  857YOPE   GL112565   6.640  16.178   6.712 -0.0912 -0.1782  0.2114
  857YOPE   GL212566   6.950  16.184   6.695  0.0994 -0.1000  0.0856
  857YOPE   C1A12567   6.703  16.250   7.098  0.2304 -0.0064 -0.1787
  857YOPE   D2A12568   6.746  16.258   7.517 -0.0044 -0.0794  0.0893
  857YOPE   C3A12569   6.719  16.667   7.754 -0.0843  0.4083  0.1352
  857YOPE   C4A12570   6.485  16.907   8.072  0.0589  0.0452  0.1593
  857YOPE   C1B12571   7.145  16.475   7.009  0.1045 -0.0748 -0.3807
  857YOPE   C2B12572   7.578  16.384   7.239 -0.3616  0.1526 -0.5932
  857YOPE   D3B12573   7.694  16.685   7.561 -0.0818  0.2279  0.2356
  857YOPE   C4B12574   7.968  16.692   7.932  0.0040 -0.1212 -0.1284
  858YOPE   NH312575   0.493  11.391   5.386 -0.0104 -0.2234 -0.0661
  858YOPE   PO412576   0.806  11.037   5.569  0.0991 -0.0097  0.2256
  858YOPE   GL112577   0.730  10.993   6.000  0.0836  0.2559 -0.0870
  858YOPE   GL212578   0.894  11.288   6.167  0.1137 -0.0550 -0.1265
  858YOPE   C1A12579   0.456  10.900   6.379 -0.2560  0.0103 -0.1272
  858YOPE   D2A12580   0.598  10.514   6.784 -0.1231 -0.0999 -0.2150
  858YOPE   C3A12581   0.444  10.535   7.209 -0.2867  0.4113  0.2632
  858YOPE   C4A12582   0.025  10.639   7.475  0.2248 -0.2441  0.2653
  858YOPE   C1B12583   0.845  11.106   6.682 -0.0469  0.1852 -0.0245
  858YOPE   C2B12584   1.080  10.817   6.917  0.1105  0.1076 -0.0313
  858YOPE   D3B12585   1.141  10.554   6.731 -0.3010  0.0107  0.1087
  858YOPE   C4B12586   1.275  10.057   6.701  0.2042 -0.1747  0.0936
  859YOPE   NH312587  10.254   9.563   5.416 -0.0161 -0.1141  0.0676
  859YOPE   PO412588  10.494   9.897   5.376 -0.3712 -0.0618  0.0534
  859YOPE   GL112589  10.299   9.863   5.838 -0.0805  0.0688  0.1215
  859YOPE   GL212590   9.976   9.724   5.844  0.1522  0.0569  0.0773
  859YOPE   C1A12591  10.348   9.687   6.232  0.2851 -0.2597  0.1363
  859YOPE   D2A12592  10.398   9.417   6.484  0.1511 -0.1538 -0.1665
  859YOPE   C3A12593  10.497   9.405   6.851 -0.2389 -0.1889  0.0097
  859YOPE   C4A12594  10.814   9.623   7.105 -0.0804  0.1198 -0.0430
  859YOPE   C1B12595   9.941   9.403   6.191  0.0510 -0.0536  0.0740
  859YOPE   C2B12596  10.113   9.024   6.392  0.1495  0.0478 -0.0742
  859YOPE   D3B12597   9.882   8.781   6.550  0.0649 -0.0195 -0.3017
  859YOPE   C4B12598   9.480   8.762   6.637 -0.0487  0.1575 -0.0774
  860YOPE   NH312599  16.611   7.734   5.627 -0.1754 -0.1706 -0.0939
  860YOPE   PO412600  16.301   7.421   5.416  0.0948 -0.2084 -0.2716
  860YOPE   GL112601  16.300   7.448   5.935 -0.2069 -0.0503 -0.2448
  860YOPE   GL212602  16.337   7.825   6.052 -0.1469  0.0018  0.1259
  860YOPE   C1A12603  16.150   7.404   6.377  0.0472  0.1883 -0.2083
  860YOPE   D2A12604  16.129   7.109   6.765 -0.0918 -0.0900  0.0802
  860YOPE   C3A12605  16.217   7.251   7.180  0.2024 -0.2015 -0.1149
  860YOPE   C4A12606  16.663   7.478   7.385 -0.2987  0.3365  0.3388
  860YOPE   C1B12607  15.912   7.799   6.196 -0.3541  0.0036 -0.1957
  860YOPE   C2B12608  15.554   7.816   6.451 -0.1913 -0.0101  0.1198
  860YOPE   D3B12609  15.170   8.061   6.452  0.0790 -0.0491 -0.1315
  860YOPE   C4B12610  14.725   8.099   6.328  0.0885 -0.1413 -0.0803
  861YOPE   NH312611   0.438  11.953   5.794  0.1982  0.0704  0.1489
  861YOPE   PO412612   0.734  12.197   5.847  0.0432 -0.0691 -0.2268
  861YOPE   GL112613   0.683  11.880   6.250  0.0400  0.4228  0.0526
  861YOPE   GL212614   0.849  12.117   6.477  0.0921  0.1197  0.2543
  861YOPE   C1A12615   0.543  11.582   6.468 -0.1685  0.1267  0.3312
  861YOPE   D2A12616   0.440  11.286   6.751 -0.3336  0.1707 -0.1182
  861YOPE   C3A12617   0.640  11.000   7.089 -0.1376  0.0072  0.1683
  861YOPE   C4A12618   0.923  10.633   7.326  0.0587  0.4198  0.0548
  861YOPE   C1B12619   0.637  12.085   6.852 -0.1556  0.0652 -0.0627
  861YOPE   C2B12620   0.602  12.068   7.237  0.0795  0.4010 -0.0731
  861YOPE   D3B12621   0.398  11.845   7.648  0.0115  0.2484  0.1948
  861YOPE   C4B12622  -0.001  11.754   7.897 -0.1345 -0.1016  0.0358
  862YOPE   NH312623  17.890  14.778   6.154  0.0261 -0.3897  0.1959
  862YOPE   PO412624  17.553  14.989   5.889 -0.0450 -0.1508 -0.0989
  862YOPE   GL112625  17.416  14.802   6.344  0.0514 -0.0815 -0.4321
  862YOPE   GL212626  17.440  14.514   6.458  0.3162  0.2191  0.0357
  862YOPE   C1A12627  17.348  14.833   6.844  0.0846 -0.1333 -0.2264
  862YOPE   D2A12628  17.332  15.122   7.180  0.0868  0.0978  0.0301
  862YOPE   C3A12629  17.240  15.204   7.590 -0.1266  0.0574 -0.0265
  862YOPE   C4A12630  17.248  15.144   8.042 -0.2236  0.3339 -0.0962
  862YOPE   C1B12631  17.433  14.292   6.882  0.0651 -0.7349  0.0117
  862YOPE   C2B12632  17.505  14.167   7.303 -0.1566 -0.2220 -0.0180
  862YOPE   D3B12633  17.643  13.795   7.645 -0.0451  0.2612  0.1042
  862YOPE   C4B12634  17.426  13.434   7.485  0.0115 -0.0018 -0.2271
  863YOPE   NH312635   8.448  14.348   6.269  0.3270 -0.0775 -0.0984
  863YOPE   PO412636   8.809  14.187   6.048  0.2085  0.1023  0.0185
  863YOPE   GL112637   8.835  14.098   6.451 -0.2745  0.3583  0.1411
  863YOPE   GL212638   9.035  13.815   6.504 -0.2616  0.0146 -0.1965
  863YOPE   C1A12639   8.785  14.271   6.882  0.2092  0.5461  0.2034
  863YOPE   D2A12640   8.435  14.241   7.095  0.4382  0.3105 -0.2284
  863YOPE   C3A12641   8.526  14.080   7.474 -0.1386 -0.0665  0.1862
  863YOPE   C4A12642   8.603  13.850   7.835  0.1175  0.1124 -0.0600
  863YOPE   C1B12643   8.962  13.793   6.946  0.1440 -0.3427 -0.2788
  863YOPE   C2B12644   8.954  13.892   7.369 -0.1345  0.2111  0.3083
  863YOPE   D3B12645   9.245  14.056   7.671 -0.1147  0.2958 -0.2472
  863YOPE   C4B12646   9.393  14.151   8.127  0.0256  0.0183 -0.0917
  864YOPE   NH312647  10.949  10.202   5.336 -0.1561  0.0799 -0.0663
  864YOPE   PO412648  11.189   9.896   5.295 -0.0446  0.3086 -0.1624
  864YOPE   GL112649  11.077   9.914   5.744  0.0609  0.1849  0.1986
  864YOPE   GL212650  11.209  10.102   5.987 -0.1600  0.1397  0.0529
  864YOPE   C1A12651  10.781   9.932   6.175  0.1197 -0.1089 -0.1048
  864YOPE   D2A12652  10.799   9.728   6.582 -0.1927 -0.2384 -0.0043
  864YOPE   C3A12653  11.130   9.915   6.865  0.0944  0.1390 -0.0808
  864YOPE   C4A12654  11.089  10.290   7.189  0.1028  0.2887  0.1541
  864YOPE   C1B12655  11.227   9.993   6.401 -0.2967 -0.0300  0.0779
  864YOPE   C2B12656  11.671   9.942   6.512 -0.3521  0.4092  0.1149
  864YOPE   D3B12657  12.103   9.929   6.706  0.0033  0.2860 -0.1517
  864YOPE   C4B12658  12.259   9.812   7.101 -0.0126 -0.3787  0.1476
  865YOPE   NH312659   6.744   9.431   5.728  0.2404  0.0356  0.3255
  865YOPE   PO412660   7.162   9.605   5.658  0.1383  0.0758  0.0901
  865YOPE   GL112661   7.281   9.257   6.038  0.1438  0.0403  0.0242
  865YOPE   GL212662   7.056   9.020   6.103  0.0035  0.0804 -0.1448
  865YOPE   C1A12663   7.559   8.952   6.334 -0.2376  0.0029 -0.4176
  865YOPE   D2A12664   7.710   8.766   6.707  0.2251 -0.1801  0.1183
  865YOPE   C3A12665   7.554   8.358   6.740 -0.3339  0.3116 -0.0814
  865YOPE   C4A12666   7.298   8.121   7.050 -0.1237 -0.2189  0.0075
  865YOPE   C1B12667   7.109   8.759   6.442 -0.1897  0.1961 -0.3351
  865YOPE   C2B12668   7.040   8.868   6.779 -0.1112  0.1077 -0.2253
  865YOPE   D3B12669   7.361   8.779   7.071 -0.1347  0.1272 -0.0368
  865YOPE   C4B12670   7.629   8.827   7.428 -0.2056  0.0626 -0.2412
  866YOPE   NH312671   9.291   8.604   5.658 -0.1383 -0.0074  0.0859
  866YOPE   PO412672   9.167   8.955   5.612  0.2352  0.2371 -0.3042
  866YOPE   GL112673   9.415   9.108   5.878  0.0877  0.1388  0.0804
  866YOPE   GL212674   9.118   9.240   6.062  0.2312 -0.0094 -0.3284
  866YOPE   C1A12675   9.509   9.149   6.299 -0.0132  0.1162  0.2416
  866YOPE   D2A12676   9.687   9.345   6.692 -0.0947 -0.1144  0.0319
  866YOPE   C3A12677   9.986   9.294   6.829  0.0250 -0.2707  0.1594
  866YOPE   C4A12678  10.182   9.322   7.223  0.0436  0.1604  0.1235
  866YOPE   C1B12679   9.090   9.537   6.479  0.0875 -0.2649 -0.0626
  866YOPE   C2B12680   9.284   9.704   6.849 -0.0371  0.0396 -0.0358
  866YOPE   D3B12681   9.394   9.948   7.162 -0.2402 -0.1773 -0.2019
  866YOPE   C4B12682   9.305   9.883   7.486 -0.1225  0.0719 -0.0565
  867YOPE   NH312683   8.194  12.936   6.478  0.1707 -0.0037  0.0095
  867YOPE   PO412684   8.034  12.519   6.467  0.2813  0.1518  0.1870
  867YOPE   GL112685   8.110  12.218   6.765  0.5688  0.3162 -0.0674
  867YOPE   GL212686   7.848  11.914   6.790  0.0820 -0.1271  0.1561
  867YOPE   C1A12687   8.413  12.192   7.114 -0.1892 -0.0536  0.0403
  867YOPE   D2A12688   8.741  12.126   7.453 -0.2860 -0.3823  0.1834
  867YOPE   C3A12689   8.728  11.739   7.778 -0.1123  0.1196  0.1383
  867YOPE   C4A12690   8.984  11.498   7.992  0.0701  0.0717  0.1490
  867YOPE   C1B12691   8.038  11.878   7.226  0.1349 -0.3596 -0.1534
  867YOPE   C2B12692   8.114  12.132   7.544 -0.0148  0.1106 -0.0245
  867YOPE   D3B12693   8.015  12.330   7.857  0.2454 -0.0157  0.1987
  867YOPE   C4B12694   7.966  12.110   8.184  0.0352 -0.3109 -0.3699
  868YOPE   NH312695   8.023  12.081   6.221 -0.2546  0.1527 -0.3787
  868YOPE   PO412696   8.082  11.853   5.914 -0.1635  0.0644 -0.0733
  868YOPE   GL112697   8.305  11.612   6.268  0.0299 -0.2926  0.0437
  868YOPE   GL212698   8.148  11.681   6.477 -0.0511  0.1472  0.3056
  868YOPE   C1A12699   8.510  11.275   6.510 -0.0301 -0.0651  0.0177
  868YOPE   D2A12700   8.467  10.921   6.770 -0.3024 -0.3769 -0.3747
  868YOPE   C3A12701   8.702  11.102   7.115 -0.0600  0.2170  0.1823
  868YOPE   C4A12702   8.927  11.247   7.522 -0.2950  0.1471 -0.2578
  868YOPE   C1B12703   8.355  11.765   6.828 -0.2657 -0.0190  0.0985
  868YOPE   C2B12704   8.513  11.649   7.238 -0.2013 -0.1310 -0.0926
  868YOPE   D3B12705   8.457  11.389   7.463 -0.0113 -0.1481 -0.3654
  868YOPE   C4B12706   8.475  11.346   7.920 -0.1136 -0.0071 -0.3101
  869YOPE   NH312707  10.903  15.414   6.313  0.1829 -0.1682  0.1859
  869YOPE   PO412708  11.187  15.711   6.147 -0.2196 -0.0023 -0.0388
  869YOPE   GL112709  11.423  16.106   6.451 -0.1196 -0.0896  0.2604
  869YOPE   GL212710  11.704  15.943   6.688  0.2543 -0.1683  0.4912
  869YOPE   C1A12711  11.451  16.566   6.549  0.1809  0.0063 -0.1723
  869YOPE   D2A12712  11.437  16.872   6.963  0.2603 -0.1478 -0.0303
  869YOPE   C3A12713  11.050  16.938   7.138  0.3058 -0.0341 -0.0999
  869YOPE   C4A12714  10.753  17.211   7.236  0.0946 -0.0386 -0.1404
  869YOPE   C1B12715  11.549  15.644   7.044  0.3891  0.5050  0.0251
  869YOPE   C2B12716  11.798  15.710   7.418 -0.0968 -0.0974  0.0201
  869YOPE   D3B12717  11.974  15.666   7.771 -0.2490  0.0466 -0.2517
  869YOPE   C4B12718  11.975  15.760   8.201 -0.0777 -0.1627  0.1671
  870YOPE   NH312719   5.450  12.593   6.316  0.0888 -0.1262 -0.0199
  870YOPE   PO412720   5.024  12.406   6.356 -0.2992 -0.4610 -0.1341
  870YOPE   GL112721   5.169  12.531   6.778  0.1721 -0.0913 -0.0158
  870YOPE   GL212722   5.366  12.398   6.752 -0.0428  0.5992  0.0246
  870YOPE   C1A12723   5.293  12.476   7.194 -0.1357 -0.1779  0.0925
  870YOPE   D2A12724   5.336  12.209   7.586 -0.0118  0.0230  0.1464
  870YOPE   C3A12725   5.000  12.228   7.841  0.0912 -0.3772 -0.3147
  870YOPE   C4A12726   4.738  12.622   7.932 -0.0486  0.0583  0.0481
  870YOPE   C1B12727   5.487  12.051   7.028  0.0670 -0.0656  0.1737
  870YOPE   C2B12728   5.640  11.859   7.424 -0.0023  0.2093 -0.1776
  870YOPE   D3B12729   5.599  11.397   7.468  0.0196  0.0843  0.2487
  870YOPE   C4B12730   5.358  11.036   7.613 -0.1188 -0.0286 -0.0512
  871YOPE   NH312731   3.985  12.636   6.082  0.2107 -0.0678  0.2634
  871YOPE   PO412732   3.531  12.711   6.198  0.0594  0.0795 -0.1603
  871YOPE   GL112733   3.386  12.542   6.636  0.6482  0.2110  0.1721
  871YOPE   GL212734   3.097  12.583   6.853 -0.1770 -0.0338 -0.2810
  871YOPE   C1A12735   3.482  12.370   7.061  0.0345  0.0168 -0.0459
  871YOPE   D2A12736   3.575  12.327   7.406  0.0129 -0.0746 -0.0519
  871YOPE   C3A12737   3.291  12.297   7.737 -0.1743  0.2237 -0.1058
  871YOPE   C4A12738   3.262  12.228   8.203 -0.1434 -0.2014  0.0565
  871YOPE   C1B12739   2.730  12.692   7.043  0.0255 -0.1385 -0.0857
  871YOPE   C2B12740   2.552  12.604   7.364  0.1179 -0.0201  0.2648
  871YOPE   D3B12741   2.576  12.538   7.795  0.1869 -0.0273  0.0630
  871YOPE   C4B12742   2.687  12.302   8.196  0.1241  0.0610  0.4665
  872YOPE   NH312743   3.175  16.684   6.254  0.1777 -0.2342  0.0288
  872YOPE   PO412744   3.466  16.523   6.372 -0.2092  0.2101 -0.2630
  872YOPE   GL112745   3.298  16.509   6.777 -0.4495  0.2352 -0.0976
  872YOPE   GL212746   3.130  16.224   6.624  0.2577 -0.2670  0.1649
  872YOPE   C1A12747   3.340  16.362   7.139  0.3483  0.3848  0.3321
  872YOPE   D2A12748   3.200  16.001   7.467  0.1122 -0.0921 -0.2333
  872YOPE   C3A12749   3.232  16.005   7.877  0.2120  0.0369 -0.1776
  872YOPE   C4A12750   3.260  16.012   8.371  0.0968  0.1702  0.3144
  872YOPE   C1B12751   3.220  15.916   6.836  0.1952 -0.2784 -0.0197
  872YOPE   C2B12752   3.214  15.597   7.140 -0.0063  0.1096  0.0004
  872YOPE   D3B12753   3.217  15.524   7.590 -0.1065 -0.1466 -0.3191
  872YOPE   C4B12754   3.307  15.506   7.995  0.1441  0.0620  0.2581
  873YOPE   NH312755  13.265  10.020   5.660  0.1399  0.1765 -0.1866
  873YOPE   PO412756  12.892   9.834   5.599  0.2846 -0.3528 -0.2834
  873YOPE   GL112757  12.875   9.956   6.003 -0.3801  0.0767 -0.0514
  873YOPE   GL212758  13.136  10.137   6.115  0.3844 -0.1471  0.2981
  873YOPE   C1A12759  12.849   9.746   6.320 -0.2776  0.0790  0.0558
  873YOPE   D2A12760  12.977   9.732   6.681  0.0238  0.2662 -0.0984
  873YOPE   C3A12761  12.599   9.548   6.967  0.1824  0.1080 -0.0692
  873YOPE   C4A12762  12.422   9.287   7.301  0.2234 -0.1994  0.0905
  873YOPE   C1B12763  13.378   9.884   6.434  0.1270 -0.2935  0.0800
  873YOPE   C2B12764  13.576   9.992   6.783  0.2734  0.2411 -0.0563
  873YOPE   D3B12765  13.747   9.999   7.148 -0.1707  0.1114  0.0386
  873YOPE   C4B12766  13.681   9.830   7.550 -0.1180 -0.0640  0.3592
  874YOPE   NH312767  18.443  13.188   6.095 -0.0438 -0.0445 -0.0463
  874YOPE   PO412768  18.101  13.493   6.050  0.0770  0.1718  0.2009
  874YOPE   GL112769  17.687  13.469   6.320  0.2198  0.1082  0.2347
  874YOPE   GL212770  17.757  13.762   6.574  0.1987  0.1785  0.0803
  874YOPE   C1A12771  17.573  13.233   6.618 -0.1970 -0.0194  0.0873
  874YOPE   D2A12772  17.763  12.822   6.747  0.1460 -0.1764 -0.0690
  874YOPE   C3A12773  17.734  12.633   7.155 -0.1264  0.0730 -0.2375
  874YOPE   C4A12774  17.372  12.807   7.448 -0.3576 -0.1130  0.0677
  874YOPE   C1B12775  17.816  14.052   6.912  0.2417  0.0210  0.3367
  874YOPE   C2B12776  17.925  14.467   7.191  0.1044  0.8038 -0.0310
  874YOPE   D3B12777  18.100  14.532   7.709 -0.3693  0.4927  0.1178
  874YOPE   C4B12778  18.332  14.808   7.912  0.0627 -0.1500 -0.1018
  875YOPE   NH312779   1.809   6.669   5.804  0.3485 -0.0349  0.1197
  875YOPE   PO412780   1.617   6.342   5.687  0.1338 -0.0935  0.4378
  875YOPE   GL112781   1.790   6.188   5.929 -0.0841 -0.0423 -0.0317
  875YOPE   GL212782   1.621   6.349   6.224 -0.3907  0.1838 -0.3613
  875YOPE   C1A12783   1.686   5.887   6.316 -0.1955  0.2697 -0.0963
  875YOPE   D2A12784   1.589   5.770   6.684 -0.0526 -0.1441  0.0554
  875YOPE   C3A12785   1.824   5.502   6.648 -0.1927 -0.0743 -0.3654
  875YOPE   C4A12786   2.264   5.360   6.644  0.1253  0.1955 -0.0202
  875YOPE   C1B12787   1.418   6.239   6.627 -0.3059 -0.2917  0.0173
  875YOPE   C2B12788   1.444   6.278   6.996 -0.0869 -0.1413 -0.0591
  875YOPE   D3B12789   1.521   6.373   7.444 -0.1883  0.1057  0.0993
  875YOPE   C4B12790   1.766   6.390   7.759 -0.0539  0.1352  0.3006
  876YOPE   NH312791  12.819   4.878   5.535 -0.0138  0.0447 -0.0601
  876YOPE   PO412792  12.816   5.402   5.553  0.2528  0.1179 -0.1681
  876YOPE   GL112793  12.707   5.207   6.016 -0.0754  0.0251 -0.1572
  876YOPE   GL212794  12.770   4.937   6.018 -0.2748 -0.4603 -0.1516
  876YOPE   C1A12795  12.449   5.359   6.286 -0.1746 -0.2059  0.1981
  876YOPE   D2A12796  12.168   5.629   6.647  0.2744  0.0470  0.2924
  876YOPE   C3A12797  11.890   5.452   6.949  0.1707  0.1927 -0.2208
  876YOPE   C4A12798  11.829   5.141   7.131  0.1547 -0.0186  0.0192
  876YOPE   C1B12799  12.942   5.014   6.475 -0.0797 -0.1115 -0.0294
  876YOPE   C2B12800  12.993   5.216   6.820 -0.0166  0.0212 -0.4615
  876YOPE   D3B12801  12.948   5.431   7.169 -0.0468  0.1708 -0.0658
  876YOPE   C4B12802  12.640   5.743   7.375 -0.1655  0.1083  0.1971
  877YOPE   NH312803   3.569   8.080   5.335 -0.2677 -0.3069  0.1116
  877YOPE   PO412804   3.521   8.102   5.779 -0.1036  0.1831  0.3319
  877YOPE   GL112805   3.869   7.999   6.116  0.1416  0.2974  0.1294
  877YOPE   GL212806   4.211   8.100   6.224  0.5092  0.2004  0.1622
  877YOPE   C1A12807   3.844   7.972   6.556 -0.0822  0.1977 -0.1431
  877YOPE   D2A12808   4.125   8.199   6.812  0.0495 -0.2328 -0.1905
  877YOPE   C3A12809   4.007   8.481   7.141  0.0548  0.2002 -0.2381
  877YOPE   C4A12810   3.629   8.585   7.351 -0.2231 -0.2758  0.0259
  877YOPE   C1B12811   3.822   8.454   6.265  0.1756  0.1193  0.3172
  877YOPE   C2B12812   3.380   8.246   6.364 -0.3574  0.0389  0.0306
  877YOPE   D3B12813   3.409   8.060   6.840  0.2297  0.2684 -0.0925
  877YOPE   C4B12814   2.929   8.043   7.148 -0.1156 -0.1250 -0.2196
  878YOPE   NH312815  16.628  14.143   6.331  0.0374  0.0166 -0.3047
  878YOPE   PO412816  16.267  14.140   6.097 -0.0357 -0.0342 -0.1157
  878YOPE   GL112817  15.954  14.277   6.399 -0.0470  0.2327 -0.0924
  878YOPE   GL212818  15.820  14.009   6.396  0.0064  0.0635 -0.1053
  878YOPE   C1A12819  15.845  14.537   6.784 -0.0923 -0.1314 -0.0661
  878YOPE   D2A12820  15.727  14.427   7.178 -0.0244  0.1712  0.0320
  878YOPE   C3A12821  16.005  14.605   7.444 -0.2212  0.0762  0.1730
  878YOPE   C4A12822  16.161  14.639   7.847  0.1935  0.1002 -0.2346
  878YOPE   C1B12823  15.939  13.970   6.825 -0.3364 -0.1117 -0.2640
  878YOPE   C2B12824  16.015  13.768   7.123  0.0238 -0.0300 -0.1682
  878YOPE   D3B12825  16.319  13.653   7.456 -0.0419  0.1223  0.0282
  878YOPE   C4B12826  16.211  13.620   7.955  0.2184 -0.0752 -0.0301
  879YOPE   NH312827  13.289   8.751   5.587  0.0004 -0.3668  0.0560
  879YOPE   PO412828  13.563   8.964   5.665 -0.0708  0.2987  0.0271
  879YOPE   GL112829  13.467   8.833   6.028 -0.0788  0.2499 -0.1636
  879YOPE   GL212830  13.194   8.939   6.168  0.0814  0.0783 -0.0377
  879YOPE   C1A12831  13.718   8.611   6.361  0.3721  0.1809  0.4521
  879YOPE   D2A12832  13.951   8.458   6.646  0.1898  0.0936  0.0333
  879YOPE   C3A12833  14.123   8.699   6.898 -0.1876  0.2843  0.3604
  879YOPE   C4A12834  14.373   9.015   7.068 -0.3255 -0.0181 -0.1405
  879YOPE   C1B12835  13.201   8.783   6.552  0.0549 -0.0526  0.0091
  879YOPE   C2B12836  13.439   8.378   6.701 -0.2944 -0.2983  0.0283
  879YOPE   D3B12837  13.742   8.379   7.056 -0.1295 -0.0256  0.1085
  879YOPE   C4B12838  13.529   8.423   7.542 -0.2765 -0.1822 -0.0784
  880YOPE   NH312839   5.488  13.219   6.301 -0.0843 -0.3542  0.0491
  880YOPE   PO412840   5.190  12.959   6.042 -0.0949 -0.0734 -0.0666
  880YOPE   GL112841   5.060  12.975   6.558  0.2285  0.1361 -0.0112
  880YOPE   GL212842   5.142  13.301   6.638  0.0771  0.4232  0.1639
  880YOPE   C1A12843   4.870  12.914   6.973 -0.0739  0.2295 -0.1028
  880YOPE   D2A12844   4.659  13.207   7.365  0.0014  0.1125  0.1121
  880YOPE   C3A12845   4.708  13.520   7.754 -0.2065  0.0868 -0.0983
  880YOPE   C4A12846   4.703  13.551   8.169  0.1083  0.0470 -0.0714
  880YOPE   C1B12847   5.138  13.393   7.108  0.0148  0.0436  0.0074
  880YOPE   C2B12848   5.095  13.176   7.643  0.1225  0.1441  0.0144
  880YOPE   D3B12849   5.404  13.164   8.025  0.2271  0.0388  0.1896
  880YOPE   C4B12850   5.731  12.758   8.170 -0.2592 -0.0595 -0.1356
  881YOPE   NH312851   0.995  16.897   6.346  0.1984 -0.2412  0.2061
  881YOPE   PO412852   0.586  17.131   6.192  0.1480  0.1980 -0.2987
  881YOPE   GL112853   0.596  17.063   6.647  0.0404  0.1448  0.1287
  881YOPE   GL212854   0.504  16.791   6.626 -0.1694  0.7028 -0.1835
  881YOPE   C1A12855   0.545  16.930   7.131 -0.2244 -0.2648 -0.0841
  881YOPE   D2A12856   0.414  17.253   7.435  0.1117 -0.0336  0.2578
  881YOPE   C3A12857   0.086  17.107   7.617 -0.3005 -0.1763 -0.2081
  881YOPE   C4A12858  -0.160  17.046   7.987  0.1220 -0.1041  0.0533
  881YOPE   C1B12859   0.507  16.474   6.992 -0.1216  0.0957  0.5310
  881YOPE   C2B12860   0.546  16.216   7.361  0.1726  0.1984  0.3148
  881YOPE   D3B12861   0.528  16.135   7.884 -0.0818 -0.2913  0.2259
  881YOPE   C4B12862   0.623  16.264   8.281  0.0852  0.2824 -0.3463
  882POPC   NC312863   5.598  14.559   5.871 -0.0188 -0.0111 -0.1845
  882POPC   PO412864   5.659  14.788   6.251 -0.1070  0.2616  0.1009
  882POPC   GL112865   5.456  14.874   6.643  0.0980 -0.0918 -0.0587
  882POPC   GL212866   5.427  14.504   6.671 -0.1334  0.3840 -0.3246
  882POPC   C1A12867   5.069  15.031   6.906 -0.1080  0.1089  0.1124
  882POPC   D2A12868   4.796  15.007   7.251  0.0963  0.2317  0.1122
  882POPC   C3A12869   4.484  14.844   7.521 -0.1729  0.1040  0.0347
  882POPC   C4A12870   4.297  14.472   7.760 -0.2747  0.3862 -0.0333
  882POPC   C1B12871   5.388  14.286   7.039  0.1136 -0.0503  0.0056
  882POPC   C2B12872   5.489  14.348   7.504 -0.0480 -0.0430 -0.0693
  882POPC   C3B12873   5.341  14.302   7.890 -0.0486  0.0466  0.1631
  882POPC   C4B12874   5.014  14.034   8.195  0.0918 -0.1131  0.1317
  883POPC   NC312875  15.670  15.347   5.990 -0.1545  0.2437 -0.0684
  883POPC   PO412876  15.378  15.055   6.018  0.0987 -0.1242  0.0376
  883POPC   GL112877  15.236  15.195   6.407 -0.0619  0.1288  0.0595
  883POPC   GL212878  15.384  15.519   6.598 -0.1306  0.2927  0.0556
  883POPC   C1A12879  15.017  15.066   6.729  0.1008 -0.2081  0.0121
  883POPC   D2A12880  14.873  15.014   7.080  0.1189 -0.0118  0.0946
  883POPC   C3A12881  14.402  14.750   7.034  0.2231  0.2299  0.2665
  883POPC   C4A12882  14.173  14.749   7.311 -0.3090  0.0682 -0.0039
  883POPC   C1B12883  15.464  15.894   6.848  0.0676 -0.1858  0.0983
  883POPC   C2B12884  15.544  15.941   7.214  0.0114  0.3054 -0.2373
  883POPC   C3B12885  15.587  16.103   7.607  0.1429  0.0393 -0.1017
  883POPC   C4B12886  15.380  15.964   8.063 -0.1582 -0.2492 -0.0440
  884POPC   NC312887   2.115  15.365   6.351 -0.1941  0.1654 -0.0198
  884POPC   PO412888   1.851  15.732   6.319 -0.2734  0.1716 -0.1528
  884POPC   GL112889   2.046  15.601   6.797 -0.1864  0.1437 -0.0741
  884POPC   GL212890   2.247  15.391   6.866 -0.0396 -0.3393  0.0034
  884POPC   C1A12891   1.848  15.301   7.107 -0.0266  0.2327 -0.4975
  884POPC   D2A12892   1.560  14.943   7.281 -0.0868  0.0385 -0.1057
  884POPC   C3A12893   1.397  15.107   7.616  0.0771  0.2042 -0.3268
  884POPC   C4A12894   1.519  15.241   7.995 -0.1743  0.0282 -0.1245
  884POPC   C1B12895   2.605  15.377   7.182 -0.0137  0.1072 -0.1035
  884POPC   C2B12896   2.799  15.269   7.576  0.2216  0.1114  0.0813
  884POPC   C3B12897   2.770  15.150   7.962  0.2883  0.1489  0.0634
  884POPC   C4B12898   2.536  14.778   8.210 -0.1515 -0.2845  0.0970
  885POPC   NC312899   2.219  17.560   6.285  0.0321 -0.0897  0.3309
  885POPC   PO412900   1.918  17.266   6.169 -0.0312 -0.3046  0.0876
  885POPC   GL112901   1.888  17.235   6.552  0.0379 -0.1747  0.1607
  885POPC   GL212902   1.857  17.019   6.672 -0.1115  0.3245  0.0874
  885POPC   C1A12903   1.916  17.426   7.022 -0.0869 -0.3578  0.0317
  885POPC   D2A12904   1.918  17.590   7.358 -0.2306  0.0708 -0.0805
  885POPC   C3A12905   2.307  17.661   7.533  0.0644 -0.4206 -0.2877
  885POPC   C4A12906   2.662  17.626   7.570 -0.0297  0.0807  0.2094
  885POPC   C1B12907   2.153  16.938   6.913  0.0036 -0.0122  0.2428
  885POPC   C2B12908   2.301  16.819   7.267 -0.0364  0.0276  0.2052
  885POPC   C3B12909   2.368  16.589   7.626 -0.1348  0.0915 -0.0840
  885POPC   C4B12910   2.308  16.705   8.121 -0.0085  0.2038 -0.0893
  886POPC   NC312911   9.216   9.954   5.366  0.0682 -0.4835  0.3428
  886POPC   PO412912   9.597   9.722   5.471 -0.2761 -0.4308  0.1077
  886POPC   GL112913   9.472   9.969   5.837 -0.1773 -0.4444 -0.1297
  886POPC   GL212914   9.296   9.744   6.012 -0.2401 -0.1149 -0.0171
  886POPC   C1A12915   9.450  10.190   6.207  0.1784  0.1477 -0.5138
  886POPC   D2A12916   9.523  10.443   6.555  0.2285 -0.2913 -0.1058
  886POPC   C3A12917   9.476  10.913   6.482 -0.1277 -0.0006 -0.2501
  886POPC   C4A12918   9.477  11.306   6.554  0.0143 -0.0516  0.0148
  886POPC   C1B12919   9.536   9.757   6.422  0.1328 -0.0889 -0.0759
  886POPC   C2B12920   9.960   9.721   6.577 -0.1922 -0.3279  0.0612
  886POPC   C3B12921  10.258   9.850   6.781  0.3612 -0.1850  0.2290
  886POPC   C4B12922  10.637  10.078   7.022  0.0022 -0.2472 -0.0705
  887POPC   NC312923  16.979  10.296   5.435  0.2292 -0.0596 -0.0904
  887POPC   PO412924  16.672   9.935   5.391 -0.0777 -0.3119 -0.4283
  887POPC   GL112925  16.538   9.964   5.765  0.0146  0.2430 -0.0023
  887POPC   GL212926  16.318  10.185   5.759 -0.2577  0.0521 -0.2359
  887POPC   C1A12927  16.643   9.571   6.167  0.0746  0.0886  0.3912
  887POPC   D2A12928  16.448   9.480   6.501 -0.1782 -0.0464  0.0553
  887POPC   C3A12929  16.002   9.656   6.526 -0.0412  0.2784  0.2087
  887POPC   C4A12930  15.961  10.179   6.646 -0.1664  0.1286 -0.2596
  887POPC   C1B12931  16.662  10.306   6.107  0.2392 -0.3370 -0.1387
  887POPC   C2B12932  16.862  10.283   6.571  0.3136 -0.1940 -0.2139
  887POPC   C3B12933  16.753  10.234   6.940 -0.1439 -0.3248 -0.1919
  887POPC   C4B12934  16.626  10.400   7.340  0.1928 -0.0667  0.0706
  888POPC   NC312935  12.209  11.364   5.790  0.0561 -0.1454 -0.2374
  888POPC   PO412936  12.199  11.833   5.905 -0.1491 -0.1075 -0.3747
  888POPC   GL112937  12.368  11.611   6.273 -0.1920  0.0443 -0.0102
  888POPC   GL212938  12.205  11.701   6.395 -0.0907  0.1856 -0.0439
  888POPC   C1A12939  12.296  11.274   6.540 -0.1329  0.1507  0.1323
  888POPC   D2A12940  12.181  10.873   6.575  0.0732 -0.0980  0.1075
  888POPC   C3A12941  11.705  10.802   6.565  0.2889  0.0027 -0.3176
  888POPC   C4A12942  11.488  10.410   6.340 -0.1616 -0.0955 -0.2598
  888POPC   C1B12943  12.225  11.624   6.867  0.2514 -0.2055 -0.4410
  888POPC   C2B12944  12.488  11.823   7.188 -0.0267  0.0761  0.2097
  888POPC   C3B12945  12.616  12.036   7.574  0.0160 -0.0180  0.2692
  888POPC   C4B12946  12.445  12.384   7.864  0.1168 -0.0595  0.0215
  889POPC   NC312947   4.123  10.505   5.477  0.1422  0.1500 -0.1582
  889POPC   PO412948   4.017  10.871   5.714  0.3171  0.1319 -0.0202
  889POPC   GL112949   4.013  10.590   6.122 -0.0025  0.0152  0.2297
  889POPC   GL212950   3.678  10.443   6.279 -0.0902 -0.0363  0.0228
  889POPC   C1A12951   4.127  10.252   6.449  0.1546  0.1928  0.0396
  889POPC   D2A12952   4.205   9.980   6.784 -0.2565  0.0049  0.2415
  889POPC   C3A12953   3.944   9.997   7.086  0.0385 -0.1047 -0.5239
  889POPC   C4A12954   3.768   9.875   7.472  0.0300 -0.0133  0.1576
  889POPC   C1B12955   3.668  10.153   6.689 -0.3379  0.3877  0.3713
  889POPC   C2B12956   3.576   9.730   7.004  0.0430  0.0441  0.2359
  889POPC   C3B12957   3.277   9.392   7.220  0.1190 -0.2710  0.2608
  889POPC   C4B12958   3.302   9.000   7.368  0.3155  0.0875 -0.1012
  890POPC   NC312959   3.209  13.406   6.336  0.1739 -0.1930  0.0550
  890POPC   PO412960   3.154  12.899   6.442 -0.1115 -0.1190  0.0121
  890POPC   GL112961   3.139  13.171   6.761  0.0622 -0.1381  0.0624
  890POPC   GL212962   3.416  13.376   6.785  0.1243  0.1935  0.0578
  890POPC   C1A12963   2.942  13.420   7.028 -0.2606 -0.1830 -0.2757
  890POPC   D2A12964   3.185  13.426   7.388 -0.0429 -0.0201  0.1732
  890POPC   C3A12965   3.211  13.241   7.709 -0.0299 -0.0040 -0.1801
  890POPC   C4A12966   3.347  13.213   8.139 -0.0403 -0.0299 -0.1473
  890POPC   C1B12967   3.702  13.370   7.198 -0.3524 -0.0619 -0.1083
  890POPC   C2B12968   3.683  13.451   7.653  0.0628  0.0355 -0.0729
  890POPC   C3B12969   3.688  13.557   8.049 -0.1826  0.0776  0.3120
  890POPC   C4B12970   3.466  13.708   8.381  0.0529 -0.2668  0.0447
  891POPC   NC312971   2.673   8.281   5.807 -0.1672 -0.1445  0.1706
  891POPC   PO412972   2.251   8.564   5.727 -0.1189  0.0139 -0.2094
  891POPC   GL112973   2.366   8.401   6.190 -0.0010 -0.0623 -0.1624
  891POPC   GL212974   2.188   8.423   6.488  0.3296  0.2362  0.1119
  891POPC   C1A12975   2.601   8.653   6.464 -0.1445 -0.1859  0.1753
  891POPC   D2A12976   2.796   8.755   6.834  0.4241 -0.3852 -0.1126
  891POPC   C3A12977   3.151   8.536   6.745  0.2002  0.2068  0.2045
  891POPC   C4A12978   3.614   8.507   6.728 -0.0362  0.0087 -0.0607
  891POPC   C1B12979   1.835   8.505   6.705  0.2416 -0.3926 -0.0893
  891POPC   C2B12980   1.774   8.618   7.066 -0.2884 -0.4498  0.1375
  891POPC   C3B12981   1.769   8.955   7.355  0.0990  0.1197  0.0461
  891POPC   C4B12982   2.157   9.102   7.672  0.0958  0.1269  0.1698
  892POPC   NC312983  18.114   4.731   5.538  0.1152 -0.1967 -0.1038
  892POPC   PO412984  18.460   5.031   5.656 -0.0816 -0.2704 -0.2529
  892POPC   GL112985  18.516   4.927   6.045  0.0743 -0.2971  0.0107
  892POPC   GL212986  18.651   5.052   6.261 -0.2008 -0.0115 -0.2799
  892POPC   C1A12987  18.332   4.740   6.426 -0.2780 -0.3411 -0.1422
  892POPC   D2A12988  18.462   4.942   6.846 -0.0641  0.0343 -0.3411
  892POPC   C3A12989  18.289   5.084   7.202  0.1439 -0.0430 -0.1298
  892POPC   C4A12990  17.822   5.022   7.440 -0.0516 -0.3717  0.6757
  892POPC   C1B12991  18.429   5.437   6.390  0.0960  0.1719 -0.1279
  892POPC   C2B12992  18.466   5.866   6.592 -0.3970 -0.2260 -0.2567
  892POPC   C3B12993  18.370   5.913   7.022 -0.2360 -0.1419  0.0873
  892POPC   C4B12994  18.432   5.768   7.473 -0.3416 -0.0947  0.1014
  893POPC   NC312995   9.248   3.790   4.863  0.0804  0.3314  0.0534
  893POPC   PO412996   9.580   3.831   5.132 -0.1049 -0.1737 -0.0632
  893POPC   GL112997   9.613   3.515   5.358  0.1224  0.4094 -0.0909
  893POPC   GL212998   9.995   3.333   5.292 -0.1583  0.0296 -0.1713
  893POPC   C1A12999   9.536   3.410   5.698  0.5745 -0.0116  0.0300
  893POPC   D2A13000   9.407   3.523   6.129 -0.0117  0.0573 -0.3207
  893POPC   C3A13001   9.437   3.748   6.528 -0.0063  0.0268 -0.3638
  893POPC   C4A13002   9.642   3.666   6.959  0.1194 -0.0843  0.2038
  893POPC   C1B13003  10.015   3.590   5.706  0.3284 -0.1366  0.1213
  893POPC   C2B13004   9.875   3.831   6.121  0.1726  0.0756 -0.1764
  893POPC   C3B13005   9.971   3.833   6.508 -0.0829 -0.5644  0.1568
  893POPC   C4B13006  10.137   3.713   6.864 -0.1824 -0.3300 -0.0575
  894POPC   NC313007   0.006   9.898   5.761 -0.2767  0.6303 -0.0886
  894POPC   PO413008   0.397   9.535   5.671  0.1356 -0.0884 -0.0429
  894POPC   GL113009   0.269   9.477   6.026  0.1851 -0.0578  0.1499
  894POPC   GL213010   0.159   9.125   6.057  0.0370  0.3923 -0.0722
  894POPC   C1A13011   0.038   9.526   6.363  0.2541  0.1644 -0.5069
  894POPC   D2A13012   0.073   9.829   6.733  0.0271  0.1155  0.0196
  894POPC   C3A13013   0.416   9.799   7.018  0.1845 -0.3498  0.0135
  894POPC   C4A13014   0.699   9.554   7.278 -0.1961  0.0598 -0.4332
  894POPC   C1B13015  -0.003   8.944   6.457 -0.1549 -0.0028 -0.1112
  894POPC   C2B13016  -0.375   8.740   6.674  0.2493 -0.0628 -0.1062
  894POPC   C3B13017  -0.440   8.781   7.170  0.3515 -0.0374  0.0364
  894POPC   C4B13018  -0.446   8.762   7.553 -0.3194 -0.2572 -0.3397
  895POPC   NC313019  15.028  13.861   6.104 -0.0736  0.2948 -0.1885
  895POPC   PO413020  14.739  14.300   5.936 -0.2957  0.1326 -0.3617
  895POPC   GL113021  14.738  14.372   6.297  0.2319  0.0647  0.2286
  895POPC   GL213022  14.810  14.064   6.515 -0.3631 -0.0429  0.2253
  895POPC   C1A13023  14.861  14.551   6.778 -0.1816 -0.1016  0.0081
  895POPC   D2A13024  14.919  14.389   7.126  0.1814  0.1244 -0.1871
  895POPC   C3A13025  14.553  14.436   7.379  0.0058  0.4078  0.2053
  895POPC   C4A13026  14.460  14.385   7.797 -0.0661 -0.1272 -0.0818
  895POPC   C1B13027  14.628  14.016   6.965  0.0074  0.1821 -0.0265
  895POPC   C2B13028  14.359  13.952   7.233 -0.0441 -0.4106 -0.2633
  895POPC   C3B13029  14.383  13.940   7.652 -0.2546 -0.0724  0.2250
  895POPC   C4B13030  14.299  13.896   8.061  0.0915  0.2120 -0.2526
  896POPC   NC313031   8.719   4.974   5.232  0.3269  0.0656  0.1251
  896POPC   PO413032   8.529   4.617   5.370  0.1753  0.0393  0.0484
  896POPC   GL113033   8.716   4.403   5.736 -0.1315 -0.4016  0.0908
  896POPC   GL213034   8.964   4.246   5.709 -0.0229  0.0935  0.1241
  896POPC   C1A13035   8.655   4.150   6.205  0.0308 -0.1509 -0.1830
  896POPC   D2A13036   8.635   4.413   6.574 -0.0628 -0.2734  0.1262
  896POPC   C3A13037   8.522   4.816   6.673 -0.0234  0.0329 -0.1961
  896POPC   C4A13038   8.173   4.906   6.917 -0.0172  0.2336 -0.3466
  896POPC   C1B13039   9.007   3.830   5.872 -0.1297  0.1394 -0.0680
  896POPC   C2B13040   8.959   3.713   6.346  0.1649  0.6062  0.1668
  896POPC   C3B13041   8.738   3.850   6.647  0.1019 -0.1594 -0.0882
  896POPC   C4B13042   8.625   3.557   6.956  0.1156  0.2083 -0.0360
  897POPC   NC313043  16.933   5.058   5.545  0.0962  0.0134  0.1140
  897POPC   PO413044  17.397   4.958   5.481  0.0710 -0.0213  0.1423
  897POPC   GL113045  17.445   5.137   5.889  0.1805 -0.1715  0.0287
  897POPC   GL213046  17.717   5.370   6.081  0.2330 -0.2209 -0.1936
  897POPC   C1A13047  17.529   4.967   6.270  0.1221 -0.1455  0.0193
  897POPC   D2A13048  17.756   4.685   6.449 -0.1369  0.0060  0.0388
  897POPC   C3A13049  17.955   4.880   6.800  0.1465 -0.0212 -0.4325
  897POPC   C4A13050  18.153   5.279   6.751  0.2717 -0.2977 -0.0252
  897POPC   C1B13051  17.524   5.690   6.379  0.2529 -0.2297 -0.1972
  897POPC   C2B13052  17.564   5.650   6.880 -0.4061 -0.2221 -0.1491
  897POPC   C3B13053  17.574   5.360   7.157 -0.1532  0.1518  0.2622
  897POPC   C4B13054  17.334   4.941   7.272  0.0551 -0.0707  0.0132
  898POPC   NC313055  13.513  18.404   6.216  0.3772 -0.1692 -0.1092
  898POPC   PO413056  13.207  18.526   6.028 -0.1723  0.3025  0.0940
  898POPC   GL113057  13.321  18.799   6.404  0.1580 -0.1448  0.0441
  898POPC   GL213058  13.614  18.869   6.460  0.0412 -0.1702  0.0676
  898POPC   C1A13059  13.167  18.862   6.853 -0.1985 -0.3553 -0.0389
  898POPC   D2A13060  13.250  19.100   7.290 -0.1908 -0.0825  0.1403
  898POPC   C3A13061  13.546  18.942   7.783  0.1193 -0.0373  0.2254
  898POPC   C4A13062  13.638  18.679   8.103  0.1696 -0.0715  0.0211
  898POPC   C1B13063  13.578  19.163   6.840  0.0809  0.2111 -0.2584
  898POPC   C2B13064  13.914  19.341   6.943  0.0803  0.2743 -0.0268
  898POPC   C3B13065  14.170  19.456   7.346  0.1809  0.1256  0.2063
  898POPC   C4B13066  14.245  19.919   7.357  0.1304  0.0601 -0.2080
  899POPC   NC313067  16.009   6.088   5.731  0.1426 -0.0322 -0.4132
  899POPC   PO413068  15.628   6.247   5.525 -0.1186 -0.0187 -0.0293
  899POPC   GL113069  15.607   6.313   5.957 -0.1381 -0.1871  0.0261
  899POPC   GL213070  15.939   6.371   6.172  0.1858  0.4022  0.1940
  899POPC   C1A13071  15.454   6.434   6.393 -0.2443  0.1857  0.3747
  899POPC   D2A13072  15.306   6.535   6.691  0.1055  0.3182  0.1208
  899POPC   C3A13073  15.285   6.280   7.116  0.1289 -0.2361 -0.3113
  899POPC   C4A13074  15.393   6.011   7.400  0.1076 -0.0971 -0.0638
  899POPC   C1B13075  16.124   6.517   6.461  0.0222  0.2559 -0.0589
  899POPC   C2B13076  16.199   6.447   6.846 -0.0219  0.1765  0.0822
  899POPC   C3B13077  16.222   6.681   7.206  0.1557 -0.3141  0.3119
  899POPC   C4B13078  16.113   6.881   7.580  0.0979  0.2707  0.0066
  900POPC   NC313079  16.491  17.175   5.311  0.0297 -0.0010  0.1194
  900POPC   PO413080  16.439  17.485   5.552 -0.0575  0.2308 -0.0533
  900POPC   GL113081  16.657  17.507   5.910 -0.1184 -0.2775 -0.1428
  900POPC   GL213082  16.571  17.789   6.119 -0.2587  0.2189  0.0921
  900POPC   C1A13083  16.844  17.271   6.161 -0.0100 -0.1101 -0.0375
  900POPC   D2A13084  16.881  17.022   6.428  0.0113 -0.0001 -0.3293
  900POPC   C3A13085  16.520  16.675   6.612 -0.0546  0.0086 -0.3655
  900POPC   C4A13086  16.288  16.333   6.396  0.1489 -0.2952  0.0477
  900POPC   C1B13087  16.537  17.494   6.516  0.0552 -0.3546  0.1026
  900POPC   C2B13088  16.258  17.549   6.825 -0.2574 -0.0372  0.5684
  900POPC   C3B13089  16.104  17.249   7.191  0.1873  0.4359  0.1856
  900POPC   C4B13090  16.173  17.294   7.667  0.1870 -0.0238  0.0070
  901POPC   NC313091   3.839   4.236   5.616  0.2586  0.0020 -0.3590
  901POPC   PO413092   4.266   4.116   5.568  0.3279 -0.5184 -0.1569
  901POPC   GL113093   4.140   3.899   5.899 -0.1462 -0.0066  0.0114
  901POPC   GL213094   4.444   3.851   6.017  0.3029  0.1343  0.1158
  901POPC   C1A13095   3.843   3.790   6.232  0.0780 -0.0281 -0.0711
  901POPC   D2A13096   3.823   3.578   6.497 -0.0120  0.4234 -0.1585
  901POPC   C3A13097   3.700   3.601   6.790 -0.2441  0.2948 -0.1233
  901POPC   C4A13098   3.687   3.964   7.040 -0.2184 -0.0003  0.0595
  901POPC   C1B13099   4.339   3.719   6.518 -0.3777  0.1803 -0.0830
  901POPC   C2B13100   4.227   3.496   6.843  0.1717  0.1990  0.5038
  901POPC   C3B13101   4.353   3.026   6.887 -0.0186 -0.0624  0.3363
  901POPC   C4B13102   4.404   2.561   6.979 -0.0382  0.0264 -0.1766
  902POPC   NC313103  12.387  13.087   6.293 -0.2154  0.0274 -0.0314
  902POPC   PO413104  12.226  13.459   6.140 -0.1011  0.2696 -0.2203
  902POPC   GL113105  12.022  13.405   6.505 -0.1030 -0.1040 -0.0463
  902POPC   GL213106  12.196  13.085   6.756  0.0608  0.0978  0.2102
  902POPC   C1A13107  11.966  13.444   6.944  0.2010 -0.1008 -0.0279
  902POPC   D2A13108  12.081  13.509   7.301 -0.2038 -0.0313  0.3720
  902POPC   C3A13109  12.096  13.738   7.671  0.0302 -0.1598  0.0282
  902POPC   C4A13110  12.236  13.619   8.010  0.0285 -0.2725 -0.3176
  902POPC   C1B13111  12.144  12.918   7.147 -0.2343  0.0746  0.0857
  902POPC   C2B13112  12.018  12.606   7.547 -0.0506  0.0473 -0.0816
  902POPC   C3B13113  11.951  12.291   7.912 -0.2199 -0.3396  0.1955
  902POPC   C4B13114  11.815  11.919   8.170 -0.3791 -0.0727  0.2002
  903POPC   NC313115  17.638  15.814   6.227 -0.1112 -0.0613  0.1922
  903POPC   PO413116  18.005  15.750   6.386  0.1846 -0.0543 -0.1620
  903POPC   GL113117  17.967  16.096   6.604  0.1030  0.2123 -0.0749
  903POPC   GL213118  18.108  16.438   6.416 -0.0870 -0.0500 -0.1646
  903POPC   C1A13119  18.038  16.327   6.976  0.1890  0.1231 -0.0429
  903POPC   D2A13120  18.226  16.704   7.024  0.2502  0.2837  0.1280
  903POPC   C3A13121  18.585  16.755   7.262 -0.2509 -0.1659  0.0518
  903POPC   C4A13122  18.853  16.636   7.557  0.3123 -0.0342 -0.0800
  903POPC   C1B13123  17.762  16.588   6.651 -0.1010 -0.1255 -0.0134
  903POPC   C2B13124  17.570  16.559   7.056 -0.2705  0.1904  0.0434
  903POPC   C3B13125  17.470  16.521   7.473  0.3963  0.0266 -0.2399
  903POPC   C4B13126  17.361  16.577   7.969 -0.1450  0.2424 -0.1253
  904POPC   NC313127   5.872  14.139   6.637 -0.1639 -0.0217 -0.3558
  904POPC   PO413128   5.956  14.592   6.606 -0.3079 -0.1296 -0.0357
  904POPC   GL113129   5.841  14.639   6.947  0.2492 -0.3437 -0.2565
  904POPC   GL213130   6.213  14.545   7.010  0.0791 -0.0866  0.4506
  904POPC   C1A13131   5.443  14.826   7.152 -0.0913 -0.1984 -0.3040
  904POPC   D2A13132   5.304  15.080   7.388  0.2906 -0.1118 -0.2368
  904POPC   C3A13133   5.365  15.332   7.744  0.3054 -0.2869  0.1908
  904POPC   C4A13134   5.794  15.436   7.780 -0.2503  0.3615  0.0847
  904POPC   C1B13135   6.297  14.108   7.091 -0.1119 -0.2416 -0.2549
  904POPC   C2B13136   6.384  14.030   7.589 -0.2377  0.0920  0.0739
  904POPC   C3B13137   6.640  13.861   7.872  0.0893 -0.1530 -0.0642
  904POPC   C4B13138   6.749  14.048   8.212 -0.0719 -0.0250 -0.1936
  905POPC   NC313139   1.127  12.023   6.094 -0.2719 -0.2125 -0.3411
  905POPC   PO413140   1.386  11.695   6.197 -0.2139  0.1106 -0.0951
  905POPC   GL113141   1.251  11.882   6.576 -0.1406  0.1720  0.2342
  905POPC   GL213142   1.322  12.244   6.579 -0.1910 -0.1213  0.0444
  905POPC   C1A13143   0.949  11.596   6.776 -0.0746 -0.1472 -0.0518
  905POPC   D2A13144   0.665  11.576   7.108 -0.0745 -0.0868 -0.2024
  905POPC   C3A13145   0.495  11.398   7.464 -0.0603  0.0287 -0.2030
  905POPC   C4A13146   0.460  11.072   7.758 -0.1223 -0.0508 -0.1365
  905POPC   C1B13147   1.115  12.114   7.010 -0.2984  0.0669 -0.1921
  905POPC   C2B13148   0.958  12.249   7.479  0.4161  0.0640  0.0981
  905POPC   C3B13149   0.625  12.259   7.804 -0.2294  0.1339 -0.2406
  905POPC   C4B13150   0.407  12.039   8.189 -0.0149  0.0816  0.0959
  906POPC   NC313151  12.437  10.649   5.458  0.1391 -0.2217  0.0483
  906POPC   PO413152  12.083  10.830   5.740 -0.0625  0.1421 -0.2039
  906POPC   GL113153  12.161  10.532   6.060 -0.0358  0.1291 -0.0213
  906POPC   GL213154  12.400  10.536   6.274 -0.1829 -0.0500  0.1036
  906POPC   C1A13155  11.968  10.386   6.486  0.2286  0.1456  0.5350
  906POPC   D2A13156  11.900  10.501   6.882 -0.2116 -0.4116  0.1996
  906POPC   C3A13157  11.661  10.740   7.106 -0.3273  0.0467  0.0181
  906POPC   C4A13158  11.530  11.124   7.258  0.0251  0.0800  0.0878
  906POPC   C1B13159  12.748  10.528   6.532  0.0133  0.1181  0.0515
  906POPC   C2B13160  12.961  10.389   6.864 -0.1485 -0.3269  0.1678
  906POPC   C3B13161  12.759  10.069   7.152 -0.5814  0.0089  0.1526
  906POPC   C4B13162  12.558   9.774   7.515  0.2223 -0.0516  0.0228
  907POPC   NC313163  17.530   8.975   5.521 -0.1488 -0.0007  0.0149
  907POPC   PO413164  17.499   8.605   5.710 -0.2153  0.2194  0.1602
  907POPC   GL113165  17.249   8.501   6.089  0.3530  0.1222 -0.1736
  907POPC   GL213166  16.889   8.666   5.955 -0.1476 -0.1035  0.0126
  907POPC   C1A13167  17.155   8.832   6.386  0.2925  0.0230 -0.1726
  907POPC   D2A13168  17.205   9.006   6.828  0.2498  0.1508  0.1147
  907POPC   C3A13169  17.074   9.297   7.100  0.0114 -0.0097  0.0485
  907POPC   C4A13170  16.691   9.408   7.357  0.5418  0.0558 -0.1825
  907POPC   C1B13171  16.808   8.404   6.275  0.1085  0.1695  0.1821
  907POPC   C2B13172  16.609   8.086   6.478 -0.1514  0.0428  0.0632
  907POPC   C3B13173  16.535   7.678   6.516  0.1949  0.1646 -0.1330
  907POPC   C4B13174  16.615   7.366   6.881  0.2693  0.1806 -0.0991
  908POPC   NC313175  13.183   1.202   6.073 -0.0753  0.1526  0.1854
  908POPC   PO413176  12.763   1.382   5.965 -0.1368  0.1285  0.1143
  908POPC   GL113177  12.691   1.259   6.326  0.0556  0.0416 -0.0788
  908POPC   GL213178  12.975   1.306   6.551  0.0914 -0.0577 -0.0867
  908POPC   C1A13179  12.422   1.152   6.708  0.1044  0.1500  0.0982
  908POPC   D2A13180  12.151   1.129   7.101  0.2705 -0.4368 -0.0515
  908POPC   C3A13181  11.788   1.320   7.236 -0.2651 -0.2838  0.1334
  908POPC   C4A13182  11.405   1.331   7.119 -0.2669  0.1687  0.2667
  908POPC   C1B13183  12.809   1.342   6.905  0.0600  0.1313  0.0127
  908POPC   C2B13184  12.930   1.650   7.223 -0.1188 -0.1460 -0.3724
  908POPC   C3B13185  12.676   1.567   7.656  0.2745  0.0395 -0.0137
  908POPC   C4B13186  12.640   1.706   8.130 -0.0948  0.0647  0.3472
  909POPC   NC313187  15.341   6.517   5.203 -0.2465  0.1406  0.2669
  909POPC   PO413188  15.049   6.804   5.392  0.1429  0.0593  0.2402
  909POPC   GL113189  15.030   7.041   5.879  0.0132 -0.3997 -0.0107
  909POPC   GL213190  14.814   6.922   6.115  0.0082 -0.0889  0.0901
  909POPC   C1A13191  15.199   7.402   6.251  0.2399 -0.1531  0.2513
  909POPC   D2A13192  15.105   7.453   6.707  0.1929 -0.2459 -0.0346
  909POPC   C3A13193  15.241   7.466   7.120 -0.0113  0.2419  0.0101
  909POPC   C4A13194  15.604   7.697   7.260 -0.0819  0.2856  0.2506
  909POPC   C1B13195  14.524   6.477   6.300  0.1321 -0.3946 -0.1332
  909POPC   C2B13196  14.483   6.442   6.713  0.0057  0.0791 -0.3367
  909POPC   C3B13197  14.445   6.657   7.048 -0.1408 -0.1617  0.1899
  909POPC   C4B13198  14.324   7.090   7.086 -0.0259 -0.1060  0.2414
  910POPC   NC313199   6.263  17.178   5.806 -0.0830 -0.0036 -0.0688
  910POPC   PO413200   6.388  16.764   5.988 -0.1996  0.0135  0.0530
  910POPC   GL113201   6.587  16.567   6.342 -0.0725  0.2623 -0.2270
  910POPC   GL213202   6.820  16.374   6.266 -0.0134  0.0079  0.0541
  910POPC   C1A13203   6.554  16.690   6.795 -0.1121  0.1795  0.0611
  910POPC   D2A13204   6.786  16.774   7.190  0.0859 -0.1022 -0.1066
  910POPC   C3A13205   6.922  17.246   7.278  0.0227 -0.1055 -0.2704
  910POPC   C4A13206   6.875  17.323   7.730  0.0656  0.2181  0.1548
  910POPC   C1B13207   7.078  16.598   6.488  0.2455 -0.2897 -0.1196
  910POPC   C2B13208   7.262  16.999   6.729 -0.0989  0.0969  0.0742
  910POPC   C3B13209   7.331  16.928   7.169 -0.0702  0.1245  0.0960
  910POPC   C4B13210   7.158  16.898   7.576  0.0233 -0.2154  0.3529
  911POPC   NC313211   5.243   1.481   5.833 -0.0185 -0.1448  0.0595
  911POPC   PO413212   5.556   1.182   6.060  0.3592  0.3939 -0.0460
  911POPC   GL113213   5.788   1.019   6.360  0.1147 -0.1854  0.2241
  911POPC   GL213214   6.068   0.800   6.332 -0.0672  0.0745 -0.1529
  911POPC   C1A13215   5.722   1.025   6.763  0.1126  0.2433 -0.0233
  911POPC   D2A13216   5.510   1.190   7.004 -0.1214  0.1558  0.2892
  911POPC   C3A13217   5.630   1.304   7.267  0.4742  0.0208 -0.2388
  911POPC   C4A13218   5.758   1.245   7.746 -0.1903  0.1023 -0.2374
  911POPC   C1B13219   6.214   0.853   6.716  0.2937  0.3142  0.2418
  911POPC   C2B13220   6.324   0.845   7.174  0.4108 -0.1793  0.0188
  911POPC   C3B13221   6.563   1.184   7.442  0.1612  0.0062  0.1144
  911POPC   C4B13222   6.548   1.676   7.572  0.2808  0.1564  0.2641
  912POPC   NC313223  17.856   1.266   5.828 -0.1961 -0.2054 -0.0037
  912POPC   PO413224  18.137   0.946   5.904 -0.0487  0.2965  0.0877
  912POPC   GL113225  17.943   0.859   6.213  0.3010  0.1046 -0.0751
  912POPC   GL213226  17.728   1.054   6.336  0.0007 -0.0071 -0.2050
  912POPC   C1A13227  17.717   0.641   6.580  0.0362 -0.2192 -0.0035
  912POPC   D2A13228  17.618   0.704   7.071 -0.2998 -0.2266  0.0047
  912POPC   C3A13229  17.720   0.362   7.420  0.1168 -0.2397  0.1727
  912POPC   C4A13230  17.721  -0.034   7.709 -0.4721  0.0786 -0.0708
  912POPC   C1B13231  17.756   1.098   6.785  0.0602 -0.0021 -0.2135
  912POPC   C2B13232  18.097   0.973   7.165  0.3256 -0.0653 -0.2383
  912POPC   C3B13233  18.182   0.811   7.504  0.2479  0.0018  0.0336
  912POPC   C4B13234  17.950   0.532   7.846  0.2383 -0.2049 -0.2778
  913POPC   NC313235   3.010   4.413   5.582 -0.6493  0.2431 -0.2364
  913POPC   PO413236   3.364   4.209   5.809 -0.1225 -0.1899  0.0708
  913POPC   GL113237   3.456   4.432   6.094  0.2947  0.0219 -0.1577
  913POPC   GL213238   3.329   4.749   6.077  0.0813  0.1232 -0.0915
  913POPC   C1A13239   3.673   4.423   6.545 -0.2029  0.0605 -0.0915
  913POPC   D2A13240   3.639   4.541   7.055  0.3246 -0.2378 -0.4725
  913POPC   C3A13241   3.206   4.752   7.219  0.2268 -0.0207  0.2298
  913POPC   C4A13242   2.915   4.815   7.434 -0.2804 -0.0930  0.2373
  913POPC   C1B13243   3.263   5.190   6.352 -0.3711  0.1644  0.0750
  913POPC   C2B13244   3.457   5.436   6.712 -0.0558 -0.2186  0.0861
  913POPC   C3B13245   3.675   5.500   7.095 -0.0961  0.0205  0.1998
  913POPC   C4B13246   4.129   5.341   7.281  0.0962 -0.1197  0.0070
  914POPC   NC313247   1.554  18.077   5.626 -0.2570 -0.4732 -0.1005
  914POPC   PO413248   1.302  17.750   5.889  0.0880  0.2383 -0.2256
  914POPC   GL113249   1.173  17.866   6.301  0.0542 -0.0254 -0.0373
  914POPC   GL213250   1.109  17.715   6.617  0.0328  0.3316 -0.2053
  914POPC   C1A13251   1.146  18.215   6.591 -0.0022 -0.0772 -0.3515
  914POPC   D2A13252   1.101  18.170   7.003 -0.0689 -0.1332  0.1472
  914POPC   C3A13253   0.808  18.135   7.256  0.1865  0.2363  0.4945
  914POPC   C4A13254   0.749  18.185   7.658 -0.1138 -0.2647  0.0436
  914POPC   C1B13255   0.939  17.656   7.057 -0.2443  0.0179  0.0825
  914POPC   C2B13256   0.892  17.730   7.502  0.0601  0.1260 -0.0856
  914POPC   C3B13257   0.595  17.615   7.787 -0.3382  0.2468 -0.1946
  914POPC   C4B13258   0.298  17.835   7.985  0.2054  0.0486  0.2031
  915POPC   NC313259  17.874  10.381   5.480 -0.0695 -0.3544 -0.0466
  915POPC   PO413260  17.443  10.211   5.561  0.0743 -0.0130 -0.0231
  915POPC   GL113261  17.608   9.869   5.911 -0.0751  0.2354 -0.2217
  915POPC   GL213262  17.638  10.052   6.124  0.4993  0.0440 -0.0205
  915POPC   C1A13263  17.690   9.599   6.351  0.1707 -0.1036 -0.0653
  915POPC   D2A13264  17.837   9.602   6.734  0.1216 -0.0500  0.1550
  915POPC   C3A13265  18.020   9.828   6.941 -0.1309  0.3246 -0.2375
  915POPC   C4A13266  18.350   9.743   7.225 -0.0184  0.1428 -0.0146
  915POPC   C1B13267  17.279   9.992   6.356 -0.1711 -0.0401  0.1598
  915POPC   C2B13268  16.946   9.769   6.589  0.0998 -0.0858  0.0486
  915POPC   C3B13269  16.890   9.764   6.975 -0.2520  0.2041  0.1098
  915POPC   C4B13270  16.673   9.876   7.288  0.2151  0.0280 -0.1049
  916POPC   NC313271  16.975  17.757   5.607 -0.1209  0.2539  0.0778
  916POPC   PO413272  17.294  17.493   5.400  0.0001  0.1532  0.0063
  916POPC   GL113273  17.353  17.425   5.830  0.0114  0.0791  0.0964
  916POPC   GL213274  17.283  17.736   6.021 -0.0937 -0.0588  0.3515
  916POPC   C1A13275  17.340  17.278   6.242 -0.0395  0.1404  0.0963
  916POPC   D2A13276  17.438  16.955   6.356 -0.3650 -0.2564  0.1219
  916POPC   C3A13277  17.509  16.989   6.858  0.2198 -0.1012 -0.1974
  916POPC   C4A13278  17.421  16.998   7.350 -0.0939 -0.2391 -0.1624
  916POPC   C1B13279  17.524  17.867   6.371  0.0112 -0.1181  0.1063
  916POPC   C2B13280  17.540  17.962   6.781  0.0231 -0.1133 -0.0707
  916POPC   C3B13281  17.174  17.941   6.964 -0.0899 -0.0024  0.4402
  916POPC   C4B13282  17.054  17.707   7.357  0.0612 -0.0460  0.1687
  917POPC   NC313283  12.729   1.879   5.912  0.0443 -0.1026  0.0768
  917POPC   PO413284  13.156   2.068   5.776  0.1484 -0.3830 -0.2737
  917POPC   GL113285  13.096   2.235   6.149  0.1828 -0.0090 -0.0520
  917POPC   GL213286  13.154   2.476   6.227 -0.1220  0.2139  0.2789
  917POPC   C1A13287  13.020   2.103   6.680 -0.0188 -0.0724  0.1865
  917POPC   D2A13288  13.009   2.274   7.021 -0.0260 -0.0019 -0.0484
  917POPC   C3A13289  13.256   2.062   7.389  0.2131  0.0543  0.0862
  917POPC   C4A13290  13.205   2.194   7.890  0.4751  0.1755  0.0414
  917POPC   C1B13291  13.112   2.801   6.514  0.1081  0.1183 -0.0412
  917POPC   C2B13292  12.930   3.238   6.721 -0.2086 -0.2681 -0.3212
  917POPC   C3B13293  13.087   3.365   7.144  0.0965 -0.2346 -0.3584
  917POPC   C4B13294  12.997   3.505   7.513 -0.0492  0.1123  0.0466
  918POPC   NC313295  12.063   0.034   5.742 -0.3331  0.3695 -0.5729
  918POPC   PO413296  11.803  -0.389   5.775 -0.0175 -0.3339 -0.0481
  918POPC   GL113297  11.979  -0.499   6.189 -0.0918 -0.0122 -0.3124
  918POPC   GL213298  12.119  -0.294   6.265 -0.2074 -0.2264 -0.1661
  918POPC   C1A13299  11.973  -0.667   6.602  0.1221 -0.0577 -0.1278
  918POPC   D2A13300  11.922  -0.961   6.848 -0.1566 -0.2484  0.0513
  918POPC   C3A13301  11.511  -1.078   7.042  0.0030 -0.0505  0.1082
  918POPC   C4A13302  11.187  -1.191   7.493  0.3948  0.3384  0.1740
  918POPC   C1B13303  12.073  -0.218   6.761 -0.1598  0.1711  0.0942
  918POPC   C2B13304  12.144  -0.133   7.161  0.0789  0.0110 -0.1863
  918POPC   C3B13305  12.116  -0.128   7.583  0.0076  0.0824  0.0785
  918POPC   C4B13306  12.186  -0.067   7.952 -0.0855  0.1626  0.1775
  919POPC   NC313307  11.755   3.894   5.625 -0.1427  0.2777 -0.1718
  919POPC   PO413308  11.944   4.169   5.591  0.0637  0.1557  0.0865
  919POPC   GL113309  12.081   4.159   6.011 -0.0054 -0.4033  0.0119
  919POPC   GL213310  12.371   3.983   5.947  0.0063 -0.0812  0.3884
  919POPC   C1A13311  12.155   4.458   6.371 -0.1014  0.1872 -0.2863
  919POPC   D2A13312  12.299   4.371   6.784  0.0365 -0.5483  0.0803
  919POPC   C3A13313  12.368   4.121   7.033 -0.0683 -0.1697 -0.1450
  919POPC   C4A13314  12.557   4.040   7.385  0.0494 -0.3515  0.1096
  919POPC   C1B13315  12.043   3.661   6.163  0.0682  0.1795  0.3135
  919POPC   C2B13316  12.100   3.424   6.519 -0.0392  0.1137 -0.5037
  919POPC   C3B13317  12.302   3.618   6.952  0.1698  0.1956  0.0076
  919POPC   C4B13318  12.080   3.787   7.225 -0.2568 -0.4064 -0.2005
  920POPC   NC313319   6.098   3.952   5.582  0.2370  0.0924 -0.3917
  920POPC   PO413320   5.989   3.567   5.425  0.1305  0.0039  0.3092
  920POPC   GL113321   6.064   3.406   5.899 -0.3311  0.1494 -0.0786
  920POPC   GL213322   5.836   3.263   6.096  0.1925  0.0202  0.0803
  920POPC   C1A13323   6.200   3.540   6.261 -0.0347  0.1044  0.1185
  920POPC   D2A13324   5.983   3.703   6.606  0.1149  0.2228  0.0469
  920POPC   C3A13325   5.743   3.487   6.942 -0.1097 -0.0456  0.3323
  920POPC   C4A13326   5.563   3.170   7.262  0.0993  0.1861  0.1164
  920POPC   C1B13327   5.799   3.160   6.480 -0.0123  0.1251  0.0508
  920POPC   C2B13328   5.838   3.000   6.855  0.0521  0.2266 -0.0927
  920POPC   C3B13329   6.115   2.835   7.239 -0.0089  0.2176 -0.1322
  920POPC   C4B13330   6.545   2.889   7.292 -0.0229 -0.1703 -0.0503
  921POPC   NC313331  14.218   9.825   5.401 -0.2368 -0.0786  0.0242
  921POPC   PO413332  13.739   9.829   5.532  0.0387 -0.0714 -0.3015
  921POPC   GL113333  13.545   9.539   5.879 -0.1159  0.0662 -0.1535
  921POPC   GL213334  13.777   9.504   6.223  0.1193 -0.0358 -0.4400
  921POPC   C1A13335  13.288   9.494   6.182 -0.2856 -0.0704 -0.1540
  921POPC   D2A13336  13.316   9.282   6.562  0.4460 -0.1169  0.0590
  921POPC   C3A13337  13.328   9.432   7.033 -0.0214 -0.2411 -0.2599
  921POPC   C4A13338  13.494   9.352   7.520 -0.2119 -0.1075 -0.1813
  921POPC   C1B13339  13.735   9.533   6.638  0.2967 -0.1729  0.0571
  921POPC   C2B13340  13.783   9.336   7.012  0.0225 -0.0763  0.2445
  921POPC   C3B13341  13.979   9.404   7.390  0.1212 -0.1870  0.0659
  921POPC   C4B13342  14.041   9.488   7.744 -0.3751  0.2064  0.0265
  922YOPC   NC313343   6.803  16.904   5.718 -0.1583 -0.1061 -0.2189
  922YOPC   PO413344   6.602  17.288   5.493 -0.0658  0.0343  0.2448
  922YOPC   GL113345   6.690  17.451   5.939  0.5785  0.0775 -0.1032
  922YOPC   GL213346   6.812  17.849   6.074 -0.1185  0.0495  0.3451
  922YOPC   C1A13347   6.799  17.459   6.418 -0.0981 -0.3757  0.0342
  922YOPC   D2A13348   6.762  17.423   6.808  0.0276  0.2296  0.0665
  922YOPC   C3A13349   6.927  17.789   7.102  0.2010 -0.0760  0.1121
  922YOPC   C4A13350   7.121  17.763   7.490  0.1494  0.1319 -0.4131
  922YOPC   C1B13351   7.031  17.870   6.507  0.0291 -0.2755 -0.0147
  922YOPC   C2B13352   7.313  18.033   6.910 -0.0352  0.0349 -0.3227
  922YOPC   D3B13353   7.712  18.252   6.868 -0.2058  0.1228  0.2426
  922YOPC   C4B13354   7.946  18.658   6.911 -0.0181  0.1107 -0.0390
  923YOPC   NC313355  15.206  15.965   5.555 -0.0503 -0.1744 -0.1374
  923YOPC   PO413356  15.305  16.179   5.889  0.0718  0.0249  0.3304
  923YOPC   GL113357  15.342  16.240   6.350  0.1314 -0.2055  0.1587
  923YOPC   GL213358  14.999  16.461   6.280  0.4279 -0.0915  0.2887
  923YOPC   C1A13359  15.111  16.276   6.774  0.2767  0.0703 -0.2516
  923YOPC   D2A13360  15.073  16.445   7.164 -0.0126 -0.2775 -0.1200
  923YOPC   C3A13361  15.082  16.297   7.663  0.2323 -0.3619  0.0717
  923YOPC   C4A13362  14.836  15.987   7.887 -0.1593 -0.2088 -0.0067
  923YOPC   C1B13363  15.246  16.681   6.570 -0.5135 -0.0629  0.1510
  923YOPC   C2B13364  15.388  16.801   6.969  0.0397 -0.0284  0.0618
  923YOPC   D3B13365  15.479  17.218   7.186 -0.2941 -0.0627  0.0052
  923YOPC   C4B13366  15.618  17.497   7.503 -0.0412 -0.1255  0.0763
  924YOPC   NC313367   3.298   6.608   5.777  0.2820  0.2510 -0.1612
  924YOPC   PO413368   3.387   6.232   5.547 -0.2846 -0.0157 -0.1036
  924YOPC   GL113369   3.406   6.037   5.971 -0.0746  0.1133 -0.1264
  924YOPC   GL213370   3.782   5.931   5.935 -0.1320  0.0714  0.5316
  924YOPC   C1A13371   3.333   6.264   6.285 -0.1280  0.1230  0.0887
  924YOPC   D2A13372   3.425   6.703   6.430  0.0345 -0.0063  0.2133
  924YOPC   C3A13373   3.236   6.814   6.735 -0.1440 -0.0338 -0.0858
  924YOPC   C4A13374   2.964   6.965   7.068 -0.0454 -0.2292 -0.0182
  924YOPC   C1B13375   3.820   6.246   6.260  0.0647  0.0891  0.3311
  924YOPC   C2B13376   3.866   6.490   6.673 -0.0394  0.0295  0.1719
  924YOPC   D3B13377   3.593   6.533   6.910 -0.0583 -0.1468  0.1857
  924YOPC   C4B13378   3.287   6.543   7.297  0.4347  0.2209  0.0693
  925YOPC   NC313379   1.872   7.891   5.576  0.1931 -0.0813 -0.0600
  925YOPC   PO413380   2.246   8.020   5.771  0.0332  0.0105 -0.0134
  925YOPC   GL113381   2.028   8.040   6.234 -0.1319 -0.0366  0.1743
  925YOPC   GL213382   1.786   8.170   6.302 -0.2393 -0.3184 -0.2380
  925YOPC   C1A13383   2.026   8.045   6.759 -0.1330 -0.1679  0.1647
  925YOPC   D2A13384   1.995   8.192   7.195 -0.0483 -0.1092 -0.1403
  925YOPC   C3A13385   2.338   8.083   7.541  0.3049 -0.1979  0.0963
  925YOPC   C4A13386   2.362   7.884   7.977 -0.3376  0.0727  0.1437
  925YOPC   C1B13387   1.495   8.236   6.553  0.0742 -0.2465  0.3278
  925YOPC   C2B13388   1.319   8.472   6.941  0.3914 -0.1517 -0.0716
  925YOPC   D3B13389   1.103   8.788   7.035 -0.0993 -0.2815  0.2354
  925YOPC   C4B13390   0.984   9.089   7.316  0.2258 -0.0738  0.1428
  926YOPC   NC313391  11.305  18.047   5.818 -0.1626 -0.3520  0.0844
  926YOPC   PO413392  11.074  17.745   5.979  0.3368  0.3157  0.2883
  926YOPC   GL113393  11.266  17.833   6.388 -0.1199 -0.1005 -0.1072
  926YOPC   GL213394  10.918  17.783   6.552 -0.1036 -0.4174  0.2889
  926YOPC   C1A13395  11.489  17.821   6.672  0.0339  0.0956 -0.0725
  926YOPC   D2A13396  11.743  17.919   7.087  0.1955  0.0592 -0.1440
  926YOPC   C3A13397  11.568  18.330   7.175  0.3433  0.1015 -0.0878
  926YOPC   C4A13398  11.625  18.581   7.586  0.0107  0.2417 -0.0244
  926YOPC   C1B13399  10.704  17.626   6.878 -0.3252 -0.3180 -0.1833
  926YOPC   C2B13400  10.556  17.764   7.151  0.0496  0.1119 -0.1924
  926YOPC   D3B13401  10.185  17.856   7.044 -0.0018 -0.1327 -0.1838
  926YOPC   C4B13402   9.786  17.604   6.926  0.0449  0.0769  0.3007
  927YOPC   NC313403   6.031   7.665   5.153  0.1754 -0.0336 -0.0297
  927YOPC   PO413404   5.620   7.409   5.336 -0.0219 -0.0236  0.1402
  927YOPC   GL113405   5.898   7.413   5.653 -0.1137  0.1841  0.2531
  927YOPC   GL213406   6.295   7.480   5.575  0.2900  0.0115  0.3323
  927YOPC   C1A13407   5.798   7.051   5.855 -0.2659 -0.1312  0.1882
  927YOPC   D2A13408   6.062   7.026   6.250 -0.0917 -0.0331  0.3119
  927YOPC   C3A13409   6.188   6.915   6.625 -0.0519 -0.2373 -0.2455
  927YOPC   C4A13410   6.087   6.688   6.968  0.1770  0.0813 -0.3531
  927YOPC   C1B13411   6.264   7.482   6.089  0.1860 -0.0718  0.2071
  927YOPC   C2B13412   6.273   7.425   6.567 -0.1912  0.0774  0.1037
  927YOPC   D3B13413   6.537   7.568   6.846  0.1196 -0.0455  0.2652
  927YOPC   C4B13414   6.317   7.674   7.207  0.4829  0.0470 -0.1361
  928YOPC   NC313415   6.846   6.264   5.468  0.3227  0.0447 -0.0762
  928YOPC   PO413416   6.800   6.699   5.439 -0.1099 -0.1786  0.2316
  928YOPC   GL113417   6.528   6.588   5.733 -0.2132  0.1260  0.2037
  928YOPC   GL213418   6.225   6.801   5.727  0.2247  0.1359 -0.2558
  928YOPC   C1A13419   6.312   6.615   6.200  0.1263  0.1930 -0.3238
  928YOPC   D2A13420   6.016   6.479   6.531  0.0738 -0.1499  0.0592
  928YOPC   C3A13421   5.720   6.271   6.424  0.2753 -0.1313  0.0360
  928YOPC   C4A13422   5.409   6.170   6.082 -0.1154  0.1070 -0.1952
  928YOPC   C1B13423   6.578   7.156   5.899  0.0948  0.1115  0.1563
  928YOPC   C2B13424   6.679   7.349   6.355 -0.1122 -0.0999  0.1861
  928YOPC   D3B13425   6.662   7.065   6.711 -0.0105 -0.2212 -0.1516
  928YOPC   C4B13426   6.945   6.826   6.870 -0.1014 -0.0369 -0.2697
  929YOPC   NC313427  15.862   0.123   5.717  0.1816  0.1144  0.2565
  929YOPC   PO413428  16.315  -0.039   5.834 -0.2333  0.4310 -0.3036
  929YOPC   GL113429  16.265  -0.213   6.228 -0.1627 -0.1291  0.0575
  929YOPC   GL213430  16.293  -0.028   6.443 -0.0718 -0.1192  0.1665
  929YOPC   C1A13431  16.574  -0.373   6.598  0.3906  0.1113 -0.3911
  929YOPC   D2A13432  16.660  -0.415   6.976 -0.3813 -0.4315  0.2568
  929YOPC   C3A13433  16.649  -0.804   7.082 -0.1376  0.0805  0.0169
  929YOPC   C4A13434  16.693  -1.224   7.408 -0.0771 -0.1323 -0.0391
  929YOPC   C1B13435  16.257   0.054   6.814 -0.1213 -0.0942  0.0462
  929YOPC   C2B13436  16.495   0.165   7.165  0.0063  0.0175 -0.2002
  929YOPC   D3B13437  16.335  -0.149   7.458 -0.0327 -0.4651 -0.4330
  929YOPC   C4B13438  15.945  -0.159   7.627  0.1039  0.2707 -0.1108
  930YOPC   NC313439  16.083  13.509   6.118 -0.1071  0.1960 -0.3711
  930YOPC   PO413440  16.616  13.413   6.118 -0.2988 -0.1070 -0.0009
  930YOPC   GL113441  16.310  13.185   6.480 -0.1164  0.2595 -0.1097
  930YOPC   GL213442  16.625  13.016   6.641  0.0253  0.4179  0.0706
  930YOPC   C1A13443  16.045  12.954   6.795 -0.0690  0.0866  0.3621
  930YOPC   D2A13444  16.090  12.802   7.128  0.2038 -0.4087 -0.2696
  930YOPC   C3A13445  15.909  12.563   7.399  0.0382 -0.1806 -0.0444
  930YOPC   C4A13446  15.666  12.555   7.796  0.2242 -0.2731 -0.1005
  930YOPC   C1B13447  16.849  13.215   7.010  0.1250  0.0635 -0.0713
  930YOPC   C2B13448  16.970  13.161   7.423  0.0852 -0.0695 -0.1385
  930YOPC   D3B13449  16.555  13.107   7.701 -0.0839  0.1245  0.3007
  930YOPC   C4B13450  16.169  12.776   7.842 -0.2170 -0.0396  0.1579
  931YOPC   NC313451  16.137  10.274   4.858  0.1578 -0.3756  0.0245
  931YOPC   PO413452  16.029  10.312   5.295 -0.2249 -0.1487 -0.2598
  931YOPC   GL113453  15.910  10.470   5.755  0.0304  0.2364 -0.0462
  931YOPC   GL213454  15.533  10.553   5.818  0.2978  0.2085  0.1223
  931YOPC   C1A13455  16.050  10.482   6.152  0.1867  0.0481 -0.0160
  931YOPC   D2A13456  16.352  10.497   6.450  0.1448 -0.1637 -0.0370
  931YOPC   C3A13457  16.304  10.472   6.924 -0.1629  0.3137  0.1775
  931YOPC   C4A13458  16.205  10.119   7.174 -0.0646 -0.0495  0.0038
  931YOPC   C1B13459  15.570  10.484   6.290  0.2290  0.0743  0.0384
  931YOPC   C2B13460  15.479  10.369   6.766  0.1735 -0.0264  0.2056
  931YOPC   D3B13461  15.735  10.365   7.032  0.2170  0.1827 -0.3291
  931YOPC   C4B13462  15.817  10.229   7.411 -0.0212  0.4604  0.0350
  932YOPC   NC313463  13.207  17.356   6.126 -0.2127  0.2804  0.0936
  932YOPC   PO413464  13.218  17.743   6.244 -0.4342  0.2187  0.0406
  932YOPC   GL113465  13.454  17.575   6.536  0.1909  0.3353 -0.4232
  932YOPC   GL213466  13.282  17.316   6.667 -0.1939  0.1477  0.0757
  932YOPC   C1A13467  13.592  17.572   6.995  0.3632 -0.2274 -0.1439
  932YOPC   D2A13468  13.743  17.780   7.307 -0.0401  0.1810 -0.1718
  932YOPC   C3A13469  13.629  17.712   7.655  0.2816  0.2653  0.1069
  932YOPC   C4A13470  13.296  17.849   7.899 -0.0584 -0.0427  0.4661
  932YOPC   C1B13471  13.003  16.994   6.873 -0.3646  0.1305 -0.2999
  932YOPC   C2B13472  12.872  16.935   7.245  0.0001  0.0115  0.0977
  932YOPC   D3B13473  12.778  17.024   7.648 -0.2224 -0.1534  0.1755
  932YOPC   C4B13474  12.423  16.750   7.648 -0.0238 -0.0310  0.2683
  933YOPC   NC313475   6.743  17.787   5.610  0.1118  0.1851  0.0581
  933YOPC   PO413476   7.082  17.999   5.702 -0.0045 -0.2115  0.2748
  933YOPC   GL113477   7.262  18.217   6.142  0.1228 -0.1643  0.0066
  933YOPC   GL213478   7.519  18.201   6.281 -0.0507  0.0298 -0.2268
  933YOPC   C1A13479   6.985  18.388   6.632 -0.3369  0.1241  0.1311
  933YOPC   D2A13480   6.790  18.273   7.060  0.0552  0.0192  0.0060
  933YOPC   C3A13481   7.162  18.271   7.312 -0.0288  0.1666  0.1350
  933YOPC   C4A13482   7.639  18.150   7.332 -0.1164  0.1838 -0.2388
  933YOPC   C1B13483   7.910  18.444   6.466 -0.0910 -0.3894 -0.1129
  933YOPC   C2B13484   8.281  18.310   6.568 -0.0020 -0.3198  0.0602
  933YOPC   D3B13485   8.561  18.353   6.850  0.4789  0.2431 -0.1784
  933YOPC   C4B13486   8.460  18.698   7.018 -0.3352  0.0456 -0.3114
  934YOPC   NC313487   4.824   3.063   5.158 -0.0770  0.2345 -0.1268
  934YOPC   PO413488   5.015   3.091   5.612  0.2313 -0.0385  0.2333
  934YOPC   GL113489   5.004   2.886   6.029  0.2438 -0.3470 -0.0775
  934YOPC   GL213490   4.885   3.123   6.184  0.0630 -0.0185 -0.2295
  934YOPC   C1A13491   5.083   2.571   6.373 -0.0109  0.1373 -0.0388
  934YOPC   D2A13492   5.209   2.574   6.828  0.0542  0.1829  0.0171
  934YOPC   C3A13493   4.986   2.583   7.085  0.1121  0.1104  0.3568
  934YOPC   C4A13494   4.684   2.789   7.402  0.0868  0.1615 -0.1172
  934YOPC   C1B13495   4.859   3.126   6.642  0.2504 -0.3232  0.1749
  934YOPC   C2B13496   4.965   3.113   7.128 -0.2314 -0.1321  0.1297
  934YOPC   D3B13497   4.979   3.167   7.510  0.1090  0.1833 -0.2091
  934YOPC   C4B13498   5.435   3.120   7.745  0.0205  0.0238 -0.1222
  935YOPC   NC313499   4.230   1.364   5.646  0.1822  0.0812  0.2246
  935YOPC   PO413500   4.686   1.569   5.780 -0.1528 -0.0829  0.1551
  935YOPC   GL113501   4.794   1.665   6.134 -0.0670 -0.2852 -0.1665
  935YOPC   GL213502   5.051   1.879   6.130  0.1293 -0.0856  0.2135
  935YOPC   C1A13503   4.691   1.766   6.505 -0.0689 -0.1725 -0.0856
  935YOPC   D2A13504   4.718   1.829   6.955  0.0548  0.0165 -0.0008
  935YOPC   C3A13505   4.653   2.166   7.208 -0.0945  0.2835  0.0070
  935YOPC   C4A13506   4.375   2.332   7.449 -0.0284  0.2956  0.1725
  935YOPC   C1B13507   4.773   2.206   6.149 -0.2748 -0.0567  0.0729
  935YOPC   C2B13508   4.409   2.270   6.282 -0.1169 -0.2133 -0.2345
  935YOPC   D3B13509   4.042   2.421   6.556 -0.1377  0.2055 -0.0849
  935YOPC   C4B13510   3.946   2.699   6.922 -0.2099  0.1349 -0.1345
  936YOPC   NC313511   7.699   1.136   5.240 -0.2498 -0.0057  0.2266
  936YOPC   PO413512   7.917   1.260   5.668  0.2090 -0.1386 -0.3812
  936YOPC   GL113513   7.655   1.195   5.978  0.0411  0.0557 -0.1175
  936YOPC   GL213514   7.389   0.964   5.901  0.1769  0.0506  0.3216
  936YOPC   C1A13515   7.723   1.329   6.447 -0.3296 -0.0207  0.0204
  936YOPC   D2A13516   7.743   1.439   6.810 -0.2220  0.0044 -0.1092
  936YOPC   C3A13517   7.754   1.536   7.225 -0.1049  0.1530 -0.3905
  936YOPC   C4A13518   7.971   1.776   7.487  0.1479  0.0959 -0.5037
  936YOPC   C1B13519   7.619   0.642   6.199  0.1680 -0.1268  0.2538
  936YOPC   C2B13520   7.697   0.513   6.611 -0.1057  0.1675  0.1005
  936YOPC   D3B13521   7.539   0.610   6.965  0.2133  0.1397  0.0775
  936YOPC   C4B13522   7.411   0.657   7.381  0.0952  0.0111 -0.2134
  937YOPC   NC313523   9.794   8.783   5.507  0.0162  0.0803  0.1409
  937YOPC   PO413524   9.807   8.461   5.755 -0.3580  0.2824 -0.0170
  937YOPC   GL113525   9.953   8.412   6.190  0.3063  0.1097 -0.2444
  937YOPC   GL213526  10.273   8.566   6.210  0.2674  0.1263 -0.2092
  937YOPC   C1A13527   9.754   8.321   6.573  0.2539  0.2151  0.2835
  937YOPC   D2A13528   9.680   8.141   6.946 -0.0950 -0.0138  0.0873
  937YOPC   C3A13529   9.872   7.747   7.148  0.2914  0.3366  0.2095
  937YOPC   C4A13530   9.743   7.479   7.447  0.2584  0.3965 -0.0747
  937YOPC   C1B13531  10.265   8.439   6.667  0.1283 -0.2257 -0.1750
  937YOPC   C2B13532  10.449   8.458   7.092 -0.1531  0.1006  0.3192
  937YOPC   D3B13533  10.292   8.686   7.451  0.0402 -0.0180 -0.0860
  937YOPC   C4B13534  10.085   9.122   7.701 -0.0571 -0.2118  0.0645
  938YOPC   NC313535   2.459   6.401   5.356  0.2792  0.1033  0.1309
  938YOPC   PO413536   2.219   6.344   5.745  0.0350 -0.1954  0.2380
  938YOPC   GL113537   2.410   6.349   6.000 -0.0840  0.0748 -0.0304
  938YOPC   GL213538   2.352   6.593   6.147 -0.2541 -0.0379 -0.1383
  938YOPC   C1A13539   2.478   6.196   6.507  0.0797  0.0366 -0.1374
  938YOPC   D2A13540   2.634   5.808   6.575  0.0811  0.0779 -0.1531
  938YOPC   C3A13541   2.613   5.552   6.940 -0.1165 -0.1561 -0.1329
  938YOPC   C4A13542   2.552   5.057   7.008  0.0644  0.1715 -0.0391
  938YOPC   C1B13543   2.082   6.448   6.408  0.1191  0.0020 -0.1145
  938YOPC   C2B13544   1.917   6.287   6.734 -0.1111  0.0502 -0.3297
  938YOPC   D3B13545   1.914   6.518   7.185 -0.0157 -0.3061  0.2370
  938YOPC   C4B13546   2.170   6.679   7.508 -0.3869 -0.0622 -0.0555
  939YOPC   NC313547  13.703  10.290   5.573  0.0937  0.0186  0.0971
  939YOPC   PO413548  13.310  10.507   5.878  0.3689 -0.1608 -0.1737
  939YOPC   GL113549  13.601  10.607   6.031  0.2896 -0.0396 -0.3106
  939YOPC   GL213550  13.854  10.780   6.041  0.2018 -0.1453 -0.2331
  939YOPC   C1A13551  13.540  10.385   6.481 -0.2158 -0.1900 -0.1086
  939YOPC   D2A13552  13.730  10.523   6.876  0.1172 -0.1461 -0.2173
  939YOPC   C3A13553  13.587  10.516   7.262  0.3230  0.0500 -0.0246
  939YOPC   C4A13554  13.631  10.719   7.649  0.1577 -0.4022  0.0784
  939YOPC   C1B13555  14.334  10.915   6.216 -0.1307  0.0197  0.0589
  939YOPC   C2B13556  14.676  10.928   6.385  0.4801 -0.0366 -0.2426
  939YOPC   D3B13557  14.795  11.096   6.826  0.2283  0.3534 -0.2246
  939YOPC   C4B13558  15.065  11.050   7.234  0.1040 -0.0665 -0.0587
  940YOPC   NC313559  15.634   3.726   5.868 -0.3086 -0.0479 -0.1338
  940YOPC   PO413560  16.033   3.889   5.844  0.0255  0.2372 -0.1019
  940YOPC   GL113561  16.059   3.779   6.284  0.0043  0.0579 -0.1963
  940YOPC   GL213562  16.268   3.655   6.419  0.2362  0.1054  0.1957
  940YOPC   C1A13563  15.732   3.618   6.492  0.1376  0.1211 -0.3133
  940YOPC   D2A13564  15.593   3.264   6.642 -0.0143 -0.0177  0.2369
  940YOPC   C3A13565  15.833   2.872   6.852  0.5859 -0.2425 -0.0381
  940YOPC   C4A13566  16.092   2.451   6.807  0.1487  0.0216 -0.1560
  940YOPC   C1B13567  16.401   3.737   6.824 -0.1177  0.1667  0.1349
  940YOPC   C2B13568  16.327   3.981   7.151  0.1275  0.1057 -0.2805
  940YOPC   D3B13569  16.162   3.746   7.359  0.5091 -0.3170 -0.1789
  940YOPC   C4B13570  16.053   3.447   7.741 -0.3377 -0.1807  0.0251
  941YOPC   NC313571   7.179  11.736   6.148  0.0638 -0.0657  0.0143
  941YOPC   PO413572   7.096  12.098   5.956  0.0150  0.1870 -0.0753
  941YOPC   GL113573   6.828  11.998   6.371  0.0129 -0.2050  0.1096
  941YOPC   GL213574   6.676  11.709   6.487  0.0983  0.2530 -0.2494
  941YOPC   C1A13575   6.793  11.987   6.853 -0.2462 -0.3071  0.0837
  941YOPC   D2A13576   6.980  12.198   7.278 -0.5010 -0.0395 -0.1076
  941YOPC   C3A13577   7.109  12.103   7.631  0.2850  0.3128  0.0527
  941YOPC   C4A13578   7.061  11.943   8.024  0.1577 -0.0490  0.0483
  941YOPC   C1B13579   6.993  11.482   6.790  0.0261  0.1028 -0.2921
  941YOPC   C2B13580   7.257  11.428   7.111 -0.1928 -0.2316 -0.0835
  941YOPC   D3B13581   7.314  11.111   7.393  0.3170  0.0927 -0.1151
  941YOPC   C4B13582   7.054  10.764   7.360  0.0770  0.0367  0.3505
  942YOPC   NC313583   6.347   8.540   5.593 -0.2522 -0.0904  0.0764
  942YOPC   PO413584   6.587   8.947   5.548 -0.0407  0.0971 -0.0971
  942YOPC   GL113585   6.472   8.916   6.020 -0.2538 -0.0665  0.2482
  942YOPC   GL213586   6.151   8.989   6.108 -0.1039 -0.0306  0.3017
  942YOPC   C1A13587   6.582   8.852   6.498  0.1410 -0.0663  0.1940
  942YOPC   D2A13588   6.580   9.003   6.909 -0.0230 -0.1447  0.4089
  942YOPC   C3A13589   6.942   9.268   7.135  0.2377  0.1776 -0.0527
  942YOPC   C4A13590   6.914   9.239   7.532 -0.1582 -0.0020 -0.3067
  942YOPC   C1B13591   6.039   9.387   6.263 -0.1572  0.0024  0.0734
  942YOPC   C2B13592   5.824   9.681   6.563 -0.0883 -0.0559  0.3749
  942YOPC   D3B13593   5.939   9.672   6.969 -0.1240 -0.0365  0.2261
  942YOPC   C4B13594   6.407   9.614   7.051 -0.1411 -0.2480 -0.1034
  943YOPC   NC313595  15.048   5.439   5.482  0.0021 -0.2494  0.0413
  943YOPC   PO413596  15.223   5.038   5.255  0.3731 -0.0457  0.0361
  943YOPC   GL113597  15.500   5.378   5.629 -0.1775  0.2973  0.0523
  943YOPC   GL213598  15.676   5.647   5.617 -0.1518 -0.0206  0.2022
  943YOPC   C1A13599  15.600   5.439   6.124 -0.0607 -0.0967  0.0448
  943YOPC   D2A13600  15.446   5.511   6.479  0.2795 -0.0574  0.2405
  943YOPC   C3A13601  15.351   5.149   6.760  0.1210 -0.1734 -0.1364
  943YOPC   C4A13602  15.399   4.859   7.121  0.0145  0.0607  0.2512
  943YOPC   C1B13603  15.354   5.813   5.943 -0.4520 -0.2378  0.1177
  943YOPC   C2B13604  15.050   5.743   6.215 -0.0925 -0.0258  0.1224
  943YOPC   D3B13605  15.255   5.955   6.591  0.3268 -0.0041 -0.1083
  943YOPC   C4B13606  15.372   5.777   6.935 -0.0114  0.3511  0.1077
  944YOPC   NC313607   7.284   7.942   5.401 -0.0932  0.2293  0.0144
  944YOPC   PO413608   7.089   7.711   5.170  0.1046  0.0959  0.2538
  944YOPC   GL113609   6.945   7.573   5.552 -0.2392 -0.2046  0.1802
  944YOPC   GL213610   7.025   7.242   5.679  0.1715 -0.0504  0.4587
  944YOPC   C1A13611   6.749   7.639   5.962 -0.0422  0.1526  0.0746
  944YOPC   D2A13612   6.787   7.840   6.358 -0.1702 -0.1862  0.1210
  944YOPC   C3A13613   7.075   7.766   6.642 -0.2096 -0.3421  0.2086
  944YOPC   C4A13614   6.993   7.457   6.840 -0.2416 -0.0369 -0.1034
  944YOPC   C1B13615   7.089   7.181   6.120  0.1688  0.0889 -0.0117
  944YOPC   C2B13616   7.297   6.970   6.573 -0.2425 -0.2142 -0.0715
  944YOPC   D3B13617   7.516   7.258   6.886 -0.0296  0.1642 -0.2105
  944YOPC   C4B13618   7.749   7.127   7.220 -0.1995 -0.0164 -0.2677
  945YOPC   NC313619  11.059   1.969   5.715  0.0368  0.0479  0.3923
  945YOPC   PO413620  11.513   2.283   5.625 -0.1505 -0.2228  0.0660
  945YOPC   GL113621  11.641   2.425   6.043 -0.2357  0.4110  0.1173
  945YOPC   GL213622  11.898   2.315   6.200 -0.3029 -0.0071  0.1414
  945YOPC   C1A13623  11.689   2.628   6.507  0.0443 -0.0994  0.0006
  945YOPC   D2A13624  11.513   2.700   6.871  0.1044  0.1191 -0.0259
  945YOPC   C3A13625  11.440   3.045   7.016 -0.2788 -0.0968 -0.0977
  945YOPC   C4A13626  11.667   3.505   6.938 -0.1803  0.0049 -0.1155
  945YOPC   C1B13627  11.749   2.142   6.662 -0.0945 -0.0787 -0.0499
  945YOPC   C2B13628  11.730   2.335   7.078  0.2551  0.0229 -0.1208
  945YOPC   D3B13629  11.450   2.179   7.474  0.3495 -0.3141 -0.2503
  945YOPC   C4B13630  11.296   2.234   7.865 -0.0736  0.1983 -0.1659
  946YOPC   NC313631  12.153  16.908   5.508 -0.3837  0.1378  0.0375
  946YOPC   PO413632  12.219  17.158   5.785 -0.1289  0.1892 -0.4149
  946YOPC   GL113633  12.196  17.252   6.201 -0.0831  0.1948  0.3199
  946YOPC   GL213634  11.951  17.362   6.338 -0.0824 -0.3756 -0.2549
  946YOPC   C1A13635  12.357  17.364   6.633  0.0226  0.1745 -0.3966
  946YOPC   D2A13636  12.374  17.294   7.098  0.2583  0.0428 -0.0339
  946YOPC   C3A13637  12.150  17.196   7.428  0.1693  0.1653 -0.1971
  946YOPC   C4A13638  11.920  16.972   7.792  0.4259 -0.0828 -0.2305
  946YOPC   C1B13639  11.500  17.288   6.572  0.1158  0.1932 -0.0253
  946YOPC   C2B13640  11.091  17.402   6.744  0.0448  0.1328  0.1517
  946YOPC   D3B13641  11.118  17.662   7.146 -0.0282 -0.0098  0.0921
  946YOPC   C4B13642  11.322  17.839   7.434 -0.0022  0.0834 -0.1368
  947YOPC   NC313643   9.430   2.677   4.871  0.2135 -0.1470 -0.2171
  947YOPC   PO413644   9.699   2.933   5.139  0.0449  0.0459 -0.1724
  947YOPC   GL113645   9.838   2.975   5.602 -0.1794  0.0140 -0.2006
  947YOPC   GL213646   9.511   2.908   5.684 -0.1983  0.0682 -0.1248
  947YOPC   C1A13647   9.833   3.161   6.016 -0.1210  0.0566  0.0064
  947YOPC   D2A13648   9.785   3.338   6.460 -0.2334 -0.3409  0.3676
  947YOPC   C3A13649   9.548   3.206   6.862  0.0064  0.0032  0.2025
  947YOPC   C4A13650   9.672   3.187   7.315 -0.2808 -0.0838  0.0845
  947YOPC   C1B13651   9.369   2.943   6.060 -0.1220  0.1350  0.3139
  947YOPC   C2B13652   9.378   2.903   6.445  0.0317 -0.1833  0.1077
  947YOPC   D3B13653   9.130   2.819   6.780 -0.1835 -0.0762 -0.1722
  947YOPC   C4B13654   8.969   2.648   7.081  0.3143 -0.0562 -0.3924
  948YOPC   NC313655   2.531   3.194   5.755  0.0135 -0.3227  0.3048
  948YOPC   PO413656   2.134   2.974   5.679  0.0532 -0.1169  0.0702
  948YOPC   GL113657   1.927   3.128   6.065 -0.2074  0.0735 -0.1413
  948YOPC   GL213658   2.275   3.211   6.192 -0.0180  0.2040  0.2359
  948YOPC   C1A13659   1.661   3.310   6.396  0.0853 -0.0073  0.0049
  948YOPC   D2A13660   1.253   3.305   6.574 -0.0713 -0.2254  0.4816
  948YOPC   C3A13661   1.308   3.312   6.991  0.2747 -0.2470 -0.2470
  948YOPC   C4A13662   1.377   3.690   7.315 -0.0911  0.0197  0.1697
  948YOPC   C1B13663   2.168   3.150   6.598  0.0688 -0.1143  0.0256
  948YOPC   C2B13664   2.095   2.844   6.901  0.0089 -0.0747 -0.0389
  948YOPC   D3B13665   1.945   3.057   7.313 -0.1135  0.0389  0.0584
  948YOPC   C4B13666   1.626   3.256   7.449  0.2457 -0.2369 -0.2461
  949YOPC   NC313667   9.121   3.093   5.294 -0.0559  0.2045 -0.0200
  949YOPC   PO413668   8.914   3.498   5.152 -0.0986  0.1761  0.3662
  949YOPC   GL113669   8.852   3.434   5.612 -0.0975  0.1117 -0.0511
  949YOPC   GL213670   8.483   3.493   5.610 -0.0836  0.0156  0.1864
  949YOPC   C1A13671   8.982   3.182   5.972  0.0266  0.1443 -0.1107
  949YOPC   D2A13672   9.080   3.233   6.359  0.1733 -0.1073  0.2412
  949YOPC   C3A13673   9.060   3.325   6.744  0.1056  0.2050 -0.0731
  949YOPC   C4A13674   8.934   3.203   7.102  0.0783  0.0851  0.3669
  949YOPC   C1B13675   8.410   3.633   6.103  0.1024  0.0392 -0.0589
  949YOPC   C2B13676   8.221   3.976   6.312 -0.0069 -0.4571 -0.1615
  949YOPC   D3B13677   8.307   4.108   6.778  0.1044  0.4690  0.0985
  949YOPC   C4B13678   8.348   3.922   7.185  0.0117 -0.1457  0.0547
  950YOPC   NC313679   0.720   4.039   6.139 -0.0679  0.1576 -0.0394
  950YOPC   PO413680   0.540   4.387   5.935  0.1052  0.0396  0.1398
  950YOPC   GL113681   0.383   4.554   6.271  0.2338  0.2343 -0.1085
  950YOPC   GL213682   0.337   4.249   6.554 -0.1141  0.0580  0.2560
  950YOPC   C1A13683   0.437   4.856   6.665  0.5018 -0.1867  0.3201
  950YOPC   D2A13684   0.580   4.932   6.999 -0.1965  0.3116  0.1888
  950YOPC   C3A13685   1.028   5.023   7.119 -0.1123  0.3585  0.2873
  950YOPC   C4A13686   1.320   5.088   7.438  0.1830  0.0121  0.1933
  950YOPC   C1B13687   0.207   4.518   6.932  0.1895 -0.1657 -0.0936
  950YOPC   C2B13688   0.184   4.743   7.250 -0.2993  0.0005 -0.0068
  950YOPC   D3B13689   0.102   4.661   7.602 -0.1620  0.1311  0.2381
  950YOPC   C4B13690   0.096   4.818   7.954 -0.1147 -0.0516 -0.2005
  951YOPC   NC313691   6.874   2.416   5.107 -0.0276 -0.4163 -0.0038
  951YOPC   PO413692   7.210   2.518   4.900  0.0372 -0.1199  0.0955
  951YOPC   GL113693   7.207   2.581   5.366  0.2037  0.2736 -0.3117
  951YOPC   GL213694   7.284   2.900   5.437  0.2389  0.0426  0.1132
  951YOPC   C1A13695   7.301   2.377   5.854  0.0803  0.0829 -0.3085
  951YOPC   D2A13696   7.053   2.427   6.163  0.0506  0.0389 -0.2976
  951YOPC   C3A13697   6.940   2.810   6.297 -0.2215  0.0853  0.1994
  951YOPC   C4A13698   6.868   3.024   6.706  0.0380  0.1150  0.1676
  951YOPC   C1B13699   7.373   2.978   5.856  0.0510  0.2847  0.1742
  951YOPC   C2B13700   7.518   3.215   6.294  0.0767 -0.3810  0.0029
  951YOPC   D3B13701   7.289   3.221   6.645  0.1691  0.1035  0.3927
  951YOPC   C4B13702   7.013   3.340   7.020  0.3073 -0.1460  0.2000
  952YOPC   NC313703   7.654  14.297   6.473 -0.1942  0.1921 -0.1058
  952YOPC   PO413704   7.989  14.428   6.245  0.0272  0.2770  0.2741
  952YOPC   GL113705   8.018  14.606   6.636 -0.1186  0.2384  0.1175
  952YOPC   GL213706   8.301  14.651   6.671 -0.0291  0.2180 -0.0600
  952YOPC   C1A13707   8.012  14.553   7.118 -0.0118  0.3097  0.1447
  952YOPC   D2A13708   7.775  14.641   7.443 -0.2373  0.0744 -0.0948
  952YOPC   C3A13709   7.618  14.375   7.788 -0.0879 -0.0933  0.1057
  952YOPC   C4A13710   7.547  14.314   8.191 -0.3242  0.0694  0.1191
  952YOPC   C1B13711   8.510  14.750   6.997 -0.3132  0.2319 -0.0160
  952YOPC   C2B13712   8.578  14.846   7.391 -0.0823  0.1558  0.2909
  952YOPC   D3B13713   8.350  14.665   7.649  0.1364 -0.3299 -0.1526
  952YOPC   C4B13714   8.054  14.678   7.929  0.1856 -0.1528 -0.1550
  953YOPC   NC313715   2.234   1.402   5.639  0.0238 -0.2086  0.2760
  953YOPC   PO413716   2.432   1.831   5.796  0.0661  0.0011 -0.2609
  953YOPC   GL113717   2.267   1.967   6.179 -0.2162  0.0703 -0.0127
  953YOPC   GL213718   2.326   2.252   6.268  0.1410  0.0119 -0.5251
  953YOPC   C1A13719   2.351   1.797   6.563  0.1835  0.6292 -0.3094
  953YOPC   D2A13720   2.543   1.862   7.022 -0.1607 -0.0553 -0.0439
  953YOPC   C3A13721   2.571   1.832   7.540  0.2950  0.0949  0.2314
  953YOPC   C4A13722   2.610   1.733   7.931 -0.0614  0.2688  0.1647
  953YOPC   C1B13723   2.785   2.159   6.561  0.0771 -0.2202 -0.1962
  953YOPC   C2B13724   2.961   1.689   6.720  0.1205 -0.1918 -0.1558
  953YOPC   D3B13725   2.684   1.352   6.670  0.4204 -0.1778 -0.2926
  953YOPC   C4B13726   2.285   1.254   6.772  0.0064 -0.2615 -0.0515
  954YOPC   NC313727   1.573  17.363   5.784 -0.0770 -0.2506  0.1302
  954YOPC   PO413728   1.437  17.067   6.152  0.0208 -0.0473 -0.0497
  954YOPC   GL113729   1.396  17.213   6.593 -0.0928 -0.1273 -0.4505
  954YOPC   GL213730   1.099  17.179   6.725 -0.2170  0.0366  0.2226
  954YOPC   C1A13731   1.463  17.369   7.073  0.0321 -0.2288 -0.1689
  954YOPC   D2A13732   1.345  17.480   7.516 -0.0292 -0.1611  0.2545
  954YOPC   C3A13733   1.368  17.781   7.815 -0.0244 -0.0353  0.0085
  954YOPC   C4A13734   1.531  17.989   8.075 -0.2067 -0.2982  0.2932
  954YOPC   C1B13735   1.027  17.187   7.188 -0.1816  0.0797 -0.3793
  954YOPC   C2B13736   0.998  17.209   7.674  0.2485  0.1948 -0.2188
  954YOPC   D3B13737   0.671  17.073   7.821 -0.1112 -0.0048 -0.0233
  954YOPC   C4B13738   0.389  17.111   8.111  0.1543 -0.1304 -0.0401
  955YOPC   NC313739   2.647   3.007   5.305  0.0966  0.1414 -0.3207
  955YOPC   PO413740   3.007   3.214   5.613 -0.1978  0.0540  0.0636
  955YOPC   GL113741   3.081   3.452   6.053  0.0738 -0.2401 -0.5644
  955YOPC   GL213742   3.196   3.885   6.205 -0.2161  0.1271 -0.4368
  955YOPC   C1A13743   2.758   3.544   6.362  0.1505 -0.0991  0.1650
  955YOPC   D2A13744   2.409   3.617   6.622 -0.2027 -0.0324 -0.2234
  955YOPC   C3A13745   2.428   3.916   7.109 -0.2686 -0.0878 -0.4205
  955YOPC   C4A13746   2.242   4.364   7.354 -0.1762 -0.3869 -0.1348
  955YOPC   C1B13747   3.155   4.341   6.443 -0.0923 -0.0484 -0.1776
  955YOPC   C2B13748   3.215   4.767   6.564 -0.2352 -0.2497  0.2919
  955YOPC   D3B13749   3.499   4.936   6.829  0.0634 -0.3173  0.1212
  955YOPC   C4B13750   3.725   5.034   7.177  0.0079  0.0586  0.0112
  956YOPC   NC313751   4.008   3.215   5.852  0.2111 -0.2758  0.3738
  956YOPC   PO413752   4.447   3.157   5.586  0.0755  0.1974 -0.2091
  956YOPC   GL113753   4.556   3.326   5.950  0.2072  0.1707  0.0862
  956YOPC   GL213754   4.270   3.287   6.257  0.3727  0.0479 -0.2926
  956YOPC   C1A13755   4.729   3.549   6.289 -0.0141 -0.0302  0.4426
  956YOPC   D2A13756   4.944   3.667   6.640 -0.1265 -0.0844 -0.1098
  956YOPC   C3A13757   4.773   3.529   6.907  0.0257 -0.5081 -0.0539
  956YOPC   C4A13758   4.889   3.775   7.325 -0.1905 -0.2310 -0.2074
  956YOPC   C1B13759   3.922   3.107   6.596 -0.0622  0.1285 -0.1023
  956YOPC   C2B13760   3.777   3.142   6.949 -0.1506  0.2504 -0.1826
  956YOPC   D3B13761   3.994   3.220   7.202 -0.1649 -0.0342  0.2226
  956YOPC   C4B13762   4.420   3.281   7.340 -0.1490  0.2380  0.3422
  957YOPC   NC313763   4.482  16.405   6.245  0.1824  0.1886 -0.1777
  957YOPC   PO413764   4.001  16.510   6.246 -0.0441  0.1144 -0.1229
  957YOPC   GL113765   3.894  16.302   6.645 -0.0756  0.3587  0.0394
  957YOPC   GL213766   4.258  16.495   6.738 -0.0262 -0.3041 -0.0337
  957YOPC   C1A13767   3.735  16.067   6.953  0.1841  0.2776 -0.0051
  957YOPC   D2A13768   3.691  15.903   7.304 -0.3079  0.1464  0.0126
  957YOPC   C3A13769   3.661  16.190   7.716 -0.0764  0.1142 -0.1388
  957YOPC   C4A13770   3.772  16.151   8.053 -0.2078  0.0311  0.4770
  957YOPC   C1B13771   4.363  16.549   7.191 -0.2900  0.2306  0.1479
  957YOPC   C2B13772   4.470  16.335   7.536 -0.1463  0.0240 -0.0592
  957YOPC   D3B13773   4.657  15.892   7.516  0.2254 -0.3457 -0.1351
  957YOPC   C4B13774   5.049  15.800   7.704  0.1855  0.1248  0.0007
  958YOPC   NC313775   8.339   4.211   5.072 -0.2217 -0.1930  0.0392
  958YOPC   PO413776   8.572   3.967   5.424  0.0247  0.0230  0.3953
  958YOPC   GL113777   8.182   4.098   5.550  0.3141  0.1810  0.0991
  958YOPC   GL213778   8.234   4.233   5.873 -0.2698 -0.1492 -0.3262
  958YOPC   C1A13779   7.844   3.869   5.825  0.0737 -0.2208 -0.0220
  958YOPC   D2A13780   7.867   3.603   6.204  0.2681  0.0235 -0.1837
  958YOPC   C3A13781   7.659   3.708   6.591 -0.1783 -0.0579 -0.0846
  958YOPC   C4A13782   7.364   3.667   6.929  0.0757 -0.0406  0.0627
  958YOPC   C1B13783   7.889   4.383   6.005  0.0398  0.0509  0.0834
  958YOPC   C2B13784   7.722   4.078   6.246  0.1470 -0.1109  0.0435
  958YOPC   D3B13785   7.442   4.130   6.608  0.0076  0.1638 -0.2211
  958YOPC   C4B13786   7.312   4.194   7.022  0.2926  0.2108 -0.0496
  959YOPC   NC313787   2.318   2.396   5.704  0.2319 -0.0058  0.0109
  959YOPC   PO413788   2.635   2.710   5.707 -0.2715 -0.0826 -0.0851
  959YOPC   GL113789   2.586   2.756   6.153 -0.0028 -0.2259  0.2084
  959YOPC   GL213790   2.788   3.098   6.195  0.4773 -0.0819 -0.0358
  959YOPC   C1A13791   2.520   2.704   6.608  0.0166 -0.4931  0.2660
  959YOPC   D2A13792   2.376   2.369   6.902 -0.1755  0.0464  0.2199
  959YOPC   C3A13793   2.586   2.336   7.249  0.2245 -0.1785 -0.1496
  959YOPC   C4A13794   2.925   2.240   7.530  0.1104  0.2773 -0.2204
  959YOPC   C1B13795   2.934   3.068   6.608  0.0006 -0.0179 -0.1202
  959YOPC   C2B13796   3.208   3.122   7.035  0.0181 -0.1611 -0.4671
  959YOPC   D3B13797   3.435   3.406   7.223 -0.1531  0.1828 -0.3182
  959YOPC   C4B13798   3.516   3.768   7.463 -0.1252 -0.0048 -0.0171
  960YOPC   NC313799  15.813   7.542   5.387 -0.1570  0.0736 -0.2981
  960YOPC   PO413800  15.874   7.111   5.723  0.1550  0.0146 -0.0546
  960YOPC   GL113801  15.540   7.102   6.064  0.0510  0.1919 -0.2318
  960YOPC   GL213802  15.731   6.825   6.223 -0.0954  0.1281  0.0680
  960YOPC   C1A13803  15.272   6.870   6.287  0.0880  0.0182 -0.0680
  960YOPC   D2A13804  14.890   6.685   6.520 -0.1073  0.3520 -0.1319
  960YOPC   C3A13805  14.685   7.079   6.527  0.1674  0.2426  0.1431
  960YOPC   C4A13806  14.487   7.401   6.739  0.1010  0.0162  0.0475
  960YOPC   C1B13807  15.767   6.750   6.731 -0.0050 -0.1833 -0.0147
  960YOPC   C2B13808  15.766   6.859   7.149 -0.3218  0.2025 -0.3457
  960YOPC   D3B13809  15.742   7.208   7.443 -0.3723  0.0043  0.1439
  960YOPC   C4B13810  16.139   7.453   7.631  0.3674 -0.0399  0.0024
  961YOPC   NC313811   2.179   0.563   6.283  0.0319 -0.1074 -0.1416
  961YOPC   PO413812   2.063   0.985   6.051  0.0157  0.2085 -0.0163
  961YOPC   GL113813   1.968   1.075   6.442 -0.1992  0.1757 -0.0912
  961YOPC   GL213814   1.913   0.821   6.731  0.3462 -0.0799  0.2849
  961YOPC   C1A13815   1.854   1.531   6.543  0.2061  0.1571  0.0964
  961YOPC   D2A13816   1.913   1.729   6.985  0.0455 -0.0152 -0.1322
  961YOPC   C3A13817   2.288   1.479   7.227  0.0631  0.1713  0.3033
  961YOPC   C4A13818   2.702   1.311   7.172 -0.2108 -0.2417  0.1895
  961YOPC   C1B13819   1.608   0.591   6.911  0.2338  0.1480  0.0467
  961YOPC   C2B13820   1.381   0.504   7.292  0.0138 -0.0437 -0.0642
  961YOPC   D3B13821   1.619   0.348   7.711 -0.2908 -0.2250 -0.3071
  961YOPC   C4B13822   1.835  -0.010   7.811 -0.1462 -0.1274 -0.2167
  962YOPC   NC313823  17.313   0.124   5.321 -0.0681  0.2118  0.3285
  962YOPC   PO413824  17.402   0.450   5.630  0.2290  0.1263 -0.0585
  962YOPC   GL113825  17.443   0.472   6.075 -0.3430 -0.2992 -0.1015
  962YOPC   GL213826  17.577   0.201   6.111  0.1869 -0.0730  0.0077
  962YOPC   C1A13827  17.264   0.316   6.453  0.0518 -0.0551 -0.1586
  962YOPC   D2A13828  17.219  -0.077   6.777 -0.1524  0.1609 -0.0401
  962YOPC   C3A13829  16.934  -0.082   7.156  0.0268 -0.0258  0.0206
  962YOPC   C4A13830  16.808  -0.313   7.583  0.0462 -0.0727 -0.0708
  962YOPC   C1B13831  17.674  -0.052   6.526 -0.1847 -0.1598  0.1608
  962YOPC   C2B13832  17.648   0.184   6.871 -0.3901 -0.3080  0.3055
  962YOPC   D3B13833  17.550  -0.127   7.202 -0.0662  0.0129  0.3514
  962YOPC   C4B13834  17.343  -0.264   7.404  0.3728 -0.4474 -0.3912
  963YOPC   NC313835  10.900   4.851   5.651 -0.1392  0.5121  0.1293
  963YOPC   PO413836  11.396   4.870   5.637 -0.3185 -0.1962  0.2543
  963YOPC   GL113837  11.349   4.676   6.133 -0.1323  0.0808 -0.2672
  963YOPC   GL213838  10.970   4.869   6.260  0.3198  0.1194 -0.2357
  963YOPC   C1A13839  11.576   4.489   6.527 -0.4623  0.2152 -0.0598
  963YOPC   D2A13840  11.779   4.094   6.611  0.0106  0.1757 -0.0389
  963YOPC   C3A13841  12.202   3.931   6.548  0.0618  0.0129 -0.1577
  963YOPC   C4A13842  12.584   3.616   6.522  0.0513  0.1341  0.1529
  963YOPC   C1B13843  10.687   4.806   6.632  0.0170 -0.0625 -0.0849
  963YOPC   C2B13844  10.536   4.686   7.002 -0.1793  0.2231  0.0580
  963YOPC   D3B13845  10.296   4.278   7.172  0.0928  0.0825 -0.0345
  963YOPC   C4B13846   9.947   4.289   6.920  0.0345  0.0739 -0.1222
  964YOPC   NC313847  14.106  12.583   5.927  0.0728  0.4855  0.0618
  964YOPC   PO413848  13.921  12.298   5.611 -0.1012  0.0113  0.1963
  964YOPC   GL113849  13.909  12.107   5.980  0.3224  0.2056 -0.0338
  964YOPC   GL213850  13.834  11.680   6.055  0.0557 -0.2826 -0.1876
  964YOPC   C1A13851  13.527  11.994   6.273 -0.1626  0.2479  0.3143
  964YOPC   D2A13852  13.073  12.143   6.459  0.3375  0.0504 -0.1211
  964YOPC   C3A13853  12.920  11.984   6.901 -0.0320  0.2320  0.0591
  964YOPC   C4A13854  13.164  11.918   7.322  0.1941 -0.0030 -0.2943
  964YOPC   C1B13855  13.748  11.595   6.522 -0.0757  0.0449 -0.4459
  964YOPC   C2B13856  14.024  11.527   6.923 -0.1053  0.0292  0.2538
  964YOPC   D3B13857  14.355  11.697   7.046 -0.0352  0.2318  0.0799
  964YOPC   C4B13858  14.843  11.549   7.081 -0.0211 -0.1022 -0.2068
  965YOPC   NC313859   4.392   9.750   5.469  0.1931  0.4212 -0.1694
  965YOPC   PO413860   4.344  10.051   5.765  0.0730  0.3437 -0.0663
  965YOPC   GL113861   4.036   9.777   6.053  0.0145 -0.1517 -0.3053
  965YOPC   GL213862   3.628   9.858   6.250 -0.2904 -0.1414 -0.1675
  965YOPC   C1A13863   4.028   9.609   6.488 -0.0922  0.1858 -0.1531
  965YOPC   D2A13864   3.958   9.437   6.918 -0.0031 -0.0868 -0.1031
  965YOPC   C3A13865   3.776   9.364   7.320  0.0135  0.4026  0.1332
  965YOPC   C4A13866   3.547   9.302   7.669 -0.1590 -0.0868  0.2047
  965YOPC   C1B13867   3.444   9.481   6.514  0.0071 -0.0821 -0.1139
  965YOPC   C2B13868   3.077   9.267   6.719  0.2819  0.0967 -0.3001
  965YOPC   D3B13869   3.315   8.995   6.831 -0.1246  0.0100  0.1997
  965YOPC   C4B13870   3.791   8.945   6.983 -0.1378  0.0281  0.0547
  966YOPC   NC313871  12.151   8.630   5.028  0.2768  0.0053 -0.0485
  966YOPC   PO413872  12.100   8.197   5.249  0.1080 -0.1009  0.1872
  966YOPC   GL113873  12.189   8.193   5.710 -0.0961  0.2163 -0.0476
  966YOPC   GL213874  11.944   7.988   5.728 -0.2202  0.3454  0.0493
  966YOPC   C1A13875  12.386   8.191   6.057  0.1774 -0.0571  0.0699
  966YOPC   D2A13876  12.621   8.306   6.443  0.0382  0.2051 -0.1972
  966YOPC   C3A13877  12.511   8.202   6.907 -0.0056  0.1636  0.0818
  966YOPC   C4A13878  12.566   8.194   7.364  0.0629  0.0050 -0.0791
  966YOPC   C1B13879  11.897   7.803   6.113 -0.2109  0.0457 -0.1276
  966YOPC   C2B13880  11.786   7.803   6.548  0.0388  0.0984  0.2317
  966YOPC   D3B13881  11.498   8.100   6.718 -0.0978 -0.0936 -0.1201
  966YOPC   C4B13882  11.455   8.229   7.228 -0.0797 -0.2569  0.0591
  967YOPC   NC313883  11.523   2.779   5.585 -0.1772  0.0652  0.2973
  967YOPC   PO413884  11.253   3.026   5.651 -0.0948  0.0383 -0.2117
  967YOPC   GL113885  11.291   2.898   6.053 -0.0501 -0.3210 -0.0384
  967YOPC   GL213886  11.573   3.108   6.153 -0.4158 -0.0347  0.0088
  967YOPC   C1A13887  10.965   2.694   6.212 -0.0008 -0.1743  0.1142
  967YOPC   D2A13888  10.788   2.637   6.639  0.1435 -0.1647 -0.4159
  967YOPC   C3A13889  10.948   2.819   7.032  0.2987 -0.3380 -0.1057
  967YOPC   C4A13890  11.165   2.619   7.295  0.2309 -0.0670  0.0225
  967YOPC   C1B13891  11.737   3.121   6.581 -0.1751 -0.2732 -0.4046
  967YOPC   C2B13892  12.086   3.168   6.955  0.0721 -0.0815  0.0396
  967YOPC   D3B13893  11.961   3.321   7.336  0.3785 -0.0971 -0.0160
  967YOPC   C4B13894  11.682   3.239   7.626 -0.0423  0.0277 -0.0979
  968YOPC   NC313895  12.773   0.340   6.027 -0.0038  0.1464 -0.2586
  968YOPC   PO413896  12.752   0.848   6.039  0.2865 -0.2213 -0.0832
  968YOPC   GL113897  12.595   0.714   6.461 -0.0655  0.0011 -0.1381
  968YOPC   GL213898  12.566   0.438   6.474  0.1857  0.1058  0.0149
  968YOPC   C1A13899  12.807   0.837   6.835  0.3855 -0.0945 -0.0822
  968YOPC   D2A13900  13.216   1.071   6.961  0.3091  0.1577 -0.2006
  968YOPC   C3A13901  13.609   1.165   6.772  0.0522 -0.1622  0.2607
  968YOPC   C4A13902  14.070   1.284   6.616 -0.0402  0.1419 -0.1531
  968YOPC   C1B13903  12.705   0.309   6.798 -0.0791  0.0526  0.0011
  968YOPC   C2B13904  12.787   0.495   7.267  0.3947  0.0245  0.1432
  968YOPC   D3B13905  12.450   0.608   7.608 -0.1683 -0.2855  0.0475
  968YOPC   C4B13906  12.083   0.796   7.568  0.1291  0.1031 -0.0321
  969YOPC   NC313907  10.282  14.287   6.202  0.0123 -0.1647 -0.0831
  969YOPC   PO413908  10.101  14.645   6.003 -0.1218 -0.0130  0.0342
  969YOPC   GL113909   9.787  14.511   6.421  0.0498 -0.0628 -0.0766
  969YOPC   GL213910   9.750  14.883   6.604 -0.0451  0.0339  0.2810
  969YOPC   C1A13911   9.699  14.456   6.844  0.1955 -0.0424  0.0120
  969YOPC   D2A13912   9.716  14.768   7.124  0.1460 -0.1568 -0.0405
  969YOPC   C3A13913   9.784  14.693   7.502  0.2135  0.0457 -0.2967
  969YOPC   C4A13914   9.566  14.909   7.858  0.0656  0.2853 -0.1969
  969YOPC   C1B13915  10.073  15.066   6.854 -0.0376 -0.0969 -0.2524
  969YOPC   C2B13916  10.067  15.124   7.292 -0.2473 -0.0764 -0.0389
  969YOPC   D3B13917  10.126  15.316   7.715 -0.0285  0.2061 -0.0564
  969YOPC   C4B13918  10.039  15.385   8.117 -0.1286  0.1333  0.2809
  970YOPC   NC313919  15.289   9.301   5.740  0.2598  0.2878 -0.0427
  970YOPC   PO413920  15.309   8.934   5.839  0.2549  0.3213 -0.0152
  970YOPC   GL113921  15.335   9.129   6.247  0.2269 -0.1737 -0.4218
  970YOPC   GL213922  15.657   9.285   6.197  0.2592  0.3148  0.3337
  970YOPC   C1A13923  15.230   9.346   6.673  0.0297 -0.1709 -0.2995
  970YOPC   D2A13924  15.214   9.539   7.109  0.0865  0.0203 -0.2581
  970YOPC   C3A13925  15.044   9.325   7.417  0.2293  0.3953  0.3755
  970YOPC   C4A13926  14.751   8.926   7.433 -0.0267  0.0407  0.2618
  970YOPC   C1B13927  15.719   9.218   6.625 -0.2311  0.0393  0.3833
  970YOPC   C2B13928  15.690   9.166   6.980  0.1373 -0.1761  0.2293
  970YOPC   D3B13929  15.765   8.956   7.284 -0.1104 -0.1331  0.2967
  970YOPC   C4B13930  16.018   8.746   7.579 -0.2469 -0.0765 -0.0183
  971YOPC   NC313931  12.585   8.048   5.365 -0.4901  0.0893 -0.1610
  971YOPC   PO413932  12.350   7.760   5.538  0.2304 -0.1303 -0.1738
  971YOPC   GL113933  12.410   7.729   5.899  0.0267  0.0421 -0.0532
  971YOPC   GL213934  12.779   7.948   5.837 -0.0361  0.1113 -0.1761
  971YOPC   C1A13935  12.388   7.754   6.390  0.0863  0.0807 -0.2181
  971YOPC   D2A13936  12.582   7.704   6.766 -0.2026  0.1649  0.1141
  971YOPC   C3A13937  12.330   7.692   7.124 -0.0923 -0.1034  0.1877
  971YOPC   C4A13938  12.619   7.648   7.442 -0.1186 -0.0014  0.4686
  971YOPC   C1B13939  12.870   7.750   6.221  0.2161 -0.1571 -0.1032
  971YOPC   C2B13940  13.048   7.569   6.615 -0.0461  0.2350  0.3619
  971YOPC   D3B13941  13.445   7.365   6.544 -0.5104  0.1445  0.1851
  971YOPC   C4B13942  13.647   7.024   6.436  0.0622 -0.0136 -0.1000
  972YOPC   NC313943  13.642   1.837   5.586 -0.0349  0.1695  0.4105
  972YOPC   PO413944  14.071   1.758   5.710 -0.1230 -0.1870 -0.0897
  972YOPC   GL113945  13.759   1.906   6.070 -0.0218 -0.1281 -0.0533
  972YOPC   GL213946  13.781   1.711   6.419 -0.0178 -0.1176 -0.0584
  972YOPC   C1A13947  13.508   2.131   6.379 -0.1150 -0.0062  0.1313
  972YOPC   D2A13948  13.493   2.033   6.814 -0.2407 -0.1311 -0.1891
  972YOPC   C3A13949  13.711   2.316   7.092 -0.2754  0.2042 -0.0143
  972YOPC   C4A13950  13.808   2.748   7.306 -0.1362  0.1173  0.1867
  972YOPC   C1B13951  13.343   1.588   6.665 -0.2606 -0.0438  0.1669
  972YOPC   C2B13952  13.402   1.636   7.095 -0.4282  0.0949  0.1310
  972YOPC   D3B13953  13.519   1.407   7.248  0.2447 -0.1135 -0.2342
  972YOPC   C4B13954  13.835   1.292   7.535  0.1935 -0.3017  0.1864
  973YOPC   NC313955  17.099  15.206   6.293  0.0990 -0.0385 -0.0130
  973YOPC   PO413956  17.311  15.477   6.052 -0.1292 -0.0124  0.1605
  973YOPC   GL113957  17.231  15.687   6.514 -0.1609  0.1830  0.0856
  973YOPC   GL213958  16.916  15.741   6.665  0.3292  0.0305  0.0405
  973YOPC   C1A13959  17.266  15.591   6.939  0.2811 -0.1362  0.1386
  973YOPC   D2A13960  17.311  15.763   7.407  0.1429 -0.0854  0.2807
  973YOPC   C3A13961  17.594  16.042   7.617 -0.1352  0.0106 -0.1019
  973YOPC   C4A13962  17.946  16.286   7.557 -0.3299 -0.1183  0.1030
  973YOPC   C1B13963  16.539  15.839   7.071 -0.0083 -0.0518  0.2116
  973YOPC   C2B13964  16.621  16.085   7.476  0.1234 -0.0754 -0.1460
  973YOPC   D3B13965  16.520  16.487   7.521 -0.3781  0.0602 -0.0845
  973YOPC   C4B13966  16.325  16.848   7.495  0.0941 -0.0935 -0.0298
  974YOPC   NC313967  16.229   2.227   5.524 -0.1369 -0.1460  0.1837
  974YOPC   PO413968  16.488   2.509   5.788  0.0243  0.0073  0.1792
  974YOPC   GL113969  16.403   2.290   6.134 -0.2528 -0.1673  0.0050
  974YOPC   GL213970  16.532   2.087   6.359  0.2508  0.3401 -0.0614
  974YOPC   C1A13971  15.971   2.214   6.417  0.1003  0.0251  0.2815
  974YOPC   D2A13972  15.500   2.277   6.272  0.0157 -0.3993 -0.0429
  974YOPC   C3A13973  15.193   2.489   6.434 -0.2210  0.3007 -0.2620
  974YOPC   C4A13974  15.005   2.558   6.903 -0.1590 -0.0266  0.0820
  974YOPC   C1B13975  16.361   1.819   6.739  0.2297  0.0692  0.1942
  974YOPC   C2B13976  16.088   1.870   7.038  0.0307  0.1514 -0.1132
  974YOPC   D3B13977  16.151   2.265   7.233 -0.0892  0.2614  0.0579
  974YOPC   C4B13978  15.970   2.636   7.347  0.0785 -0.2023  0.3412
  975YOPC   NC313979   7.728  17.323   6.000  0.2463  0.3334 -0.0635
  975YOPC   PO413980   7.570  16.916   5.836 -0.2183  0.1829  0.3625
  975YOPC   GL113981   7.551  16.892   6.302  0.2349 -0.0391  0.2100
  975YOPC   GL213982   7.510  16.597   6.328 -0.2035  0.0180  0.2672
  975YOPC   C1A13983   7.661  16.770   6.821 -0.1179 -0.2490 -0.0891
  975YOPC   D2A13984   7.959  16.972   7.026 -0.3753 -0.2214  0.0310
  975YOPC   C3A13985   8.017  17.108   7.456 -0.1093  0.0523 -0.2410
  975YOPC   C4A13986   8.283  17.457   7.649 -0.0000  0.1572 -0.0664
  975YOPC   C1B13987   7.460  16.249   6.656  0.2576 -0.0371 -0.0267
  975YOPC   C2B13988   7.682  15.963   6.968  0.1815  0.2399  0.0319
  975YOPC   D3B13989   7.868  15.905   7.300 -0.0304 -0.0698 -0.1337
  975YOPC   C4B13990   7.920  16.248   7.621 -0.0510 -0.0338 -0.0727
  976YOPC   NC313991  16.840  15.862   5.624  0.0152 -0.0299  0.1543
  976YOPC   PO413992  17.148  15.980   5.966 -0.0591 -0.0002 -0.2488
  976YOPC   GL113993  16.835  16.071   6.300  0.1335 -0.2624 -0.1903
  976YOPC   GL213994  16.512  15.942   6.156  0.0756  0.0566  0.0862
  976YOPC   C1A13995  16.761  16.248   6.704 -0.1637 -0.1965 -0.1183
  976YOPC   D2A13996  16.463  16.350   7.032  0.0641 -0.1916 -0.0467
  976YOPC   C3A13997  16.141  16.740   6.927 -0.2128 -0.2855 -0.2705
  976YOPC   C4A13998  15.816  16.976   6.850  0.1391 -0.3210 -0.0490
  976YOPC   C1B13999  16.384  15.871   6.554  0.1598  0.1052  0.0144
  976YOPC   C2B14000  15.982  15.977   6.949 -0.1198  0.0754  0.4470
  976YOPC   D3B14001  16.055  16.354   7.312 -0.0767  0.0653  0.0791
  976YOPC   C4B14002  15.976  16.418   7.789 -0.2551 -0.1711  0.1544
  977YOPC   NC314003  13.744   3.029   5.467 -0.1463  0.1303 -0.2352
  977YOPC   PO414004  13.348   3.027   5.627  0.1891 -0.1140 -0.1801
  977YOPC   GL114005  13.464   2.940   6.024  0.0822  0.1681 -0.0969
  977YOPC   GL214006  13.733   3.030   6.086 -0.1419 -0.1262 -0.1849
  977YOPC   C1A14007  13.374   3.154   6.464  0.0287  0.1289  0.0673
  977YOPC   D2A14008  13.447   3.413   6.748  0.1462  0.0878 -0.3772
  977YOPC   C3A14009  13.720   3.303   7.006 -0.2717 -0.2151 -0.0903
  977YOPC   C4A14010  14.067   3.092   7.062 -0.0715  0.0708  0.2358
  977YOPC   C1B14011  13.935   2.984   6.487  0.1177 -0.2469 -0.0673
  977YOPC   C2B14012  14.044   2.661   6.764 -0.2300 -0.0646  0.0804
  977YOPC   D3B14013  14.401   2.626   7.056  0.0288  0.0704 -0.1687
  977YOPC   C4B14014  14.393   2.930   7.384  0.0459 -0.1207  0.0226
  978YOPC   NC314015  17.825  13.902   5.917  0.0433 -0.0111  0.1987
  978YOPC   PO414016  17.449  13.919   6.226  0.0702 -0.2191 -0.0789
  978YOPC   GL114017  17.116  13.952   6.527 -0.2343  0.1882  0.1427
  978YOPC   GL214018  17.328  13.753   6.777 -0.0688 -0.0741  0.4145
  978YOPC   C1A14019  17.032  14.086   7.000 -0.2736  0.0291  0.0728
  978YOPC   D2A14020  16.942  14.262   7.356 -0.1123 -0.0475  0.0973
  978YOPC   C3A14021  16.654  13.941   7.720  0.2790  0.0656  0.0208
  978YOPC   C4A14022  16.733  13.555   7.862  0.1229 -0.2191 -0.2395
  978YOPC   C1B14023  17.234  13.531   7.044 -0.0273  0.2653 -0.0830
  978YOPC   C2B14024  16.883  13.700   7.327  0.4680  0.1087  0.0182
  978YOPC   D3B14025  17.149  13.818   7.694 -0.2866 -0.2344  0.1477
  978YOPC   C4B14026  17.192  13.578   8.126  0.0351  0.0855  0.0505
  979YOPC   NC314027  12.751  15.280   6.135 -0.0822  0.1811 -0.4347
  979YOPC   PO414028  12.976  15.584   6.139 -0.1146 -0.0672  0.1110
  979YOPC   GL114029  12.937  15.398   6.545  0.0658 -0.1304 -0.0353
  979YOPC   GL214030  12.979  15.602   6.755  0.0154  0.4380 -0.0506
  979YOPC   C1A14031  12.789  15.004   6.733 -0.0900 -0.3877 -0.3836
  979YOPC   D2A14032  12.412  14.880   6.916 -0.0339  0.1159  0.0552
  979YOPC   C3A14033  12.412  14.561   7.256 -0.1583 -0.1432  0.2188
  979YOPC   C4A14034  12.318  14.120   7.416  0.0950 -0.2291  0.0608
  979YOPC   C1B14035  12.673  15.780   7.067 -0.2896 -0.1135 -0.1315
  979YOPC   C2B14036  12.532  15.725   7.514 -0.1375 -0.2602 -0.0694
  979YOPC   D3B14037  12.866  15.483   7.719 -0.0820 -0.0243 -0.0096
  979YOPC   C4B14038  12.831  15.186   8.111 -0.0442  0.0419  0.0640
  980YOPC   NC314039  18.208   7.929   5.819  0.0064  0.1994 -0.2361
  980YOPC   PO414040  18.103   7.712   5.468 -0.0939  0.4425  0.2905
  980YOPC   GL114041  18.126   7.447   5.847  0.2942  0.1567  0.1693
  980YOPC   GL214042  18.346   7.136   5.907 -0.0439  0.4481 -0.1510
  980YOPC   C1A14043  17.878   7.447   6.282 -0.0232  0.1459  0.0547
  980YOPC   D2A14044  17.678   7.383   6.736 -0.1572 -0.0244 -0.1699
  980YOPC   C3A14045  17.512   6.995   6.806 -0.2626 -0.2245  0.3982
  980YOPC   C4A14046  17.623   6.616   6.843  0.0009 -0.0062 -0.0840
  980YOPC   C1B14047  18.321   7.319   6.314  0.3837  0.0794  0.1335
  980YOPC   C2B14048  18.515   7.455   6.665  0.1974 -0.1403 -0.0096
  980YOPC   D3B14049  18.899   7.253   6.873  0.2472 -0.0874 -0.2263
  980YOPC   C4B14050  19.272   6.936   7.202  0.1775  0.0135 -0.2570
  981YOPC   NC314051  15.466   8.533   5.617  0.0354  0.0938 -0.0916
  981YOPC   PO414052  15.782   8.727   5.864  0.0604 -0.0167 -0.0655
  981YOPC   GL114053  15.692   8.707   6.263  0.5135 -0.2271  0.1179
  981YOPC   GL214054  15.909   8.686   6.355 -0.0009 -0.2005 -0.1506
  981YOPC   C1A14055  15.490   8.796   6.650  0.2537  0.0467  0.1947
  981YOPC   D2A14056  15.199   8.968   7.094  0.0878  0.0329 -0.0332
  981YOPC   C3A14057  14.817   9.213   6.965  0.0232  0.3726  0.0500
  981YOPC   C4A14058  14.670   9.518   6.766 -0.1037 -0.2821  0.3043
  981YOPC   C1B14059  15.896   8.592   6.870  0.1917  0.1491 -0.1815
  981YOPC   C2B14060  15.526   8.541   7.058  0.1509 -0.2123  0.1997
  981YOPC   D3B14061  15.498   8.642   7.498 -0.5528 -0.0397  0.2035
  981YOPC   C4B14062  15.353   8.517   7.872  0.3755 -0.2730  0.2356
  982YOPC   NC314063   9.228   0.636   5.630  0.1648  0.1491 -0.1744
  982YOPC   PO414064   8.885   0.593   5.819  0.1966 -0.0307 -0.1150
  982YOPC   GL114065   8.995   0.660   6.188 -0.3273 -0.1556 -0.1726
  982YOPC   GL214066   8.768   0.383   6.440 -0.0717  0.2018  0.1377
  982YOPC   C1A14067   9.052   0.988   6.388  0.0364 -0.2206  0.0506
  982YOPC   D2A14068   8.786   1.139   6.543 -0.1325 -0.2548 -0.2598
  982YOPC   C3A14069   8.921   1.108   6.973  0.2220  0.3460 -0.2276
  982YOPC   C4A14070   8.903   1.137   7.326  0.1326 -0.2654 -0.0564
  982YOPC   C1B14071   8.932   0.219   6.825  0.0495 -0.2935  0.2968
  982YOPC   C2B14072   8.997   0.080   7.102 -0.0899  0.0219  0.1814
  982YOPC   D3B14073   8.625  -0.108   7.450  0.2326 -0.1014  0.0981
  982YOPC   C4B14074   8.401  -0.554   7.553  0.3891  0.0569 -0.0340
  983YOPC   NC314075  17.238   6.904   5.190 -0.1662 -0.0621 -0.0469
  983YOPC   PO414076  17.383   7.349   5.196 -0.1241 -0.2878  0.0580
  983YOPC   GL114077  17.469   7.270   5.589  0.0065 -0.3778  0.1774
  983YOPC   GL214078  17.203   7.148   5.787 -0.0643 -0.0172 -0.2135
  983YOPC   C1A14079  17.678   7.152   5.899 -0.2142  0.1032  0.2144
  983YOPC   D2A14080  17.458   7.114   6.241 -0.0436  0.0755 -0.1837
  983YOPC   C3A14081  17.285   6.593   6.391  0.5300 -0.1230 -0.3502
  983YOPC   C4A14082  17.271   6.108   6.330 -0.0742 -0.1982 -0.3955
  983YOPC   C1B14083  16.897   6.940   6.173  0.2385 -0.3781 -0.1896
  983YOPC   C2B14084  16.562   6.962   6.497 -0.1109  0.0457 -0.3553
  983YOPC   D3B14085  16.599   6.758   6.911  0.4370  0.0222 -0.2385
  983YOPC   C4B14086  16.641   6.911   7.218  0.1521 -0.3042 -0.0262
  984YOPC   NC314087  14.853   4.634   6.067  0.0316  0.2370 -0.0061
  984YOPC   PO414088  14.971   5.054   5.953  0.0926  0.5403  0.4405
  984YOPC   GL114089  14.971   5.194   6.310 -0.1797 -0.0432 -0.4480
  984YOPC   GL214090  14.971   4.924   6.450  0.1378 -0.1777 -0.2178
  984YOPC   C1A14091  15.008   5.489   6.607  0.0013 -0.0592  0.5014
  984YOPC   D2A14092  14.767   5.888   6.647 -0.0733 -0.1015  0.2064
  984YOPC   C3A14093  14.887   6.224   6.772 -0.1829 -0.2022  0.1052
  984YOPC   C4A14094  14.949   6.664   7.052 -0.0009  0.0596  0.3443
  984YOPC   C1B14095  14.875   4.997   6.953 -0.1641 -0.3053  0.0984
  984YOPC   C2B14096  14.989   4.834   7.366  0.1400 -0.1406  0.0538
  984YOPC   D3B14097  14.803   4.453   7.617  0.1726 -0.0649 -0.2680
  984YOPC   C4B14098  14.358   4.290   7.696  0.3311  0.0175 -0.0931
  985YOPC   NC314099  13.738   6.744   5.387  0.1661 -0.0414 -0.1232
  985YOPC   PO414100  14.218   6.844   5.520  0.0428  0.0124 -0.1793
  985YOPC   GL114101  14.010   6.792   5.866  0.1075 -0.3884 -0.0173
  985YOPC   GL214102  13.767   6.974   5.872 -0.1458  0.0144 -0.0397
  985YOPC   C1A14103  14.180   6.945   6.174  0.0288  0.0746  0.1539
  985YOPC   D2A14104  14.172   7.056   6.604 -0.0584  0.2010  0.0648
  985YOPC   C3A14105  13.915   6.968   6.885  0.3438  0.0397 -0.1421
  985YOPC   C4A14106  13.791   7.140   7.361 -0.1793  0.0936  0.0659
  985YOPC   C1B14107  13.661   7.323   6.050  0.0842  0.2002  0.1044
  985YOPC   C2B14108  13.806   7.659   6.293  0.0623 -0.1500 -0.2606
  985YOPC   D3B14109  13.923   7.481   6.738  0.0075  0.2300  0.4963
  985YOPC   C4B14110  14.086   7.575   7.064 -0.1020 -0.1292  0.0627
  986YOPC   NC314111   4.778  12.599   5.810 -0.2270  0.0231 -0.4252
  986YOPC   PO414112   4.538  12.517   6.127 -0.1750  0.1043 -0.0154
  986YOPC   GL114113   4.556  12.398   6.524 -0.1184  0.0108  0.1289
  986YOPC   GL214114   4.684  12.634   6.608  0.0758 -0.0556 -0.1815
  986YOPC   C1A14115   4.230  12.096   6.778  0.0209 -0.0237 -0.2725
  986YOPC   D2A14116   4.387  11.898   7.075 -0.2494  0.1599  0.2843
  986YOPC   C3A14117   4.251  11.879   7.542  0.2447  0.1011 -0.0182
  986YOPC   C4A14118   4.133  11.706   7.962  0.0087 -0.5067  0.1681
  986YOPC   C1B14119   4.610  12.411   7.060 -0.0208 -0.1906  0.2401
  986YOPC   C2B14120   4.617  12.271   7.528 -0.1757 -0.1078 -0.0617
  986YOPC   D3B14121   4.271  12.308   7.813 -0.3137  0.0649 -0.0511
  986YOPC   C4B14122   3.975  12.661   7.717 -0.0074 -0.2584 -0.1005
  987YOPC   NC314123  12.999  16.045   6.156 -0.0040 -0.0680 -0.0706
  987YOPC   PO414124  13.324  16.369   6.256  0.0418 -0.0893 -0.1263
  987YOPC   GL114125  13.616  16.438   6.634 -0.3318 -0.1481 -0.2623
  987YOPC   GL214126  13.373  16.651   6.830  0.1743 -0.0052 -0.0219
  987YOPC   C1A14127  13.646  16.237   7.008  0.1377  0.1645 -0.1027
  987YOPC   D2A14128  13.559  16.174   7.436 -0.1243 -0.4065 -0.0474
  987YOPC   C3A14129  13.896  15.949   7.531 -0.0929 -0.0186 -0.0350
  987YOPC   C4A14130  14.064  15.793   7.825  0.0701 -0.0337  0.1526
  987YOPC   C1B14131  13.753  16.667   7.243 -0.3574  0.0731  0.0997
  987YOPC   C2B14132  14.139  16.517   7.391 -0.0186  0.3543 -0.1353
  987YOPC   D3B14133  14.512  16.618   7.690  0.1992 -0.0912  0.1619
  987YOPC   C4B14134  14.831  16.870   7.874 -0.1028 -0.3612  0.0429
  988YOPC   NC314135   2.950   0.522   6.283 -0.3904 -0.2085 -0.4009
  988YOPC   PO414136   3.042   0.975   6.280 -0.0388 -0.2490 -0.1316
  988YOPC   GL114137   3.017   0.748   6.693 -0.1255 -0.3451 -0.0192
  988YOPC   GL214138   3.082   0.564   6.789  0.2301 -0.0732  0.0021
  988YOPC   C1A14139   2.884   0.835   7.273  0.0585  0.0784  0.0128
  988YOPC   D2A14140   2.956   1.072   7.554  0.3159  0.1859  0.1367
  988YOPC   C3A14141   2.624   1.259   7.756 -0.0179 -0.0600  0.2665
  988YOPC   C4A14142   2.277   1.394   7.756  0.1359 -0.0749  0.1451
  988YOPC   C1B14143   3.072   0.256   7.144 -0.1676 -0.0042 -0.1723
  988YOPC   C2B14144   3.002   0.336   7.532 -0.0513  0.2860 -0.0110
  988YOPC   D3B14145   2.772   0.107   7.793  0.1161  0.1038 -0.1655
  988YOPC   C4B14146   2.663  -0.062   8.282 -0.0394  0.1019 -0.1503
  989YOPC   NC314147   1.675   5.385   5.348  0.4378 -0.1747 -0.0406
  989YOPC   PO414148   1.378   5.258   5.651 -0.1233  0.0540 -0.0429
  989YOPC   GL114149   1.550   5.149   5.916  0.0082  0.2032  0.0051
  989YOPC   GL214150   1.663   4.947   6.098 -0.0909  0.0602 -0.0429
  989YOPC   C1A14151   1.417   5.331   6.371  0.2274  0.1914 -0.0258
  989YOPC   D2A14152   1.394   5.216   6.830 -0.0543  0.1524 -0.3023
  989YOPC   C3A14153   1.670   5.454   7.161 -0.2422  0.0263  0.2080
  989YOPC   C4A14154   2.069   5.364   7.252  0.1069  0.2546  0.0580
  989YOPC   C1B14155   1.774   5.078   6.505  0.0548  0.1817 -0.2432
  989YOPC   C2B14156   1.957   4.974   6.862 -0.0485 -0.0021 -0.2959
  989YOPC   D3B14157   1.815   4.888   7.279  0.0324 -0.3958 -0.1100
  989YOPC   C4B14158   1.702   4.856   7.665 -0.3234 -0.0322  0.0115
  990YOPC   NC314159  10.119  13.386   6.231  0.1013 -0.1941  0.1159
  990YOPC   PO414160   9.919  13.713   6.234  0.0611  0.1616 -0.1034
  990YOPC   GL114161   9.893  13.951   6.525  0.3977  0.0511  0.2392
  990YOPC   GL214162  10.235  14.094   6.681 -0.0707 -0.1493 -0.1778
  990YOPC   C1A14163   9.866  14.003   6.953 -0.3768 -0.0094 -0.0965
  990YOPC   D2A14164   9.668  14.196   7.303 -0.0351  0.1190  0.0337
  990YOPC   C3A14165   9.738  14.270   7.723  0.1504  0.0656  0.1979
  990YOPC   C4A14166   9.716  14.513   8.126  0.2178 -0.2650 -0.1380
  990YOPC   C1B14167  10.459  13.840   6.990  0.1749  0.0487  0.4264
  990YOPC   C2B14168  10.767  13.743   7.007  0.3197 -0.0565  0.2416
  990YOPC   D3B14169  10.989  13.331   7.195  0.1600 -0.2660 -0.1082
  990YOPC   C4B14170  10.805  12.976   7.290 -0.2106  0.0703  0.0165
  991YOPC   NC314171  10.669   4.341   5.327 -0.1493 -0.0831  0.1500
  991YOPC   PO414172  11.040   4.352   5.604  0.1600 -0.2202 -0.5219
  991YOPC   GL114173  11.015   4.267   6.060 -0.0908  0.2598  0.1978
  991YOPC   GL214174  11.073   3.979   6.120 -0.3147 -0.1806  0.0348
  991YOPC   C1A14175  11.143   4.378   6.461  0.1363  0.2804 -0.2627
  991YOPC   D2A14176  11.180   4.353   6.900 -0.1044 -0.1508 -0.1499
  991YOPC   C3A14177  11.382   3.987   7.088  0.0224 -0.1054  0.0748
  991YOPC   C4A14178  11.437   3.566   7.386  0.0375  0.1742 -0.1545
  991YOPC   C1B14179  10.739   3.726   6.163 -0.1187  0.0676 -0.2109
  991YOPC   C2B14180  10.725   3.282   6.251  0.1851  0.3237 -0.1451
  991YOPC   D3B14181  10.826   3.221   6.586  0.0628  0.0828  0.1141
  991YOPC   C4B14182  11.200   3.002   6.550 -0.0315  0.0563  0.1503
  992YOPC   NC314183  10.655   7.585   5.317  0.3716 -0.0509  0.2893
  992YOPC   PO414184  11.009   7.703   5.017 -0.1458  0.0153  0.2442
  992YOPC   GL114185  11.360   7.755   5.360 -0.3005 -0.0116  0.1119
  992YOPC   GL214186  11.616   8.094   5.381 -0.0792 -0.0056  0.1354
  992YOPC   C1A14187  11.459   7.686   5.757 -0.0362  0.0822  0.1071
  992YOPC   D2A14188  11.327   7.705   6.233 -0.0875  0.2407 -0.0749
  992YOPC   C3A14189  10.848   7.810   6.184  0.2718 -0.0971 -0.1105
  992YOPC   C4A14190  10.585   8.124   6.337 -0.0380  0.2810 -0.1045
  992YOPC   C1B14191  11.603   8.310   5.761  0.1728  0.0194  0.3642
  992YOPC   C2B14192  11.589   8.152   6.088  0.1885 -0.0154  0.1766
  992YOPC   D3B14193  11.519   8.482   6.427 -0.0129 -0.2772 -0.0492
  992YOPC   C4B14194  11.363   8.592   6.813 -0.0257  0.1565 -0.2125
  993YOPC   NC314195   5.718   0.156   6.048  0.1705  0.0453 -0.0248
  993YOPC   PO414196   5.503  -0.156   5.809  0.1821 -0.1762 -0.3073
  993YOPC   GL114197   5.369  -0.130   6.289  0.0641  0.2311  0.0837
  993YOPC   GL214198   5.256  -0.411   6.448 -0.1278  0.1632 -0.0972
  993YOPC   C1A14199   5.618  -0.033   6.633 -0.0746 -0.1186 -0.1802
  993YOPC   D2A14200   5.452  -0.080   6.995 -0.2045 -0.2002  0.0380
  993YOPC   C3A14201   5.786  -0.099   7.312  0.0593 -0.0636 -0.0088
  993YOPC   C4A14202   6.064  -0.265   7.639  0.0550  0.0785  0.0900
  993YOPC   C1B14203   5.160  -0.471   6.926 -0.0764 -0.2894  0.1689
  993YOPC   C2B14204   5.463  -0.574   7.181 -0.1108  0.0015  0.0200
  993YOPC   D3B14205   5.462  -1.042   7.306 -0.1743 -0.1074 -0.3350
  993YOPC   C4B14206   5.656  -1.197   7.640  0.1793 -0.3550  0.1825
  994YOPC   NC314207  16.200   1.906   5.887  0.0980  0.1054 -0.1852
  994YOPC   PO414208  16.561   1.575   5.896 -0.1440 -0.3859 -0.0548
  994YOPC   GL114209  16.571   1.267   6.151  0.2825 -0.2101 -0.0670
  994YOPC   GL214210  16.926   1.102   6.312 -0.1357  0.2771  0.2282
  994YOPC   C1A14211  16.691   1.348   6.636 -0.3106 -0.3018  0.3550
  994YOPC   D2A14212  17.034   1.316   6.912 -0.5174 -0.0467 -0.0178
  994YOPC   C3A14213  17.039   1.599   7.268 -0.1815 -0.0711 -0.0069
  994YOPC   C4A14214  16.771   1.590   7.572 -0.1341  0.2284 -0.0108
  994YOPC   C1B14215  17.221   0.916   6.477 -0.3539  0.0997  0.2081
  994YOPC   C2B14216  17.247   0.862   6.831 -0.1782 -0.2878  0.2785
  994YOPC   D3B14217  17.044   0.896   7.186 -0.2059  0.3042 -0.0604
  994YOPC   C4B14218  16.723   1.174   7.320  0.2924 -0.1688  0.1776
  995YOPC   NC314219   3.803   5.093   5.576 -0.3337  0.0330  0.1298
  995YOPC   PO414220   3.434   5.152   5.584 -0.2085 -0.0427  0.1133
  995YOPC   GL114221   3.563   5.415   5.984  0.0042  0.2023  0.0939
  995YOPC   GL214222   3.961   5.449   5.921  0.2270  0.2610  0.0961
  995YOPC   C1A14223   3.518   5.759   6.321 -0.0013  0.2106  0.0938
  995YOPC   D2A14224   3.465   6.076   6.699 -0.0298 -0.0399  0.1803
  995YOPC   C3A14225   3.134   6.325   6.828 -0.1606  0.2376 -0.1859
  995YOPC   C4A14226   2.750   6.211   7.018 -0.0186 -0.0679  0.0382
  995YOPC   C1B14227   3.845   5.282   6.413 -0.0282 -0.0552 -0.2111
  995YOPC   C2B14228   4.007   5.264   6.801  0.1248  0.0964 -0.0379
  995YOPC   D3B14229   4.417   5.206   6.846  0.2365  0.3943 -0.1301
  995YOPC   C4B14230   4.872   5.339   6.591  0.0796 -0.1938 -0.0700
  996YOPC   NC314231   4.016  14.320   5.782 -0.0675  0.1920 -0.0500
  996YOPC   PO414232   3.859  13.984   6.053 -0.0302  0.0566 -0.2167
  996YOPC   GL114233   4.132  14.205   6.275 -0.0069 -0.0622 -0.1882
  996YOPC   GL214234   3.906  14.072   6.596 -0.0047  0.0233  0.0705
  996YOPC   C1A14235   4.381  14.410   6.629 -0.3046  0.1300  0.0789
  996YOPC   D2A14236   4.353  14.758   6.806  0.1209 -0.2273  0.1595
  996YOPC   C3A14237   4.390  15.194   6.952  0.0058  0.1122  0.2012
  996YOPC   C4A14238   4.721  15.503   7.067 -0.0103  0.0164 -0.3237
  996YOPC   C1B14239   3.634  14.241   6.845  0.1618 -0.1423 -0.0441
  996YOPC   C2B14240   3.606  14.297   7.312 -0.0865 -0.1386  0.1941
  996YOPC   D3B14241   3.646  14.729   7.634  0.0287  0.2271 -0.0728
  996YOPC   C4B14242   3.798  14.591   8.048  0.1839 -0.0289  0.3073
  997YOPC   NC314243   0.672   5.714   5.702  0.0262  0.0819  0.0882
  997YOPC   PO414244   0.510   6.004   5.461 -0.0088  0.0493  0.1614
  997YOPC   GL114245   0.343   6.098   5.842 -0.1044  0.0944 -0.3237
  997YOPC   GL214246   0.527   6.270   5.990 -0.0768  0.1022 -0.3508
  997YOPC   C1A14247   0.038   6.247   6.073  0.4182 -0.2720 -0.3771
  997YOPC   D2A14248  -0.130   6.318   6.519 -0.0465  0.1045  0.1670
  997YOPC   C3A14249  -0.389   6.614   6.669  0.2279 -0.2707 -0.2525
  997YOPC   C4A14250  -0.391   7.060   6.724  0.2407 -0.4079  0.1285
  997YOPC   C1B14251   0.384   6.486   6.382 -0.0166 -0.0629 -0.1933
  997YOPC   C2B14252   0.509   6.704   6.810 -0.1806 -0.3121 -0.0328
  997YOPC   D3B14253   0.298   6.682   7.301 -0.0585 -0.1368  0.1974
  997YOPC   C4B14254   0.128   6.536   7.644 -0.0864 -0.3579 -0.2116
  998YOPC   NC314255   0.402  18.407   5.375  0.0303 -0.5017  0.0226
  998YOPC   PO414256   0.137  18.523   5.638  0.0927 -0.4944  0.1983
  998YOPC   GL114257   0.266  18.240   5.897  0.1523  0.1553  0.0918
  998YOPC   GL214258   0.088  18.318   6.135 -0.1271 -0.0693  0.1211
  998YOPC   C1A14259   0.632  18.134   6.223 -0.3790 -0.0002 -0.2443
  998YOPC   D2A14260   0.692  18.056   6.661  0.2110 -0.0881  0.1087
  998YOPC   C3A14261   0.393  18.049   6.999 -0.2589 -0.0524 -0.1507
  998YOPC   C4A14262   0.350  17.762   7.364  0.1001  0.3008 -0.0605
  998YOPC   C1B14263   0.133  18.186   6.559  0.3376  0.1877  0.3207
  998YOPC   C2B14264  -0.075  17.960   6.879 -0.0052  0.0441 -0.1815
  998YOPC   D3B14265   0.229  17.668   6.732 -0.4145 -0.1682  0.1914
  998YOPC   C4B14266   0.548  17.397   6.950  0.1223  0.0655  0.0707
  999YOPC   NC314267  13.556  15.921   5.466 -0.3321 -0.2727  0.0038
  999YOPC   PO414268  13.444  15.876   5.987 -0.0271 -0.0303 -0.0068
  999YOPC   GL114269  13.355  15.806   6.432 -0.0190  0.1423  0.1542
  999YOPC   GL214270  13.218  16.064   6.684  0.0216 -0.2755  0.2442
  999YOPC   C1A14271  13.501  15.560   6.800 -0.1922 -0.0911 -0.0778
  999YOPC   D2A14272  13.602  15.598   7.289 -0.0109 -0.0871  0.1982
  999YOPC   C3A14273  13.662  15.523   7.661 -0.0657 -0.1568 -0.1322
  999YOPC   C4A14274  13.653  15.124   7.957 -0.1244  0.0796 -0.0028
  999YOPC   C1B14275  13.202  15.947   7.129  0.1010 -0.0403 -0.2554
  999YOPC   C2B14276  13.124  15.893   7.581  0.0128 -0.2085 -0.1637
  999YOPC   D3B14277  13.424  15.897   7.919 -0.0361 -0.2180  0.0559
  999YOPC   C4B14278  13.372  15.820   8.405  0.0032  0.2369 -0.0501
 1000YOPC   NC314279   8.078  17.538   5.686 -0.1694 -0.0996  0.1194
 1000YOPC   PO414280   7.853  17.803   5.924 -0.1824 -0.2000 -0.1240
 1000YOPC   GL114281   7.799  17.745   6.298 -0.0953  0.0052 -0.1115
 1000YOPC   GL214282   8.032  17.871   6.600 -0.0283 -0.1579  0.3752
 1000YOPC   C1A14283   7.610  17.730   6.713  0.1376 -0.0453  0.1609
 1000YOPC   D2A14284   7.280  17.467   7.008  0.1860 -0.0565 -0.3812
 1000YOPC   C3A14285   7.394  17.370   7.532  0.1351 -0.2681 -0.0169
 1000YOPC   C4A14286   7.388  17.637   7.895 -0.0219  0.1953 -0.1139
 1000YOPC   C1B14287   8.203  18.042   7.031  0.2302 -0.1498 -0.1148
 1000YOPC   C2B14288   8.100  18.441   7.402  0.2531  0.0722 -0.1949
 1000YOPC   D3B14289   8.401  18.317   7.875 -0.1526  0.0023 -0.2330
 1000YOPC   C4B14290   8.881  18.487   8.001  0.1329  0.0448 -0.2418
 1001YOPC   NC314291   7.073   4.844   5.433 -0.1451  0.3662 -0.2415
 1001YOPC   PO414292   7.073   4.341   5.343  0.0169 -0.1649  0.1632
 1001YOPC   GL114293   6.938   4.373   5.751  0.3029 -0.1665 -0.2119
 1001YOPC   GL214294   7.029   4.803   5.970 -0.0737  0.0663  0.0058
 1001YOPC   C1A14295   6.720   4.375   6.163  0.0065 -0.1241  0.1890
 1001YOPC   D2A14296   6.952   4.439   6.629 -0.1902  0.0170 -0.1837
 1001YOPC   C3A14297   6.812   4.510   7.024 -0.0646  0.3105  0.2091
 1001YOPC   C4A14298   6.829   4.265   7.358  0.2802  0.0581 -0.3202
 1001YOPC   C1B14299   7.032   4.949   6.460  0.0989  0.0461 -0.1954
 1001YOPC   C2B14300   7.182   4.853   6.872 -0.0784  0.3270  0.0940
 1001YOPC   D3B14301   7.237   4.597   7.262 -0.1298  0.1489 -0.1336
 1001YOPC   C4B14302   7.619   4.450   7.401  0.1549  0.2804 -0.2273
 1002YOPC   NC314303  13.000  12.525   5.721  0.0005 -0.0326  0.0662
 1002YOPC   PO414304  13.409  12.635   5.811  0.0588  0.0853 -0.0654
 1002YOPC   GL114305  13.313  12.671   6.182  0.4493  0.1341  0.0051
 1002YOPC   GL214306  13.685  12.475   6.217  0.1549 -0.0106 -0.1041
 1002YOPC   C1A14307  13.237  12.634   6.580  0.0219 -0.0797 -0.1845
 1002YOPC   D2A14308  13.303  12.384   6.894 -0.0070  0.0045  0.1090
 1002YOPC   C3A14309  13.424  12.017   6.782 -0.0594  0.0730 -0.2725
 1002YOPC   C4A14310  13.222  11.680   6.480 -0.0605 -0.0731 -0.5122
 1002YOPC   C1B14311  13.945  12.294   6.464  0.0585  0.2103  0.1202
 1002YOPC   C2B14312  14.215  12.337   6.756  0.2281 -0.1188 -0.1602
 1002YOPC   D3B14313  14.262  12.634   7.084  0.0795 -0.0859  0.2057
 1002YOPC   C4B14314  13.902  12.748   7.275 -0.1752 -0.1889 -0.0457
 1003YOPC   NC314315   9.479  13.850   6.088  0.0281  0.0467 -0.1483
 1003YOPC   PO414316   9.309  14.191   6.114  0.0183 -0.0970 -0.1657
 1003YOPC   GL114317   9.459  14.177   6.459  0.1001 -0.3715  0.1847
 1003YOPC   GL214318   9.223  14.372   6.671 -0.2456  0.1009  0.1084
 1003YOPC   C1A14319   9.454  13.917   6.755 -0.0073 -0.5905 -0.2657
 1003YOPC   D2A14320   9.434  13.729   7.204  0.0017  0.1186 -0.2314
 1003YOPC   C3A14321   9.598  13.753   7.737 -0.0261 -0.1477 -0.3175
 1003YOPC   C4A14322   9.861  13.961   8.048 -0.0362  0.0111 -0.0754
 1003YOPC   C1B14323   9.197  14.273   7.138 -0.2150  0.0021  0.3313
 1003YOPC   C2B14324   8.891  14.407   7.459  0.1491  0.1930  0.0257
 1003YOPC   D3B14325   8.862  14.396   8.002  0.1295 -0.0764  0.0976
 1003YOPC   C4B14326   8.737  14.698   8.269 -0.3244 -0.0900 -0.1228
 1004YOPC   NC314327  12.755   5.963   5.566  0.0596 -0.1134  0.0176
 1004YOPC   PO414328  13.127   6.095   5.852 -0.1948 -0.0297  0.0726
 1004YOPC   GL114329  13.037   5.861   6.112 -0.4788 -0.1516 -0.0024
 1004YOPC   GL214330  12.820   5.693   6.009 -0.0638  0.0152  0.2253
 1004YOPC   C1A14331  13.099   6.071   6.562  0.0755 -0.2189 -0.0406
 1004YOPC   D2A14332  13.165   6.340   6.875 -0.2379  0.1451 -0.0081
 1004YOPC   C3A14333  13.471   6.199   7.161  0.1969  0.1451 -0.0416
 1004YOPC   C4A14334  13.629   6.501   7.472 -0.1238  0.5703 -0.0258
 1004YOPC   C1B14335  12.842   5.580   6.477 -0.0081  0.4993  0.3928
 1004YOPC   C2B14336  12.671   5.664   6.840 -0.3319  0.0045 -0.1523
 1004YOPC   D3B14337  12.856   6.006   7.064  0.0602 -0.0495 -0.1277
 1004YOPC   C4B14338  13.139   6.010   7.432  0.1047  0.1086 -0.3112
 1005YOPC   NC314339  18.162  17.727   5.423 -0.2901 -0.2407  0.0218
 1005YOPC   PO414340  18.393  17.447   5.710 -0.1786 -0.3476  0.1253
 1005YOPC   GL114341  18.553  17.312   6.098 -0.2367 -0.0981  0.2044
 1005YOPC   GL214342  18.703  17.507   6.089  0.0987  0.0287  0.0132
 1005YOPC   C1A14343  18.340  17.384   6.460 -0.3402 -0.2072 -0.2448
 1005YOPC   D2A14344  18.084  17.575   6.830 -0.2668  0.1582 -0.3046
 1005YOPC   C3A14345  17.932  17.847   7.139 -0.0714 -0.2220 -0.1521
 1005YOPC   C4A14346  17.833  17.931   7.606  0.0986  0.2827  0.0989
 1005YOPC   C1B14347  18.458  17.832   6.258 -0.1329 -0.1451  0.0511
 1005YOPC   C2B14348  18.031  17.957   6.415 -0.0766  0.0221 -0.3026
 1005YOPC   D3B14349  18.026  18.281   6.895  0.3095  0.1927  0.0412
 1005YOPC   C4B14350  18.039  18.370   7.331 -0.1883  0.0654 -0.2284
 1006YOPC   NC314351  16.055   8.387   5.621  0.0673 -0.2187 -0.2185
 1006YOPC   PO414352  16.502   8.643   5.601 -0.2434 -0.2678 -0.1007
 1006YOPC   GL114353  16.378   8.705   5.959  0.2482  0.1238 -0.3307
 1006YOPC   GL214354  16.149   9.036   6.151  0.2511 -0.0760 -0.0589
 1006YOPC   C1A14355  16.379   8.552   6.422  0.1652 -0.2168 -0.0758
 1006YOPC   D2A14356  16.440   8.361   6.828  0.0307 -0.1563 -0.0092
 1006YOPC   C3A14357  16.176   8.184   7.076 -0.0207  0.1687  0.1476
 1006YOPC   C4A14358  15.832   8.233   7.343  0.0570  0.0060 -0.2312
 1006YOPC   C1B14359  16.523   9.011   6.353  0.0835 -0.2253 -0.0016
 1006YOPC   C2B14360  16.694   8.799   6.652  0.1371  0.3739 -0.1979
 1006YOPC   D3B14361  16.816   8.771   7.100 -0.2422 -0.2726  0.1147
 1006YOPC   C4B14362  17.096   8.785   7.314 -0.0385 -0.3132  0.1774
 1007YOPC   NC314363  14.110   3.671   5.252 -0.0620 -0.0070 -0.0605
 1007YOPC   PO414364  14.133   3.329   5.500 -0.3247 -0.0174 -0.0581
 1007YOPC   GL114365  14.108   3.457   6.032 -0.1764  0.3700 -0.0467
 1007YOPC   GL214366  14.396   3.331   6.207 -0.0516 -0.0890 -0.3626
 1007YOPC   C1A14367  13.736   3.457   6.286  0.0408  0.2251  0.4529
 1007YOPC   D2A14368  13.237   3.612   6.302 -0.2090  0.0108  0.0623
 1007YOPC   C3A14369  13.052   3.765   6.657 -0.2948  0.0521 -0.2900
 1007YOPC   C4A14370  12.837   3.750   7.013  0.0308 -0.0806  0.1169
 1007YOPC   C1B14371  14.417   3.365   6.631  0.1262 -0.0553 -0.1818
 1007YOPC   C2B14372  14.549   3.543   7.043 -0.0931 -0.5679  0.2677
 1007YOPC   D3B14373  14.659   3.326   7.453 -0.1738 -0.1264 -0.1766
 1007YOPC   C4B14374  14.854   3.419   7.881 -0.5340  0.0471 -0.3429
 1008YOPC   NC314375  11.613   6.158   5.554 -0.0788 -0.3116  0.1659
 1008YOPC   PO414376  11.460   6.533   5.424 -0.4088  0.2362  0.1799
 1008YOPC   GL114377  11.583   6.650   5.809 -0.0694  0.3313 -0.2191
 1008YOPC   GL214378  11.733   6.931   5.753 -0.2474 -0.0908 -0.0822
 1008YOPC   C1A14379  11.634   6.806   6.210  0.1393  0.1243 -0.2471
 1008YOPC   D2A14380  11.965   6.951   6.396 -0.1794  0.3055 -0.0955
 1008YOPC   C3A14381  11.807   6.910   6.783  0.0471  0.2606  0.0265
 1008YOPC   C4A14382  11.829   6.830   7.302 -0.2218  0.1661  0.0925
 1008YOPC   C1B14383  12.128   6.873   5.964  0.0764  0.0957  0.0753
 1008YOPC   C2B14384  12.342   6.630   6.173  0.3396  0.1187  0.2018
 1008YOPC   D3B14385  12.337   6.713   6.585  0.0923  0.0626  0.1200
 1008YOPC   C4B14386  12.325   6.780   7.006  0.2881 -0.1036  0.3272
 1009YOPC   NC314387   8.083   2.783   5.326  0.1902  0.0324  0.1427
 1009YOPC   PO414388   8.132   3.115   5.104 -0.0202 -0.2351  0.0968
 1009YOPC   GL114389   8.122   3.169   5.624  0.2075 -0.0869  0.2559
 1009YOPC   GL214390   8.355   2.961   5.778 -0.0098 -0.1794  0.0065
 1009YOPC   C1A14391   7.986   3.152   6.060 -0.0070  0.0300  0.1973
 1009YOPC   D2A14392   8.061   3.131   6.502  0.1495 -0.0192 -0.1686
 1009YOPC   C3A14393   7.772   3.265   6.769 -0.0258 -0.0146 -0.0299
 1009YOPC   C4A14394   7.471   3.193   7.096 -0.3146  0.5204 -0.1825
 1009YOPC   C1B14395   8.517   3.093   6.102  0.2311 -0.2935 -0.2503
 1009YOPC   C2B14396   8.546   3.395   6.502 -0.0352  0.2211 -0.0965
 1009YOPC   D3B14397   8.185   3.614   6.675  0.3573 -0.0007 -0.0316
 1009YOPC   C4B14398   7.897   3.659   7.048 -0.4166  0.0151  0.1735
 1010YOPC   NC314399   9.568  12.817   5.895  0.0464 -0.1652 -0.0898
 1010YOPC   PO414400   9.771  12.417   6.100 -0.1345 -0.0462 -0.0736
 1010YOPC   GL114401   9.831  12.208   6.535 -0.0670 -0.3540  0.0496
 1010YOPC   GL214402   9.831  11.913   6.415  0.0514  0.1845  0.0520
 1010YOPC   C1A14403   9.895  12.535   6.896  0.2423 -0.0434  0.0414
 1010YOPC   D2A14404   9.583  12.720   7.251 -0.2113 -0.1280 -0.0538
 1010YOPC   C3A14405   9.257  12.915   6.994 -0.2379  0.0161  0.2191
 1010YOPC   C4A14406   9.058  13.368   7.113  0.0930 -0.0815  0.2776
 1010YOPC   C1B14407   9.815  11.783   6.813 -0.2118 -0.0917  0.0446
 1010YOPC   C2B14408   9.665  11.847   7.142 -0.1357  0.2834  0.1307
 1010YOPC   D3B14409   9.590  11.476   7.431 -0.3669 -0.1023 -0.3602
 1010YOPC   C4B14410   9.497  11.357   7.828  0.4000  0.3661  0.2358
 1011YOPC   NC314411  15.871  17.332   5.717 -0.0282 -0.3368  0.2910
 1011YOPC   PO414412  15.648  17.105   5.898  0.3203  0.0575  0.2119
 1011YOPC   GL114413  15.624  17.058   6.277  0.0031  0.2446  0.0115
 1011YOPC   GL214414  15.309  17.081   6.308 -0.0672  0.0469 -0.0691
 1011YOPC   C1A14415  15.691  17.398   6.548  0.1686  0.4042 -0.0439
 1011YOPC   D2A14416  15.803  17.603   7.017 -0.5128 -0.0376 -0.0455
 1011YOPC   C3A14417  16.149  17.753   7.298  0.1371  0.1119 -0.2882
 1011YOPC   C4A14418  16.557  17.716   7.568 -0.3498 -0.0176 -0.1384
 1011YOPC   C1B14419  15.225  17.222   6.739 -0.1104 -0.1091 -0.0600
 1011YOPC   C2B14420  14.974  17.402   7.011 -0.1371 -0.0130  0.1111
 1011YOPC   D3B14421  14.872  17.874   7.016  0.2054  0.1180  0.1193
 1011YOPC   C4B14422  14.852  18.155   6.626  0.0503  0.2575  0.1690
 1012YOPC   NC314423   3.858  17.364   6.011  0.2724 -0.0309 -0.0664
 1012YOPC   PO414424   3.961  17.382   6.519 -0.0069 -0.1323  0.3086
 1012YOPC   GL114425   3.709  17.552   6.803 -0.2485 -0.1136  0.3701
 1012YOPC   GL214426   3.824  17.897   6.937  0.0587  0.3294  0.1097
 1012YOPC   C1A14427   3.508  17.560   7.227 -0.3271  0.0236  0.0977
 1012YOPC   D2A14428   3.166  17.569   7.520  0.4581 -0.1718  0.1797
 1012YOPC   C3A14429   2.897  17.244   7.764 -0.1133 -0.0666 -0.3423
 1012YOPC   C4A14430   2.762  16.999   8.021  0.3403  0.0683  0.2044
 1012YOPC   C1B14431   3.702  18.042   7.346  0.1285 -0.4838 -0.0486
 1012YOPC   C2B14432   3.613  17.878   7.601 -0.0370 -0.0164  0.1179
 1012YOPC   D3B14433   3.402  18.046   7.982 -0.0226 -0.3554 -0.1496
 1012YOPC   C4B14434   3.165  18.369   8.249  0.3958 -0.2750 -0.0469
 1013YOPC   NC314435   1.078  13.986   6.402 -0.0290  0.0109  0.0237
 1013YOPC   PO414436   0.803  14.423   6.449  0.0161 -0.0295  0.1331
 1013YOPC   GL114437   0.645  14.412   6.805 -0.1005  0.2465 -0.0470
 1013YOPC   GL214438   0.576  14.745   6.842  0.0326  0.0277  0.1353
 1013YOPC   C1A14439   0.340  14.250   7.103 -0.1498  0.1028  0.2521
 1013YOPC   D2A14440   0.017  14.396   7.175 -0.1289 -0.2633  0.3192
 1013YOPC   C3A14441  -0.070  14.850   7.315  0.0862 -0.3706  0.1039
 1013YOPC   C4A14442  -0.173  15.283   7.272  0.2699  0.0211 -0.2178
 1013YOPC   C1B14443   0.476  14.717   7.223 -0.4056 -0.0247  0.0673
 1013YOPC   C2B14444   0.287  14.453   7.638 -0.0665 -0.1921 -0.0890
 1013YOPC   D3B14445   0.082  14.262   7.931  0.2082 -0.2136 -0.1257
 1013YOPC   C4B14446  -0.420  14.090   7.985  0.0325  0.0046  0.2124
 1014YOPC   NC314447   9.909  15.058   5.814  0.1448  0.2706  0.0205
 1014YOPC   PO414448   9.962  15.397   5.976  0.0023 -0.0996 -0.1751
 1014YOPC   GL114449   9.963  15.584   6.417  0.1233  0.1125 -0.1836
 1014YOPC   GL214450   9.698  15.350   6.654  0.2012 -0.3703  0.3509
 1014YOPC   C1A14451  10.080  15.594   6.860 -0.0490 -0.0006 -0.1860
 1014YOPC   D2A14452  10.262  15.635   7.280 -0.1613  0.2057  0.0256
 1014YOPC   C3A14453  10.601  15.560   7.426  0.0718 -0.2778 -0.0581
 1014YOPC   C4A14454  10.883  15.521   7.924 -0.2330 -0.0317 -0.2058
 1014YOPC   C1B14455   9.711  15.471   7.094  0.3241 -0.0323  0.0276
 1014YOPC   C2B14456   9.818  15.599   7.456  0.0061  0.0019  0.1576
 1014YOPC   D3B14457  10.001  15.900   7.628  0.0116  0.2581 -0.2486
 1014YOPC   C4B14458  10.274  16.320   7.583 -0.0986  0.2994  0.0417
 1015YOPC   NC314459   0.664  15.668   5.948  0.1554  0.0184  0.2607
 1015YOPC   PO414460   0.380  15.708   6.126  0.0378  0.0485 -0.0859
 1015YOPC   GL114461   0.559  15.457   6.404 -0.1289 -0.3819 -0.2516
 1015YOPC   GL214462   0.567  15.649   6.635  0.0545 -0.2893 -0.1114
 1015YOPC   C1A14463   0.738  15.162   6.736  0.0357  0.0201  0.1316
 1015YOPC   D2A14464   1.069  14.884   6.900  0.2707 -0.5178  0.0197
 1015YOPC   C3A14465   0.944  14.740   7.373 -0.1129 -0.0925 -0.1415
 1015YOPC   C4A14466   0.870  14.304   7.503 -0.0177 -0.2726 -0.0551
 1015YOPC   C1B14467   0.807  15.619   6.957 -0.3990 -0.0290  0.2221
 1015YOPC   C2B14468   0.994  15.236   7.243 -0.1551  0.0406 -0.3618
 1015YOPC   D3B14469   0.796  15.145   7.686  0.3282  0.0372  0.0748
 1015YOPC   C4B14470   0.476  15.306   7.958  0.2710  0.1902 -0.1295
 1016YOPC   NC314471  16.321   4.268   5.651  0.3171  0.2431 -0.1000
 1016YOPC   PO414472  16.521   4.544   5.350 -0.3184  0.1734 -0.0022
 1016YOPC   GL114473  16.651   4.633   5.776  0.1518 -0.2165 -0.0128
 1016YOPC   GL214474  16.397   4.843   6.014 -0.3014 -0.1089  0.0978
 1016YOPC   C1A14475  16.735   4.540   6.212  0.2119 -0.3775 -0.3374
 1016YOPC   D2A14476  16.638   4.617   6.627 -0.1488  0.2203  0.1537
 1016YOPC   C3A14477  16.417   4.921   6.876  0.5079  0.1669  0.3123
 1016YOPC   C4A14478  15.921   4.902   6.947  0.1211  0.0355  0.3027
 1016YOPC   C1B14479  16.532   5.107   6.390  0.1049 -0.2985 -0.0563
 1016YOPC   C2B14480  16.776   5.392   6.603 -0.0094  0.0739  0.1034
 1016YOPC   D3B14481  17.047   5.443   6.301 -0.0212 -0.0566 -0.2273
 1016YOPC   C4B14482  17.184   5.547   5.921 -0.2470  0.4009 -0.0014
 1017YOPC   NC314483   2.321   9.063   5.629 -0.1069  0.0738  0.1074
 1017YOPC   PO414484   1.874   9.008   5.724  0.0801 -0.0503  0.0293
 1017YOPC   GL114485   1.869   9.198   6.048 -0.1662 -0.2952  0.3395
 1017YOPC   GL214486   2.141   9.366   6.033  0.3711 -0.3446 -0.0018
 1017YOPC   C1A14487   1.640   9.261   6.389 -0.1125  0.1837  0.0084
 1017YOPC   D2A14488   1.275   9.331   6.556  0.3429  0.0662 -0.0730
 1017YOPC   C3A14489   1.336   9.385   7.007  0.4262  0.0094 -0.0994
 1017YOPC   C4A14490   1.253   9.487   7.496 -0.1752  0.1163 -0.1240
 1017YOPC   C1B14491   2.168   9.434   6.506 -0.2336  0.2097  0.0030
 1017YOPC   C2B14492   2.359   9.438   6.900 -0.3128  0.3832 -0.1969
 1017YOPC   D3B14493   2.709   9.618   6.909 -0.0621  0.0124  0.1473
 1017YOPC   C4B14494   3.097   9.824   6.770 -0.1408  0.1670 -0.3596
 1018YOPC   NC314495  17.899  11.553   5.240  0.0354 -0.0001  0.0324
 1018YOPC   PO414496  17.970  11.714   5.543 -0.0452 -0.1318  0.0194
 1018YOPC   GL114497  17.953  11.677   6.013  0.0325  0.1028 -0.1213
 1018YOPC   GL214498  17.755  11.510   5.967  0.0055  0.2702 -0.1127
 1018YOPC   C1A14499  17.685  11.904   6.278 -0.1328  0.3492  0.1393
 1018YOPC   D2A14500  17.368  11.840   6.453  0.1452 -0.0293 -0.1630
 1018YOPC   C3A14501  17.372  12.030   6.807 -0.1690 -0.2640 -0.0959
 1018YOPC   C4A14502  17.360  12.506   6.811 -0.0590 -0.0944 -0.2331
 1018YOPC   C1B14503  17.629  11.409   6.394 -0.0186  0.1083  0.1433
 1018YOPC   C2B14504  17.524  11.455   6.809 -0.3000 -0.1777  0.0790
 1018YOPC   D3B14505  17.480  11.788   7.205  0.0776 -0.2442 -0.1803
 1018YOPC   C4B14506  17.491  12.130   7.374  0.0055 -0.0934 -0.1005
 1019YOPC   NC314507  11.153  17.283   6.018 -0.0284  0.0531 -0.4906
 1019YOPC   PO414508  11.054  16.861   6.055 -0.0013 -0.3323 -0.2696
 1019YOPC   GL114509  10.793  16.839   6.397 -0.3761 -0.0036 -0.1823
 1019YOPC   GL214510  11.001  16.889   6.598  0.1922  0.1452  0.1579
 1019YOPC   C1A14511  10.590  17.161   6.719  0.0927 -0.1098 -0.1932
 1019YOPC   D2A14512  10.267  17.147   7.158  0.3726  0.1896 -0.0008
 1019YOPC   C3A14513  10.184  17.464   7.450  0.0965  0.0320 -0.0685
 1019YOPC   C4A14514  10.262  17.895   7.504 -0.0878  0.0645  0.0651
 1019YOPC   C1B14515  10.637  16.693   6.858  0.1328 -0.0406 -0.1687
 1019YOPC   C2B14516  10.214  16.556   7.144  0.1973  0.1615 -0.0862
 1019YOPC   D3B14517   9.924  16.862   7.310  0.4832  0.0457 -0.1153
 1019YOPC   C4B14518   9.789  17.141   7.642  0.2452  0.2387  0.0567
 1020YOPC   NC314519  10.706   6.618   5.281 -0.3104 -0.0784  0.1147
 1020YOPC   PO414520  10.630   7.078   5.273  0.2047 -0.1281  0.2188
 1020YOPC   GL114521  10.705   7.191   5.750  0.0127 -0.0384  0.1466
 1020YOPC   GL214522  10.706   6.834   5.737 -0.2700  0.2356 -0.1092
 1020YOPC   C1A14523  10.864   7.263   6.204  0.1397  0.1502  0.0845
 1020YOPC   D2A14524  11.284   7.161   6.334 -0.0594 -0.1155 -0.0519
 1020YOPC   C3A14525  11.241   7.016   6.682  0.3337  0.0770 -0.2842
 1020YOPC   C4A14526  11.327   6.571   6.739  0.0914 -0.0792 -0.0629
 1020YOPC   C1B14527  10.462   6.773   6.150 -0.0394  0.0362 -0.2644
 1020YOPC   C2B14528  10.389   7.118   6.356  0.0016 -0.4109  0.0966
 1020YOPC   D3B14529  10.636   7.225   6.652  0.1674 -0.3169 -0.4944
 1020YOPC   C4B14530  10.973   7.283   7.056 -0.2796 -0.3293 -0.0450
 1021YOPC   NC314531  11.900  14.477   5.843 -0.1123 -0.0109 -0.2134
 1021YOPC   PO414532  11.572  14.224   5.994 -0.1138 -0.0197  0.2149
 1021YOPC   GL114533  11.784  14.151   6.473 -0.1046 -0.0615 -0.1222
 1021YOPC   GL214534  11.521  14.238   6.657 -0.0566  0.2842 -0.0590
 1021YOPC   C1A14535  12.064  13.866   6.743  0.1775 -0.0727 -0.0259
 1021YOPC   D2A14536  12.429  13.888   6.917 -0.2955  0.1163  0.2758
 1021YOPC   C3A14537  12.672  14.084   6.735  0.0573  0.1109  0.5490
 1021YOPC   C4A14538  12.805  14.504   6.928  0.1744 -0.1105 -0.0953
 1021YOPC   C1B14539  11.477  14.483   7.010  0.0302  0.1646  0.0909
 1021YOPC   C2B14540  11.363  14.436   7.488 -0.0381 -0.0847  0.1444
 1021YOPC   D3B14541  11.403  14.174   7.769 -0.0175  0.2409 -0.3165
 1021YOPC   C4B14542  11.666  13.815   7.989  0.4410  0.1241  0.2996
 1022YOPC   NC314543   8.408  11.529   5.656  0.1052  0.1002 -0.0229
 1022YOPC   PO414544   8.388  10.998   5.666  0.2386 -0.0456  0.4500
 1022YOPC   GL114545   8.317  10.975   6.060 -0.3637  0.0201  0.2563
 1022YOPC   GL214546   8.059  11.175   6.184 -0.2439  0.1793 -0.1284
 1022YOPC   C1A14547   8.109  10.730   6.412 -0.1982  0.0024 -0.2100
 1022YOPC   D2A14548   8.040  10.682   6.810 -0.0576 -0.2567 -0.1053
 1022YOPC   C3A14549   8.064  10.326   7.002 -0.1554  0.3643  0.1782
 1022YOPC   C4A14550   8.000   9.953   7.078 -0.1706  0.0390 -0.1019
 1022YOPC   C1B14551   8.016  11.165   6.712  0.2715  0.3488 -0.1334
 1022YOPC   C2B14552   8.199  11.055   7.172  0.1180  0.1228 -0.0040
 1022YOPC   D3B14553   8.002  10.714   7.341 -0.2479  0.0738 -0.0347
 1022YOPC   C4B14554   7.952  10.391   7.537  0.0964 -0.0638  0.4876
 1023YOPC   NC314555   5.779  17.937   5.588  0.0957 -0.0184 -0.1363
 1023YOPC   PO414556   5.739  17.524   5.781  0.3720  0.0432 -0.1297
 1023YOPC   GL114557   5.940  17.493   6.123  0.1185 -0.0821  0.1573
 1023YOPC   GL214558   6.250  17.445   6.231 -0.0560 -0.0051 -0.1679
 1023YOPC   C1A14559   5.908  17.339   6.643 -0.0413 -0.0788 -0.1287
 1023YOPC   D2A14560   5.937  17.260   7.033 -0.0410 -0.0896 -0.0733
 1023YOPC   C3A14561   6.046  17.189   7.409 -0.6897  0.1588 -0.0723
 1023YOPC   C4A14562   6.517  17.053   7.568  0.1899 -0.0470  0.3512
 1023YOPC   C1B14563   6.321  17.106   6.634 -0.3008 -0.0336 -0.1989
 1023YOPC   C2B14564   6.476  17.153   7.048  0.4009  0.2387  0.0177
 1023YOPC   D3B14565   6.405  17.495   7.271  0.2000  0.1283 -0.0122
 1023YOPC   C4B14566   6.461  17.933   7.473 -0.0586 -0.1637 -0.1867
 1024YOPC   NC314567  14.121   5.192   5.734 -0.1153 -0.1757 -0.0048
 1024YOPC   PO414568  14.509   5.553   5.653 -0.3674 -0.0444  0.2689
 1024YOPC   GL114569  14.503   5.408   6.086  0.0146  0.0444  0.0255
 1024YOPC   GL214570  14.487   5.035   6.044 -0.1346  0.1062 -0.0548
 1024YOPC   C1A14571  14.450   5.603   6.449  0.1101  0.1706  0.1439
 1024YOPC   D2A14572  14.517   5.414   6.823 -0.0250 -0.0321 -0.1255
 1024YOPC   C3A14573  14.387   5.379   7.226  0.0429  0.2023  0.2017
 1024YOPC   C4A14574  13.950   5.425   7.401  0.0337 -0.0955 -0.1167
 1024YOPC   C1B14575  14.436   5.021   6.451 -0.1265  0.0511 -0.3246
 1024YOPC   C2B14576  14.359   4.730   6.762  0.2242 -0.0363  0.2015
 1024YOPC   D3B14577  14.452   4.852   7.187  0.2167 -0.1591 -0.0247
 1024YOPC   C4B14578  14.181   5.019   7.601 -0.2028 -0.1582  0.5465
 1025YOPC   NC314579   2.628  11.030   6.131 -0.2033  0.2501  0.0594
 1025YOPC   PO414580   2.366  11.397   6.107 -0.1054  0.0483 -0.1578
 1025YOPC   GL114581   2.311  11.610   6.505 -0.3516 -0.0682 -0.3585
 1025YOPC   GL214582   2.581  11.737   6.576 -0.0507  0.1657 -0.1754
 1025YOPC   C1A14583   2.248  11.806   6.921  0.1080 -0.0365 -0.2585
 1025YOPC   D2A14584   1.930  11.882   7.303 -0.1940  0.2636 -0.3834
 1025YOPC   C3A14585   1.787  11.883   7.749 -0.1465 -0.2428 -0.2395
 1025YOPC   C4A14586   1.791  11.925   8.115  0.1044 -0.0486 -0.1006
 1025YOPC   C1B14587   2.537  11.363   6.986  0.1095  0.0534 -0.3182
 1025YOPC   C2B14588   2.381  10.971   7.184  0.3741  0.0489 -0.0103
 1025YOPC   D3B14589   2.157  10.980   7.593  0.0756  0.1383 -0.1365
 1025YOPC   C4B14590   2.185  10.959   8.101  0.1049 -0.1200 -0.0287
 1026YOPC   NC314591   5.325   9.748   5.675  0.0944 -0.1432  0.0584
 1026YOPC   PO414592   5.725   9.519   5.616 -0.2881 -0.1532 -0.0305
 1026YOPC   GL114593   6.044   9.774   5.892 -0.1321 -0.3474  0.0945
 1026YOPC   GL214594   5.745   9.806   6.047 -0.2359 -0.2090 -0.1152
 1026YOPC   C1A14595   6.186   9.930   6.234 -0.3731  0.0014 -0.0796
 1026YOPC   D2A14596   6.370   9.763   6.547 -0.0379  0.0287 -0.0973
 1026YOPC   C3A14597   6.263   9.346   6.705 -0.2324  0.2524 -0.0068
 1026YOPC   C4A14598   6.129   8.982   6.591 -0.1446 -0.1300  0.4348
 1026YOPC   C1B14599   5.743  10.223   6.190 -0.2120  0.1668  0.0493
 1026YOPC   C2B14600   5.893  10.304   6.498 -0.0832  0.0727  0.1578
 1026YOPC   D3B14601   6.107  10.097   6.806 -0.4171 -0.1290 -0.0286
 1026YOPC   C4B14602   6.270   9.991   7.322  0.0251 -0.1090  0.2020
 1027YOPC   NC314603   5.238   9.274   5.682 -0.0640 -0.0040 -0.0073
 1027YOPC   PO414604   4.839   9.119   5.586  0.1171  0.2821  0.0389
 1027YOPC   GL114605   4.857   9.166   6.040 -0.1975 -0.0753  0.0284
 1027YOPC   GL214606   5.156   8.982   6.144 -0.1212 -0.3169 -0.0997
 1027YOPC   C1A14607   4.835   9.264   6.459 -0.0664 -0.1441  0.0382
 1027YOPC   D2A14608   4.962   9.579   6.726 -0.0345 -0.2204  0.2588
 1027YOPC   C3A14609   4.953   9.452   7.127  0.0007 -0.4165  0.3161
 1027YOPC   C4A14610   4.772   9.535   7.497  0.4532 -0.0932 -0.1190
 1027YOPC   C1B14611   5.298   9.116   6.661  0.0241 -0.0983 -0.2856
 1027YOPC   C2B14612   5.390   9.107   7.107 -0.0310 -0.1973  0.4267
 1027YOPC   D3B14613   5.708   9.215   7.383 -0.0541  0.5008  0.0370
 1027YOPC   C4B14614   6.046   8.883   7.586 -0.1045  0.1814 -0.0463
 1028YOPC   NC314615   3.597  11.147   5.853 -0.0402  0.0143  0.0512
 1028YOPC   PO414616   3.272  11.177   6.055 -0.0120  0.2433  0.2299
 1028YOPC   GL114617   3.151  11.174   6.495 -0.0396 -0.0202 -0.1438
 1028YOPC   GL214618   2.884  11.339   6.530  0.1835  0.1722  0.1346
 1028YOPC   C1A14619   3.309  11.255   6.874  0.2580  0.0884 -0.0832
 1028YOPC   D2A14620   3.771  11.102   6.959 -0.0627  0.1826 -0.2941
 1028YOPC   C3A14621   3.818  10.952   7.347  0.0133 -0.0275 -0.0455
 1028YOPC   C4A14622   3.729  10.893   7.754  0.2611 -0.2021  0.0256
 1028YOPC   C1B14623   2.885  11.007   6.895 -0.0859 -0.1133  0.1029
 1028YOPC   C2B14624   2.945  10.916   7.315  0.0436  0.2030 -0.0891
 1028YOPC   D3B14625   2.984  10.472   7.394 -0.0521 -0.0075 -0.2118
 1028YOPC   C4B14626   2.676  10.172   7.587  0.2154 -0.0845 -0.1609
 1029YOPC   NC314627  15.723  12.138   5.571  0.1311 -0.0267  0.3297
 1029YOPC   PO414628  15.616  11.707   5.657  0.4266 -0.2712 -0.0109
 1029YOPC   GL114629  15.692  11.383   6.027 -0.1349  0.3018  0.1295
 1029YOPC   GL214630  15.599  11.424   6.346  0.0645  0.0434 -0.2031
 1029YOPC   C1A14631  16.123  11.359   6.336  0.1772 -0.3277  0.1039
 1029YOPC   D2A14632  16.121  11.600   6.771  0.2823 -0.0993 -0.1363
 1029YOPC   C3A14633  16.191  11.335   7.109  0.2192  0.3818  0.1079
 1029YOPC   C4A14634  16.011  11.258   7.483 -0.1179  0.2294 -0.3704
 1029YOPC   C1B14635  15.830  11.229   6.692 -0.2170 -0.3591  0.0121
 1029YOPC   C2B14636  16.287  11.032   6.738  0.2208  0.2423  0.0110
 1029YOPC   D3B14637  16.407  10.873   7.142 -0.1940  0.0035  0.1719
 1029YOPC   C4B14638  16.618  10.911   7.569  0.1137 -0.0690 -0.1551
 1030YOPC   NC314639  13.872   9.271   5.556  0.0264  0.1815 -0.1608
 1030YOPC   PO414640  14.359   9.245   5.396  0.3607 -0.0981 -0.0494
 1030YOPC   GL114641  14.369   9.148   5.758  0.2196  0.0303 -0.2305
 1030YOPC   GL214642  14.492   9.402   5.895  0.0002  0.1656 -0.0368
 1030YOPC   C1A14643  14.616   8.967   6.065  0.3223  0.0326  0.2315
 1030YOPC   D2A14644  14.599   8.514   6.169  0.1013 -0.3404 -0.1856
 1030YOPC   C3A14645  14.120   8.263   6.196  0.1563 -0.1327 -0.0020
 1030YOPC   C4A14646  13.707   8.151   6.194 -0.1366  0.3011  0.3409
 1030YOPC   C1B14647  14.446   9.292   6.339  0.3665  0.1687  0.3566
 1030YOPC   C2B14648  14.131   9.270   6.679  0.0755 -0.3412  0.1318
 1030YOPC   D3B14649  14.165   9.573   6.979  0.2412 -0.2046 -0.0027
 1030YOPC   C4B14650  14.213   9.835   7.326 -0.1844 -0.4390  0.0877
 1031YOPC   NC314651  17.009  14.353   6.132  0.0719 -0.1422  0.0409
 1031YOPC   PO414652  16.617  14.554   6.049 -0.1236  0.0303  0.2165
 1031YOPC   GL114653  16.430  14.543   6.530  0.2933  0.2042 -0.0994
 1031YOPC   GL214654  16.645  14.478   6.716  0.1784 -0.3439 -0.0375
 1031YOPC   C1A14655  16.342  14.754   7.018 -0.1452 -0.4586  0.0009
 1031YOPC   D2A14656  16.357  14.955   7.494  0.3841 -0.2745 -0.0028
 1031YOPC   C3A14657  16.014  15.156   7.675  0.2344 -0.0447 -0.1532
 1031YOPC   C4A14658  15.594  15.202   7.808  0.4234  0.0281 -0.0607
 1031YOPC   C1B14659  16.876  14.690   7.154  0.5720  0.0916  0.3610
 1031YOPC   C2B14660  17.188  14.725   7.520 -0.1597  0.2271 -0.2760
 1031YOPC   D3B14661  17.125  14.619   7.922 -0.4179 -0.0206 -0.0072
 1031YOPC   C4B14662  17.097  14.201   7.995  0.2691  0.1336  0.1241
 1032YOPC   NC314663   4.861   8.538   5.624  0.1748 -0.2478  0.2276
 1032YOPC   PO414664   5.285   8.271   5.570 -0.2209 -0.0793 -0.3997
 1032YOPC   GL114665   5.326   7.994   5.871  0.1284  0.2567 -0.2155
 1032YOPC   GL214666   5.477   7.658   5.787  0.0786  0.0020 -0.0335
 1032YOPC   C1A14667   5.431   7.958   6.296  0.1066 -0.1211  0.1652
 1032YOPC   D2A14668   5.600   7.977   6.784 -0.3227  0.2521  0.3890
 1032YOPC   C3A14669   5.858   7.590   6.866  0.0962  0.2039 -0.0856
 1032YOPC   C4A14670   6.117   7.237   7.036 -0.3071 -0.0250  0.1476
 1032YOPC   C1B14671   5.723   7.469   6.170 -0.3039 -0.1783 -0.0788
 1032YOPC   C2B14672   5.753   7.262   6.536  0.0736 -0.2458  0.0199
 1032YOPC   D3B14673   5.633   6.922   6.767 -0.1543  0.1112 -0.1988
 1032YOPC   C4B14674   5.438   6.752   7.144 -0.0260 -0.2271 -0.0495
 1033YOPC   NC314675   4.739   4.103   5.501  0.2299 -0.0204  0.2194
 1033YOPC   PO414676   5.174   4.040   5.387 -0.1235 -0.0800  0.0517
 1033YOPC   GL114677   5.167   3.919   5.743  0.2530  0.5071 -0.0163
 1033YOPC   GL214678   4.938   3.650   5.804 -0.0000  0.0982 -0.1425
 1033YOPC   C1A14679   5.475   4.126   6.006 -0.0632 -0.0106  0.0074
 1033YOPC   D2A14680   5.816   4.084   6.267 -0.1344 -0.2008 -0.0316
 1033YOPC   C3A14681   6.260   4.172   6.288  0.0955  0.2506  0.2704
 1033YOPC   C4A14682   6.462   4.471   6.565  0.0459 -0.2675 -0.1059
 1033YOPC   C1B14683   4.880   4.000   6.222 -0.3125 -0.0256  0.0371
 1033YOPC   C2B14684   5.046   4.169   6.607 -0.1549  0.0227  0.1244
 1033YOPC   D3B14685   5.059   4.091   6.949 -0.1089  0.1518  0.0156
 1033YOPC   C4B14686   5.284   4.092   7.377  0.1882  0.1196  0.0840
 1034YOPC   NC314687   0.194  12.771   6.212 -0.1076 -0.3863  0.1585
 1034YOPC   PO414688   0.573  12.649   6.091  0.0810 -0.2287 -0.1982
 1034YOPC   GL114689   0.553  12.593   6.544  0.1215 -0.0537 -0.0010
 1034YOPC   GL214690   0.837  12.557   6.714  0.2412 -0.0490  0.1578
 1034YOPC   C1A14691   0.268  12.500   6.891  0.0951  0.0221  0.2432
 1034YOPC   D2A14692   0.125  12.234   7.309 -0.1704 -0.4541  0.1704
 1034YOPC   C3A14693   0.156  12.371   7.777  0.2522 -0.1812  0.1668
 1034YOPC   C4A14694  -0.119  12.626   8.055 -0.1265 -0.4368 -0.1217
 1034YOPC   C1B14695   0.836  12.561   7.072 -0.0251 -0.0345 -0.3166
 1034YOPC   C2B14696   0.542  12.535   7.342 -0.1881 -0.2063 -0.0403
 1034YOPC   D3B14697   0.195  12.888   7.398  0.0949 -0.1729 -0.0290
 1034YOPC   C4B14698  -0.094  13.027   7.789  0.0592  0.1566  0.0076
 1035YOPC   NC314699  15.315  17.932   5.181 -0.3507 -0.1472  0.0176
 1035YOPC   PO414700  15.528  18.187   5.496 -0.2737 -0.1871 -0.0702
 1035YOPC   GL114701  15.654  18.019   5.922  0.2845 -0.1891 -0.2631
 1035YOPC   GL214702  15.780  18.297   6.108 -0.1782  0.1264 -0.2586
 1035YOPC   C1A14703  15.483  17.973   6.411 -0.0489  0.0657  0.2287
 1035YOPC   D2A14704  15.381  18.297   6.694 -0.0485 -0.3856  0.0952
 1035YOPC   C3A14705  15.272  18.279   7.047 -0.0353 -0.1140  0.0699
 1035YOPC   C4A14706  15.542  17.992   7.312  0.2618 -0.0075  0.1467
 1035YOPC   C1B14707  15.752  18.572   6.527  0.0201  0.1941  0.3226
 1035YOPC   C2B14708  15.664  18.833   6.803  0.4306 -0.0720 -0.0022
 1035YOPC   D3B14709  15.244  18.749   7.006  0.0852 -0.0369 -0.2000
 1035YOPC   C4B14710  14.853  18.511   7.048  0.0778  0.1177 -0.3286
 1036YOPC   NC314711   8.797  10.798   5.759  0.2393  0.0659  0.1548
 1036YOPC   PO414712   9.153  11.101   5.853  0.0700  0.2210  0.0250
 1036YOPC   GL114713   9.036  11.071   6.266 -0.0249  0.0028 -0.0296
 1036YOPC   GL214714   8.736  10.838   6.282 -0.0167 -0.0615  0.0147
 1036YOPC   C1A14715   9.013  11.005   6.665  0.3421  0.1823 -0.4697
 1036YOPC   D2A14716   8.923  10.674   7.004 -0.2108  0.0787 -0.0420
 1036YOPC   C3A14717   9.040  10.790   7.392  0.0461 -0.4394 -0.1264
 1036YOPC   C4A14718   8.993  10.784   7.825  0.0223 -0.0921 -0.1357
 1036YOPC   C1B14719   9.003  10.524   6.527  0.1465 -0.1626 -0.0028
 1036YOPC   C2B14720   9.097  10.232   6.784 -0.0867  0.0347  0.1245
 1036YOPC   D3B14721   9.367  10.427   7.087 -0.1358 -0.1158  0.0803
 1036YOPC   C4B14722   9.395  10.468   7.543 -0.1045  0.0882  0.0427
 1037YOPC   NC314723   0.969   8.548   5.577 -0.2542 -0.2824 -0.1258
 1037YOPC   PO414724   0.865   8.243   5.974  0.1575  0.1378 -0.1157
 1037YOPC   GL114725   0.638   8.329   6.297 -0.1775  0.1821  0.0120
 1037YOPC   GL214726   0.903   8.379   6.415 -0.0701  0.2992  0.0198
 1037YOPC   C1A14727   0.497   8.177   6.620 -0.0093 -0.0251  0.0141
 1037YOPC   D2A14728   0.326   8.237   7.000  0.3043 -0.0659 -0.0846
 1037YOPC   C3A14729   0.458   8.211   7.428  0.0086 -0.1336  0.1428
 1037YOPC   C4A14730   0.437   8.375   7.843 -0.0320  0.2783 -0.0469
 1037YOPC   C1B14731   1.012   8.866   6.549  0.0489 -0.1128 -0.2764
 1037YOPC   C2B14732   0.849   9.181   6.826  0.4457  0.1970 -0.1743
 1037YOPC   D3B14733   0.913   9.663   6.751 -0.0770  0.1420 -0.0617
 1037YOPC   C4B14734   0.834  10.061   6.882  0.1954  0.0315 -0.3450
 1038YOPC   NC314735  12.833  14.559   6.054 -0.1238  0.1788 -0.0053
 1038YOPC   PO414736  12.487  14.881   6.082 -0.3496 -0.0762  0.0456
 1038YOPC   GL114737  12.450  14.638   6.400  0.0349 -0.2253 -0.0995
 1038YOPC   GL214738  12.127  14.622   6.313 -0.1632 -0.2286  0.0951
 1038YOPC   C1A14739  12.245  14.469   6.766  0.0677 -0.0403  0.2024
 1038YOPC   D2A14740  11.974  14.420   6.847  0.0401  0.3502 -0.1019
 1038YOPC   C3A14741  11.911  14.176   7.072  0.0980  0.0518  0.3043
 1038YOPC   C4A14742  11.648  13.933   7.303  0.1604  0.0991 -0.0809
 1038YOPC   C1B14743  11.911  14.896   6.670  0.0303  0.0733 -0.0235
 1038YOPC   C2B14744  11.861  14.816   7.130 -0.1453 -0.2447 -0.0870
 1038YOPC   D3B14745  11.840  14.577   7.447 -0.1735 -0.1794 -0.0215
 1038YOPC   C4B14746  11.922  14.207   7.726  0.1136 -0.2510  0.4012
 1039YOPC   NC314747   1.042   7.804   5.735 -0.2639 -0.1847  0.0278
 1039YOPC   PO414748   0.869   7.405   5.963  0.0316  0.0793  0.2117
 1039YOPC   GL114749   0.600   7.422   6.258 -0.1062  0.0311 -0.2325
 1039YOPC   GL214750   0.834   7.329   6.487 -0.0137  0.3266  0.0970
 1039YOPC   C1A14751   0.514   7.685   6.616  0.1328  0.2974  0.1107
 1039YOPC   D2A14752   0.393   7.670   7.081 -0.0903  0.1516  0.0813
 1039YOPC   C3A14753   0.357   7.355   7.375 -0.1311 -0.0767 -0.1303
 1039YOPC   C4A14754   0.296   7.459   7.773 -0.2258  0.0270 -0.2186
 1039YOPC   C1B14755   0.839   7.039   6.683  0.0977  0.0433 -0.3501
 1039YOPC   C2B14756   1.076   6.733   6.843 -0.0062 -0.1414  0.1339
 1039YOPC   D3B14757   1.027   6.447   7.238 -0.1537  0.1393  0.2744
 1039YOPC   C4B14758   0.993   6.235   7.573  0.3155 -0.2273  0.1143
 1040YOPC   NC314759  12.762   3.728   5.741  0.0532  0.0298 -0.2923
 1040YOPC   PO414760  12.548   3.315   5.847  0.0983 -0.1711  0.1659
 1040YOPC   GL114761  12.601   3.106   6.255 -0.1180  0.0234  0.1517
 1040YOPC   GL214762  12.444   2.743   6.160  0.0552  0.0579 -0.2858
 1040YOPC   C1A14763  12.469   3.049   6.679 -0.1155 -0.0457 -0.3513
 1040YOPC   D2A14764  12.405   2.746   7.046 -0.1028  0.2300 -0.0711
 1040YOPC   C3A14765  11.994   2.674   7.233  0.0565  0.1849  0.1963
 1040YOPC   C4A14766  11.987   2.432   7.626  0.2153 -0.0766 -0.2208
 1040YOPC   C1B14767  12.179   2.735   6.485 -0.0226 -0.2503  0.0859
 1040YOPC   C2B14768  12.091   2.461   6.755  0.0173 -0.0976 -0.4163
 1040YOPC   D3B14769  12.148   2.138   7.243  0.3875 -0.2979  0.1940
 1040YOPC   C4B14770  12.225   1.919   7.741 -0.0801  0.3718  0.2372
 1041YOPC   NC314771   9.806  17.280   5.687 -0.1948 -0.0878 -0.3832
 1041YOPC   PO414772  10.066  17.099   5.975 -0.0912  0.3411 -0.0825
 1041YOPC   GL114773   9.748  17.130   6.310  0.0632 -0.3674 -0.3163
 1041YOPC   GL214774   9.526  17.413   6.142  0.0688  0.1728  0.0467
 1041YOPC   C1A14775   9.322  17.103   6.601 -0.5690 -0.0188 -0.1455
 1041YOPC   D2A14776   9.021  17.096   6.953 -0.2403 -0.0322 -0.0148
 1041YOPC   C3A14777   8.772  17.426   7.300  0.1911 -0.1242  0.3019
 1041YOPC   C4A14778   8.787  17.473   7.652 -0.1522 -0.2282 -0.0811
 1041YOPC   C1B14779   9.495  17.663   6.485  0.4325  0.1437 -0.1731
 1041YOPC   C2B14780   9.334  17.571   6.833 -0.4287  0.1551  0.1692
 1041YOPC   D3B14781   8.980  17.655   6.937  0.0723 -0.2002  0.0228
 1041YOPC   C4B14782   8.821  18.011   7.135  0.1453 -0.0608 -0.0080
 1042YOPC   NC314783   3.264  14.072   5.991  0.0997  0.0618  0.1042
 1042YOPC   PO414784   2.986  13.809   6.196  0.1747  0.1179 -0.0988
 1042YOPC   GL114785   3.005  13.757   6.660  0.0780  0.0427 -0.1859
 1042YOPC   GL214786   2.739  13.920   6.740  0.0488 -0.1312 -0.2312
 1042YOPC   C1A14787   3.328  13.871   7.067 -0.0175  0.1543 -0.2479
 1042YOPC   D2A14788   3.439  13.869   7.556  0.0925  0.3792 -0.1216
 1042YOPC   C3A14789   3.258  13.755   7.941  0.1070  0.0704 -0.1533
 1042YOPC   C4A14790   3.005  13.567   8.286 -0.1688  0.1632 -0.0181
 1042YOPC   C1B14791   2.727  13.854   7.183 -0.0368  0.2376 -0.0509
 1042YOPC   C2B14792   2.907  13.885   7.524 -0.3199 -0.0182  0.2418
 1042YOPC   D3B14793   2.592  13.965   7.838 -0.0750  0.2446 -0.1701
 1042YOPC   C4B14794   2.173  13.668   7.935  0.1250 -0.2016 -0.3599
 1043YOPC   NC314795  15.337   0.863   5.297 -0.1425 -0.1514 -0.1500
 1043YOPC   PO414796  15.163   0.563   5.701  0.0277  0.2795  0.1563
 1043YOPC   GL114797  15.266   0.815   5.883  0.1619  0.0393  0.0580
 1043YOPC   GL214798  15.061   1.152   5.892 -0.0842  0.2024 -0.0667
 1043YOPC   C1A14799  15.398   0.724   6.337  0.3426  0.1105 -0.2929
 1043YOPC   D2A14800  15.233   0.280   6.506 -0.0518 -0.0292  0.4219
 1043YOPC   C3A14801  14.908   0.192   6.602 -0.2170  0.0120  0.0316
 1043YOPC   C4A14802  14.600   0.423   6.918 -0.1258  0.2112  0.2906
 1043YOPC   C1B14803  15.098   1.103   6.285 -0.1210 -0.2182 -0.2139
 1043YOPC   C2B14804  15.399   1.163   6.491 -0.0858  0.0767 -0.1281
 1043YOPC   D3B14805  15.317   1.461   6.758  0.3884  0.0985  0.4740
 1043YOPC   C4B14806  14.963   1.505   6.983 -0.0013  0.5664 -0.1253
 1044YOPC   NC314807  16.486  10.531   5.300 -0.3401  0.1431 -0.1036
 1044YOPC   PO414808  16.935  10.762   5.537  0.1484  0.3219  0.0536
 1044YOPC   GL114809  16.917  11.043   5.994  0.0413 -0.2007 -0.1281
 1044YOPC   GL214810  16.792  10.808   6.227 -0.0315  0.0284  0.2068
 1044YOPC   C1A14811  17.143  11.144   6.409  0.1072  0.0009  0.0815
 1044YOPC   D2A14812  17.152  11.097   6.894  0.0757 -0.0492  0.1650
 1044YOPC   C3A14813  17.235  11.366   7.299 -0.2004  0.1602  0.0956
 1044YOPC   C4A14814  17.509  11.207   7.699 -0.1026 -0.1549 -0.4009
 1044YOPC   C1B14815  16.710  10.785   6.651 -0.2859 -0.2262  0.1337
 1044YOPC   C2B14816  16.960  10.706   7.083  0.1002 -0.3651 -0.1251
 1044YOPC   D3B14817  17.132  10.897   7.420 -0.2217  0.0693  0.0587
 1044YOPC   C4B14818  17.468  10.669   7.487  0.0366 -0.0384  0.0042
 1045YOPC   NC314819  12.784   6.654   5.109 -0.1595  0.1831 -0.0486
 1045YOPC   PO414820  12.498   6.301   5.308 -0.2034 -0.2726  0.1398
 1045YOPC   GL114821  12.370   6.224   5.724 -0.2228 -0.0642 -0.2233
 1045YOPC   GL214822  12.640   6.289   5.983  0.2600 -0.0280  0.6344
 1045YOPC   C1A14823  12.313   5.949   6.129 -0.3581 -0.1338 -0.2185
 1045YOPC   D2A14824  12.465   6.008   6.583 -0.2849  0.3365  0.3038
 1045YOPC   C3A14825  12.282   5.967   7.002  0.0065 -0.2641  0.0966
 1045YOPC   C4A14826  12.055   5.813   7.264  0.0351  0.2097  0.2415
 1045YOPC   C1B14827  12.879   6.441   6.401 -0.1413  0.1337 -0.3405
 1045YOPC   C2B14828  12.807   6.692   6.804 -0.3234  0.1794 -0.1964
 1045YOPC   D3B14829  12.876   6.805   7.235 -0.1940 -0.1426  0.2280
 1045YOPC   C4B14830  13.035   6.505   7.363 -0.2971  0.1677 -0.1009
 1046YOPC   NC314831  14.512   8.756   5.510 -0.1275  0.0914 -0.2266
 1046YOPC   PO414832  14.061   8.774   5.479 -0.1649 -0.0085  0.3467
 1046YOPC   GL114833  13.995   8.792   5.923  0.0849 -0.0894 -0.1692
 1046YOPC   GL214834  14.007   9.091   6.082  0.0478  0.2635  0.2025
 1046YOPC   C1A14835  14.191   8.784   6.386 -0.0693  0.1449  0.0412
 1046YOPC   D2A14836  14.453   8.377   6.630 -0.0848 -0.0265 -0.1238
 1046YOPC   C3A14837  14.506   8.391   7.108 -0.0937 -0.0787  0.0633
 1046YOPC   C4A14838  14.471   8.097   7.438 -0.1170 -0.0228  0.3589
 1046YOPC   C1B14839  13.772   9.066   6.447 -0.0258 -0.3379  0.0343
 1046YOPC   C2B14840  13.663   8.870   6.833 -0.2486  0.2400 -0.0674
 1046YOPC   D3B14841  13.902   8.902   7.291  0.3532 -0.2682 -0.4269
 1046YOPC   C4B14842  14.231   9.022   7.636 -0.0811 -0.4362  0.1039
 1047YOPC   NC314843   0.875   9.346   5.464 -0.1823  0.0573  0.2030
 1047YOPC   PO414844   1.094   9.023   5.695  0.1199 -0.2937  0.2426
 1047YOPC   GL114845   1.475   8.825   5.994 -0.1280  0.0685  0.0677
 1047YOPC   GL214846   1.838   8.671   6.092  0.3060  0.2947  0.0951
 1047YOPC   C1A14847   1.510   8.806   6.453 -0.0717  0.1237  0.3038
 1047YOPC   D2A14848   1.566   8.963   6.781 -0.1014 -0.2596 -0.4083
 1047YOPC   C3A14849   1.908   9.207   6.921  0.1286 -0.1164  0.5535
 1047YOPC   C4A14850   2.074   9.455   7.277  0.0900  0.1007 -0.2142
 1047YOPC   C1B14851   2.066   8.889   6.414  0.0449 -0.1757  0.2694
 1047YOPC   C2B14852   2.259   8.897   6.777  0.0305  0.2745 -0.0766
 1047YOPC   D3B14853   2.237   8.833   7.215  0.2437  0.0848 -0.2162
 1047YOPC   C4B14854   2.099   8.551   7.488 -0.0801 -0.0099  0.1207
 1048YOPC   NC314855   1.754   3.504   5.598  0.0670 -0.0559  0.2918
 1048YOPC   PO414856   2.236   3.623   5.690  0.1344 -0.0984 -0.1779
 1048YOPC   GL114857   2.325   3.693   6.143 -0.1157  0.1557 -0.0943
 1048YOPC   GL214858   2.433   3.978   6.127 -0.1144  0.2202 -0.6248
 1048YOPC   C1A14859   1.933   3.678   6.547 -0.1084  0.3023 -0.3588
 1048YOPC   D2A14860   1.833   3.846   7.010 -0.1311 -0.1486  0.0477
 1048YOPC   C3A14861   1.981   3.561   7.390 -0.1072 -0.1543  0.0743
 1048YOPC   C4A14862   1.974   3.446   7.751 -0.0632  0.1773  0.0999
 1048YOPC   C1B14863   2.645   4.178   6.445  0.0191 -0.1030  0.2709
 1048YOPC   C2B14864   2.780   3.982   6.751 -0.0563  0.1143 -0.1607
 1048YOPC   D3B14865   3.188   4.194   6.894  0.2252  0.0807  0.3367
 1048YOPC   C4B14866   3.431   3.979   6.642  0.1252  0.0056  0.0539
 1049YOPC   NC314867   7.411   1.462   5.624  0.1441  0.1503  0.2702
 1049YOPC   PO414868   6.988   1.288   5.738  0.0605  0.1296 -0.1241
 1049YOPC   GL114869   7.039   1.523   6.035  0.0521 -0.1072 -0.0694
 1049YOPC   GL214870   7.229   1.391   6.186 -0.0381 -0.0787  0.1001
 1049YOPC   C1A14871   7.139   1.913   6.244 -0.1275  0.1444  0.0742
 1049YOPC   D2A14872   7.154   2.220   6.612  0.0531 -0.0341 -0.0559
 1049YOPC   C3A14873   7.115   2.188   7.012 -0.3515  0.1194 -0.5253
 1049YOPC   C4A14874   6.984   2.387   7.362  0.2392 -0.0146  0.0552
 1049YOPC   C1B14875   6.746   1.423   6.420 -0.0000 -0.3690  0.2012
 1049YOPC   C2B14876   6.377   1.425   6.476  0.2575  0.0287  0.0726
 1049YOPC   D3B14877   6.320   1.264   6.978 -0.0518 -0.1380  0.4287
 1049YOPC   C4B14878   6.124   1.409   7.325 -0.0310  0.0068  0.1582
 1050YOPC   NC314879  11.247  15.244   5.585 -0.1674 -0.3467 -0.1082
 1050YOPC   PO414880  11.384  15.227   5.997  0.1942 -0.0375 -0.3017
 1050YOPC   GL114881  11.396  15.271   6.470  0.2398  0.1293 -0.1973
 1050YOPC   GL214882  11.193  15.504   6.658 -0.1427 -0.1318 -0.2720
 1050YOPC   C1A14883  11.508  15.153   6.899  0.0277 -0.0193  0.1617
 1050YOPC   D2A14884  11.596  15.235   7.332  0.1762  0.0059 -0.2170
 1050YOPC   C3A14885  11.316  15.544   7.528  0.3578  0.0365  0.1339
 1050YOPC   C4A14886  11.217  15.892   7.792 -0.3030 -0.2549  0.0599
 1050YOPC   C1B14887  11.125  15.878   6.893  0.2105 -0.1550 -0.3065
 1050YOPC   C2B14888  11.198  15.952   7.290  0.0442  0.0969  0.2618
 1050YOPC   D3B14889  11.145  16.335   7.475  0.1255  0.1669 -0.1610
 1050YOPC   C4B14890  11.034  16.459   7.931  0.0726 -0.0628  0.1084
 1051YOPC   NC314891   4.938   0.576   6.009  0.1905  0.0743  0.0560
 1051YOPC   PO414892   5.114   0.248   6.108  0.1699  0.1872  0.1344
 1051YOPC   GL114893   5.086   0.260   6.457 -0.1744 -0.1216  0.0509
 1051YOPC   GL214894   5.072   0.017   6.671 -0.0142 -0.1361  0.2217
 1051YOPC   C1A14895   5.246   0.425   6.927  0.1025 -0.2068 -0.0451
 1051YOPC   D2A14896   5.359   0.757   7.094  0.1359  0.2189 -0.2112
 1051YOPC   C3A14897   5.196   0.954   7.422 -0.2913  0.1089  0.0947
 1051YOPC   C4A14898   5.245   1.369   7.534 -0.3286 -0.1069 -0.3176
 1051YOPC   C1B14899   4.914   0.069   7.142  0.1828  0.2755  0.0946
 1051YOPC   C2B14900   5.182   0.226   7.444  0.0874 -0.0163  0.3796
 1051YOPC   D3B14901   5.594   0.400   7.364  0.1555  0.2780  0.0770
 1051YOPC   C4B14902   5.790   0.470   7.827 -0.1761  0.2226 -0.1273
 1052YOPC   NC314903   3.334   1.622   5.601  0.2162  0.1166 -0.0221
 1052YOPC   PO414904   3.561   2.021   5.499  0.0497  0.3010 -0.0665
 1052YOPC   GL114905   3.439   2.038   5.948 -0.2530  0.0708  0.2513
 1052YOPC   GL214906   3.198   2.278   6.095 -0.1576 -0.1495 -0.0477
 1052YOPC   C1A14907   3.269   1.880   6.436 -0.0983  0.0285 -0.1782
 1052YOPC   D2A14908   3.343   1.390   6.549  0.1688 -0.1520 -0.3841
 1052YOPC   C3A14909   3.170   1.289   6.962 -0.1718  0.1098 -0.1080
 1052YOPC   C4A14910   3.461   1.343   7.384  0.0705  0.0047  0.0560
 1052YOPC   C1B14911   3.119   2.642   6.406 -0.1661 -0.0297  0.5925
 1052YOPC   C2B14912   2.873   2.576   6.874 -0.2947  0.3945 -0.1319
 1052YOPC   D3B14913   2.535   2.858   7.142  0.3392  0.0533 -0.2466
 1052YOPC   C4B14914   2.399   2.839   7.606 -0.0082  0.5670 -0.0208
 1053YOPC   NC314915  10.558   1.210   5.792  0.1091  0.2130 -0.0057
 1053YOPC   PO414916  11.034   1.058   5.964 -0.1865 -0.3064  0.1149
 1053YOPC   GL114917  11.205   0.791   6.294 -0.1724  0.2804 -0.0601
 1053YOPC   GL214918  10.851   0.775   6.492 -0.0385  0.0040 -0.1290
 1053YOPC   C1A14919  11.493   0.516   6.608 -0.0094  0.1415 -0.1301
 1053YOPC   D2A14920  11.438   0.386   7.045  0.0513  0.0607  0.1321
 1053YOPC   C3A14921  11.110   0.110   7.127 -0.5876 -0.2029  0.0193
 1053YOPC   C4A14922  11.087  -0.141   7.472 -0.0003 -0.1149 -0.1317
 1053YOPC   C1B14923  11.130   0.776   6.832  0.3227  0.0956  0.0083
 1053YOPC   C2B14924  11.178   0.854   7.132 -0.3307  0.0873 -0.0691
 1053YOPC   D3B14925  11.195   0.442   7.468 -0.3217 -0.3965 -0.1631
 1053YOPC   C4B14926  11.135   0.144   7.868 -0.0691 -0.2480 -0.0226
 1054YOPC   NC314927   6.014  15.124   6.343 -0.2159  0.1947  0.0120
 1054YOPC   PO414928   5.644  15.313   6.179 -0.0280  0.1458 -0.1016
 1054YOPC   GL114929   5.577  15.389   6.617  0.1026  0.0011 -0.3576
 1054YOPC   GL214930   5.384  15.427   6.781  0.2660 -0.3054 -0.1355
 1054YOPC   C1A14931   5.666  15.583   7.148 -0.0588  0.0235 -0.2086
 1054YOPC   D2A14932   5.574  15.794   7.587 -0.0832  0.1282  0.4702
 1054YOPC   C3A14933   5.976  15.836   7.875 -0.0701 -0.2223  0.2258
 1054YOPC   C4A14934   6.291  15.545   7.858 -0.1589 -0.0097 -0.0134
 1054YOPC   C1B14935   5.184  15.654   7.182  0.0556 -0.0982 -0.1414
 1054YOPC   C2B14936   4.836  15.388   7.520 -0.0691 -0.2859 -0.0139
 1054YOPC   D3B14937   4.971  14.989   7.824  0.1237 -0.0162  0.1842
 1054YOPC   C4B14938   5.363  14.760   7.855  0.0762 -0.0851 -0.1176
 1055YOPC   NC314939   6.018   1.074   5.893 -0.1758 -0.0723 -0.0174
 1055YOPC   PO414940   6.401   0.790   5.954 -0.0389  0.1048  0.1090
 1055YOPC   GL114941   6.531   0.939   6.307  0.2381 -0.1957  0.2087
 1055YOPC   GL214942   6.874   1.001   6.146 -0.2763 -0.0098  0.1732
 1055YOPC   C1A14943   6.704   1.013   6.689 -0.1084 -0.1888  0.3187
 1055YOPC   D2A14944   6.799   1.177   6.995 -0.1401  0.2017 -0.0396
 1055YOPC   C3A14945   6.564   1.668   7.102 -0.1601  0.0018  0.1334
 1055YOPC   C4A14946   6.234   1.948   7.266 -0.0487 -0.0343 -0.0901
 1055YOPC   C1B14947   7.136   0.915   6.361 -0.0386 -0.0396 -0.2473
 1055YOPC   C2B14948   7.396   0.996   6.572  0.2353  0.0995 -0.0639
 1055YOPC   D3B14949   7.239   1.363   6.722 -0.0710  0.0835 -0.1190
 1055YOPC   C4B14950   6.970   1.675   6.845  0.0720 -0.0674 -0.0268
 1056YOPC   NC314951   6.875  13.137   6.420 -0.0526 -0.0556 -0.1198
 1056YOPC   PO414952   7.295  13.152   6.606  0.0480 -0.2876 -0.2095
 1056YOPC   GL114953   7.035  13.065   6.981  0.1479 -0.3696  0.0779
 1056YOPC   GL214954   7.350  12.916   7.024 -0.1028  0.0995 -0.1210
 1056YOPC   C1A14955   6.546  13.113   7.115 -0.0842 -0.2299  0.2002
 1056YOPC   D2A14956   6.252  12.769   7.254  0.1608  0.1474 -0.2242
 1056YOPC   C3A14957   6.253  12.682   7.740 -0.1363  0.1756  0.2125
 1056YOPC   C4A14958   6.230  12.397   8.025  0.0347 -0.5114  0.2109
 1056YOPC   C1B14959   7.359  12.550   7.309 -0.0343 -0.0799 -0.0823
 1056YOPC   C2B14960   7.778  12.670   7.494  0.1258  0.0955  0.0071
 1056YOPC   D3B14961   7.747  12.879   7.853  0.3338 -0.0148 -0.1452
 1056YOPC   C4B14962   7.945  13.245   8.076  0.2423  0.0203 -0.1436
 1057YOPC   NC314963  11.585   5.369   5.516 -0.2507  0.1884  0.1557
 1057YOPC   PO414964  11.812   5.718   5.421 -0.2010 -0.2242 -0.1024
 1057YOPC   GL114965  11.861   5.776   5.873 -0.2511  0.0861  0.2890
 1057YOPC   GL214966  11.561   5.693   5.947  0.2160  0.2659  0.1154
 1057YOPC   C1A14967  11.847   5.559   6.296  0.0492  0.0306  0.0621
 1057YOPC   D2A14968  11.685   5.759   6.626 -0.1234 -0.0124 -0.1680
 1057YOPC   C3A14969  11.653   5.877   7.011 -0.2789  0.4047 -0.0373
 1057YOPC   C4A14970  11.582   5.540   7.366  0.0223 -0.0534  0.1886
 1057YOPC   C1B14971  11.285   5.601   6.325  0.1097 -0.0264 -0.1675
 1057YOPC   C2B14972  10.989   5.316   6.541  0.0174  0.3574 -0.0393
 1057YOPC   D3B14973  10.864   5.301   6.979 -0.2555  0.0310  0.0096
 1057YOPC   C4B14974  10.524   5.179   7.213 -0.1797  0.3184  0.1648
 1058YOPC   NC314975  10.284   4.857   5.506  0.0794  0.1247  0.0159
 1058YOPC   PO414976   9.797   4.879   5.355  0.1946 -0.2121  0.2909
 1058YOPC   GL114977   9.660   4.936   5.724  0.1667  0.0798 -0.2160
 1058YOPC   GL214978   9.307   5.050   5.768 -0.3162  0.0815 -0.1149
 1058YOPC   C1A14979  10.010   5.258   6.058  0.0624  0.2033  0.3210
 1058YOPC   D2A14980   9.903   5.512   6.325 -0.3356 -0.0850 -0.2506
 1058YOPC   C3A14981  10.102   5.742   6.598  0.0129 -0.0912  0.1598
 1058YOPC   C4A14982  10.293   5.891   6.927 -0.0939  0.2292  0.2784
 1058YOPC   C1B14983   9.514   5.014   6.180 -0.3790 -0.2659  0.0796
 1058YOPC   C2B14984   9.807   5.060   6.567  0.1844 -0.1240 -0.0871
 1058YOPC   D3B14985   9.741   5.414   6.733  0.0405  0.2221 -0.5590
 1058YOPC   C4B14986   9.632   5.603   7.005  0.3665  0.3597  0.0347
 1059YOPC   NC314987  14.182  11.890   5.391  0.2030  0.1066 -0.1292
 1059YOPC   PO414988  14.318  11.698   5.761  0.0003  0.3281  0.1286
 1059YOPC   GL114989  14.318  11.825   6.175  0.0040 -0.0079  0.2828
 1059YOPC   GL214990  14.377  12.152   6.253 -0.2118  0.1653 -0.1044
 1059YOPC   C1A14991  14.179  11.872   6.594 -0.0749  0.0747 -0.1011
 1059YOPC   D2A14992  13.902  12.045   6.883 -0.0014 -0.0278  0.0618
 1059YOPC   C3A14993  13.879  11.860   7.281 -0.1197 -0.6187 -0.1000
 1059YOPC   C4A14994  13.926  11.831   7.735  0.1076  0.1168 -0.0488
 1059YOPC   C1B14995  14.694  12.163   6.571  0.0136  0.2179  0.0483
 1059YOPC   C2B14996  14.710  11.978   6.922 -0.0341 -0.0512 -0.2547
 1059YOPC   D3B14997  14.361  12.173   7.264  0.0929 -0.1692  0.4460
 1059YOPC   C4B14998  14.192  12.431   7.569 -0.0161  0.0207 -0.1945
 1060YOPC   NC314999   6.052  13.367   6.356 -0.2196  0.2726 -0.0497
 1060YOPC   PO415000   5.759  13.624   6.509  0.0063  0.1023  0.0838
 1060YOPC   GL115001   5.596  13.776   6.974 -0.2999 -0.1040  0.0099
 1060YOPC   GL215002   5.676  13.583   7.152 -0.1670 -0.3650 -0.2365
 1060YOPC   C1A15003   5.391  13.900   7.397  0.0422 -0.0484  0.0118
 1060YOPC   D2A15004   5.097  13.785   7.614  0.2399  0.3535 -0.2739
 1060YOPC   C3A15005   5.255  13.707   7.941 -0.2741 -0.1978  0.1740
 1060YOPC   C4A15006   5.146  13.578   8.361  0.0765 -0.1457  0.2054
 1060YOPC   C1B15007   5.677  13.534   7.575 -0.0849  0.2184  0.1469
 1060YOPC   C2B15008   5.796  13.452   8.030 -0.2031 -0.0722 -0.0595
 1060YOPC   D3B15009   5.641  13.539   8.442  0.3792 -0.2121 -0.2860
 1060YOPC   C4B15010   5.448  13.093   8.502 -0.1063 -0.4255  0.1756
 1061YOPC   NC315011   0.424  10.158   5.479  0.0770 -0.1147 -0.0139
 1061YOPC   PO415012   0.037  10.373   5.746  0.1378  0.1517  0.0736
 1061YOPC   GL115013  -0.078  10.644   6.022 -0.1258  0.1499  0.2397
 1061YOPC   GL215014   0.071  10.624   6.228 -0.1102  0.0625  0.3009
 1061YOPC   C1A15015  -0.427  10.529   6.320 -0.2171 -0.0022  0.2396
 1061YOPC   D2A15016  -0.449  10.455   6.742 -0.2282 -0.3386  0.1059
 1061YOPC   C3A15017  -0.272  10.749   6.993 -0.2363 -0.1198 -0.0167
 1061YOPC   C4A15018  -0.254  11.167   7.170  0.0470 -0.0175 -0.3118
 1061YOPC   C1B15019   0.046  10.391   6.664 -0.0567  0.0189  0.3041
 1061YOPC   C2B15020   0.101  10.233   7.005 -0.2486  0.2035  0.1975
 1061YOPC   D3B15021  -0.270  10.291   7.253  0.1902 -0.3194  0.2729
 1061YOPC   C4B15022  -0.776  10.277   7.180 -0.0536 -0.1507  0.2888
 1062YOPC   NC315023  16.820   6.028   5.114 -0.0633  0.1427  0.0205
 1062YOPC   PO415024  16.972   6.158   5.484  0.3431 -0.1734  0.1303
 1062YOPC   GL115025  16.690   6.013   5.827 -0.1177  0.4159 -0.0076
 1062YOPC   GL215026  16.386   6.168   6.044 -0.2305 -0.0515  0.2488
 1062YOPC   C1A15027  16.819   5.935   6.260 -0.3535 -0.0805 -0.1708
 1062YOPC   D2A15028  17.102   5.776   6.714 -0.0151  0.0704  0.2641
 1062YOPC   C3A15029  17.146   5.852   7.085 -0.2077  0.0823  0.0953
 1062YOPC   C4A15030  17.177   6.173   7.417  0.1058  0.3592 -0.3383
 1062YOPC   C1B15031  16.326   6.075   6.474 -0.1969  0.1295  0.1792
 1062YOPC   C2B15032  16.347   5.989   6.955 -0.1907 -0.0330 -0.1255
 1062YOPC   D3B15033  16.690   5.698   7.012  0.0539 -0.2529 -0.2617
 1062YOPC   C4B15034  16.893   5.545   7.461 -0.0338 -0.2679 -0.0080
 1063YOPC   NC315035   8.498  15.119   5.980 -0.0201 -0.3189  0.1568
 1063YOPC   PO415036   8.267  15.463   6.015  0.3472  0.1255  0.0759
 1063YOPC   GL115037   8.286  15.362   6.449 -0.0486 -0.2664  0.3191
 1063YOPC   GL215038   8.655  15.324   6.445  0.2236 -0.0460 -0.3916
 1063YOPC   C1A15039   8.524  15.350   6.959 -0.3264 -0.0199  0.0307
 1063YOPC   D2A15040   8.889  15.198   7.113 -0.0928 -0.3061  0.0232
 1063YOPC   C3A15041   9.004  15.223   7.540  0.3922 -0.0837 -0.0708
 1063YOPC   C4A15042   8.803  14.889   7.835  0.0897  0.0342  0.0752
 1063YOPC   C1B15043   8.744  15.663   6.622  0.0971 -0.0635  0.1490
 1063YOPC   C2B15044   8.491  15.956   6.975 -0.2967 -0.1603 -0.3522
 1063YOPC   D3B15045   8.379  15.967   7.442 -0.1570 -0.3903  0.1265
 1063YOPC   C4B15046   8.484  15.886   7.849 -0.0205 -0.0262 -0.1546
 1064YOPC   NC315047   4.537   6.230   5.218  0.1079 -0.0493  0.1646
 1064YOPC   PO415048   4.303   6.240   5.587 -0.0147  0.0146  0.2365
 1064YOPC   GL115049   4.322   6.303   5.971 -0.3135  0.0829  0.1049
 1064YOPC   GL215050   4.589   6.172   6.053  0.1065  0.0139 -0.2575
 1064YOPC   C1A15051   4.328   6.337   6.416  0.1236 -0.0267 -0.1033
 1064YOPC   D2A15052   4.753   6.313   6.754  0.2172  0.2953 -0.1201
 1064YOPC   C3A15053   4.912   6.596   7.116 -0.3133 -0.2917  0.1414
 1064YOPC   C4A15054   4.798   6.854   7.370 -0.0091 -0.1859  0.0268
 1064YOPC   C1B15055   4.908   5.957   5.796 -0.1156 -0.1620 -0.0054
 1064YOPC   C2B15056   5.318   5.794   5.722  0.1922  0.0726  0.1978
 1064YOPC   D3B15057   5.746   5.814   5.976  0.0419  0.2990 -0.3114
 1064YOPC   C4B15058   6.103   5.770   5.793  0.2092 -0.1227 -0.0449
 1065YOPC   NC315059  15.832  14.275   5.879 -0.0130 -0.2530 -0.3585
 1065YOPC   PO415060  15.759  13.852   5.987  0.0058 -0.0418  0.2893
 1065YOPC   GL115061  15.540  13.638   6.252  0.1886 -0.2683 -0.2232
 1065YOPC   GL215062  15.747  13.224   6.393  0.2086  0.1722  0.1514
 1065YOPC   C1A15063  15.488  13.778   6.640 -0.4039 -0.0593 -0.1246
 1065YOPC   D2A15064  15.525  13.823   7.077  0.4502  0.0801  0.2759
 1065YOPC   C3A15065  15.317  14.178   7.303 -0.2593 -0.2232  0.0824
 1065YOPC   C4A15066  15.213  14.496   7.541 -0.2244  0.2153 -0.2135
 1065YOPC   C1B15067  15.930  13.472   6.680  0.0923 -0.0532  0.0792
 1065YOPC   C2B15068  16.331  13.434   6.902  0.1362 -0.0780  0.4103
 1065YOPC   D3B15069  16.330  13.211   7.226 -0.1126 -0.0785  0.0391
 1065YOPC   C4B15070  16.058  13.219   7.647  0.2643  0.0068  0.2790
 1066YOPC   NC315071  11.198  16.225   6.044  0.2832 -0.1589 -0.4230
 1066YOPC   PO415072  10.775  16.363   6.207 -0.0858  0.2302  0.1777
 1066YOPC   GL115073  10.445  16.443   6.456 -0.0656 -0.0014  0.0800
 1066YOPC   GL215074  10.504  16.168   6.688 -0.2556 -0.2955  0.0489
 1066YOPC   C1A15075  10.030  16.165   6.813  0.0169 -0.2571  0.2928
 1066YOPC   D2A15076  10.024  16.040   7.157  0.3046 -0.0106 -0.1055
 1066YOPC   C3A15077   9.800  16.294   7.423 -0.0275  0.1616  0.1703
 1066YOPC   C4A15078   9.432  16.493   7.454 -0.2515  0.0787  0.0158
 1066YOPC   C1B15079  10.948  16.333   6.874 -0.2736  0.2865  0.3444
 1066YOPC   C2B15080  11.390  16.351   6.988 -0.0265 -0.0206 -0.2380
 1066YOPC   D3B15081  11.635  16.183   7.293 -0.2678  0.1638  0.2882
 1066YOPC   C4B15082  11.531  16.265   7.793  0.0625 -0.1114 -0.3563
 1067YOPC   NC315083  16.978   1.254   5.839  0.0883 -0.0865 -0.4552
 1067YOPC   PO415084  17.384   1.399   5.886  0.1324  0.0262 -0.0013
 1067YOPC   GL115085  17.304   1.487   6.259  0.1730  0.0050  0.0372
 1067YOPC   GL215086  17.084   1.755   6.428  0.4926  0.0858 -0.0548
 1067YOPC   C1A15087  17.419   1.382   6.582  0.0058  0.1109  0.0967
 1067YOPC   D2A15088  17.464   1.521   6.986  0.1105 -0.2455 -0.2447
 1067YOPC   C3A15089  17.416   1.259   7.330  0.0516 -0.0703 -0.2041
 1067YOPC   C4A15090  17.658   0.880   7.565 -0.0674  0.0048  0.1975
 1067YOPC   C1B15091  16.827   1.843   6.764 -0.0800 -0.1924  0.0557
 1067YOPC   C2B15092  16.584   1.577   7.075  0.0627 -0.0704  0.3187
 1067YOPC   D3B15093  16.350   1.493   7.353  0.3915 -0.2643 -0.1963
 1067YOPC   C4B15094  15.939   1.846   7.530  0.0107  0.0066  0.0450
 1068YOPC   NC315095   8.388  17.648   5.303 -0.2289 -0.1094 -0.0263
 1068YOPC   PO415096   8.617  17.959   5.633  0.2543  0.0299  0.0577
 1068YOPC   GL115097   8.772  17.961   6.080 -0.1846  0.0769  0.1638
 1068YOPC   GL215098   9.054  18.063   6.170 -0.0262 -0.3945 -0.0018
 1068YOPC   C1A15099   8.667  17.821   6.574  0.0714 -0.0820  0.2122
 1068YOPC   D2A15100   8.475  17.578   6.986 -0.1038  0.0355  0.2563
 1068YOPC   C3A15101   8.111  17.489   7.013  0.3044 -0.0942 -0.5264
 1068YOPC   C4A15102   7.756  17.447   7.201 -0.3686 -0.2040 -0.1218
 1068YOPC   C1B15103   8.972  18.234   6.621  0.0973  0.1229 -0.0007
 1068YOPC   C2B15104   9.306  18.042   6.841  0.0403 -0.0699 -0.1806
 1068YOPC   D3B15105   9.277  17.804   7.248  0.1007  0.0998 -0.2598
 1068YOPC   C4B15106   9.261  17.441   7.483 -0.1144  0.0206 -0.0174
 1069YOPC   NC315107  11.583  12.715   5.823  0.0229 -0.1564 -0.0837
 1069YOPC   PO415108  11.170  12.634   5.927  0.3199  0.2503 -0.3342
 1069YOPC   GL115109  10.999  12.278   6.153  0.0123 -0.0125 -0.2502
 1069YOPC   GL215110  11.151  11.971   6.044  0.2736  0.1196 -0.0294
 1069YOPC   C1A15111  10.730  12.288   6.489  0.0033  0.3391  0.1890
 1069YOPC   D2A15112  10.735  12.025   6.784  0.1969 -0.0563 -0.1223
 1069YOPC   C3A15113  11.095  12.178   6.970  0.3505  0.1058 -0.1271
 1069YOPC   C4A15114  11.405  12.087   7.303 -0.1596 -0.0987 -0.1186
 1069YOPC   C1B15115  11.079  11.903   6.483 -0.0637  0.1303  0.1195
 1069YOPC   C2B15116  11.364  11.805   6.856  0.1557  0.1676  0.0962
 1069YOPC   D3B15117  11.733  11.732   7.034  0.0241 -0.2701  0.2439
 1069YOPC   C4B15118  11.861  11.446   7.211  0.0755  0.0456  0.0944
 1070YOPC   NC315119   8.699   7.682   5.651  0.0706 -0.2018 -0.0450
 1070YOPC   PO415120   8.946   8.126   5.651  0.1164 -0.0300 -0.0145
 1070YOPC   GL115121   9.034   8.376   6.012  0.2198 -0.2971 -0.0236
 1070YOPC   GL215122   8.939   8.692   6.012 -0.0730  0.1231 -0.1371
 1070YOPC   C1A15123   9.128   8.393   6.422 -0.0878 -0.0483  0.1008
 1070YOPC   D2A15124   9.046   8.554   6.792  0.1458  0.0328  0.0307
 1070YOPC   C3A15125   9.027   8.363   7.255 -0.1788 -0.0689 -0.1465
 1070YOPC   C4A15126   8.990   7.962   7.424 -0.2162  0.0471  0.2648
 1070YOPC   C1B15127   9.034   8.916   6.397 -0.1418 -0.2481 -0.2066
 1070YOPC   C2B15128   9.162   9.141   6.786 -0.0858  0.0454 -0.1082
 1070YOPC   D3B15129   9.590   9.052   7.105 -0.1070 -0.3256 -0.0814
 1070YOPC   C4B15130   9.795   8.791   7.448  0.1020  0.0880 -0.0059
 1071YOPC   NC315131  11.436  13.848   5.770  0.6051  0.2170  0.1575
 1071YOPC   PO415132  11.484  13.614   6.140  0.1502 -0.1612  0.1107
 1071YOPC   GL115133  11.538  13.641   6.539 -0.0812 -0.0591 -0.2888
 1071YOPC   GL215134  11.543  13.290   6.558  0.1385  0.0913  0.2169
 1071YOPC   C1A15135  11.503  13.552   7.021 -0.0454 -0.1178  0.2178
 1071YOPC   D2A15136  11.611  13.194   7.264  0.2910 -0.0908 -0.1024
 1071YOPC   C3A15137  11.264  12.987   7.560 -0.2319 -0.2355  0.1397
 1071YOPC   C4A15138  11.112  12.791   7.817 -0.0865  0.2380  0.3368
 1071YOPC   C1B15139  11.227  13.095   6.867 -0.1104 -0.0848  0.1133
 1071YOPC   C2B15140  10.812  13.129   6.787 -0.0410 -0.3335 -0.0617
 1071YOPC   D3B15141  10.428  13.337   6.955 -0.1776  0.1198 -0.1353
 1071YOPC   C4B15142  10.420  13.422   7.330  0.1449 -0.2636 -0.2006
 1072YOPC   NC315143   3.397  12.042   6.253  0.0272  0.1556  0.1134
 1072YOPC   PO415144   3.765  12.232   6.021  0.2742 -0.2790  0.0228
 1072YOPC   GL115145   3.810  12.323   6.449  0.1346  0.0698  0.0459
 1072YOPC   GL215146   3.982  12.465   6.527 -0.0559  0.0687  0.0292
 1072YOPC   C1A15147   3.784  12.060   6.737  0.0802 -0.1725 -0.0484
 1072YOPC   D2A15148   3.915  11.998   7.214 -0.3131  0.1918 -0.1788
 1072YOPC   C3A15149   3.723  11.820   7.489 -0.0245 -0.2492  0.0380
 1072YOPC   C4A15150   3.696  11.446   7.852 -0.1756 -0.1063  0.0626
 1072YOPC   C1B15151   3.925  12.481   6.910 -0.2673 -0.4028 -0.1980
 1072YOPC   C2B15152   4.131  12.489   7.203  0.0867 -0.1435  0.1094
 1072YOPC   D3B15153   4.449  12.768   7.453  0.2763  0.1058 -0.4414
 1072YOPC   C4B15154   4.921  12.679   7.410 -0.1651  0.0529 -0.1567
 1073YOPC   NC315155   2.212  14.622   6.150 -0.2060  0.1194  0.1824
 1073YOPC   PO415156   2.621  14.773   6.333 -0.2928 -0.1323  0.2405
 1073YOPC   GL115157   2.541  14.413   6.682 -0.0661  0.0971  0.4592
 1073YOPC   GL215158   2.311  14.207   6.703 -0.1295 -0.1680  0.3948
 1073YOPC   C1A15159   2.599  14.333   7.184 -0.0531  0.0925  0.3121
 1073YOPC   D2A15160   2.403  14.307   7.504  0.0695  0.1872 -0.1528
 1073YOPC   C3A15161   2.223  14.528   7.870 -0.0672  0.0205 -0.0549
 1073YOPC   C4A15162   2.053  14.637   8.279 -0.2975  0.1506 -0.2590
 1073YOPC   C1B15163   2.055  14.231   7.114 -0.0061  0.0857  0.2130
 1073YOPC   C2B15164   1.804  14.397   7.438  0.1654  0.3817  0.1420
 1073YOPC   D3B15165   1.930  14.155   7.918  0.2678  0.0928  0.0537
 1073YOPC   C4B15166   1.954  14.182   8.330 -0.0625  0.1851  0.1868
 1074YOPC   NC315167  12.018  10.246   5.473  0.0429 -0.0706 -0.1988
 1074YOPC   PO415168  12.089   9.904   5.695 -0.0530  0.0531 -0.0771
 1074YOPC   GL115169  12.118   9.854   6.186  0.0349  0.0768 -0.1799
 1074YOPC   GL215170  12.285  10.031   6.220  0.0992  0.3288 -0.0572
 1074YOPC   C1A15171  12.323   9.520   6.460 -0.3100  0.1210 -0.1552
 1074YOPC   D2A15172  12.074   9.327   6.953  0.2358  0.0653  0.2449
 1074YOPC   C3A15173  11.996   9.504   7.345  0.1368 -0.0953  0.1339
 1074YOPC   C4A15174  11.624   9.525   7.656  0.1385 -0.4467  0.2910
 1074YOPC   C1B15175  12.544  10.033   6.523 -0.0064  0.0849  0.0073
 1074YOPC   C2B15176  12.398  10.399   6.855 -0.1947  0.1519  0.0082
 1074YOPC   D3B15177  12.284  10.239   7.302  0.0545  0.0550  0.0413
 1074YOPC   C4B15178  11.886  10.137   7.435 -0.0140 -0.1120  0.1413
 1075YOPC   NC315179  17.660  17.932   5.682  0.0828  0.2787 -0.1423
 1075YOPC   PO415180  17.303  18.135   5.524  0.1594 -0.0914  0.0321
 1075YOPC   GL115181  17.328  18.349   5.828  0.0219 -0.2236 -0.0122
 1075YOPC   GL215182  17.056  18.633   5.944  0.0119 -0.0981 -0.0940
 1075YOPC   C1A15183  17.283  18.255   6.306  0.0527 -0.0660  0.2559
 1075YOPC   D2A15184  17.012  17.888   6.446  0.1459  0.1933  0.1814
 1075YOPC   C3A15185  17.050  17.501   6.697 -0.0117  0.1114  0.0419
 1075YOPC   C4A15186  17.078  17.197   7.068 -0.2507  0.0507  0.1908
 1075YOPC   C1B15187  16.787  18.529   6.297 -0.2056  0.1000 -0.2395
 1075YOPC   C2B15188  16.783  18.617   6.680  0.1158 -0.3024 -0.1150
 1075YOPC   D3B15189  17.013  18.872   6.930  0.0039 -0.0683  0.0435
 1075YOPC   C4B15190  17.268  18.736   7.266 -0.0173  0.0632 -0.4248
 1076YOPC   NC315191  10.264  11.308   5.298 -0.1420  0.1227 -0.3837
 1076YOPC   PO415192  10.138  11.238   5.740  0.1473  0.0414 -0.1869
 1076YOPC   GL115193  10.111  10.968   6.140 -0.0078 -0.0210 -0.1745
 1076YOPC   GL215194  10.301  10.972   6.437  0.1054  0.0360  0.0165
 1076YOPC   C1A15195   9.970  10.665   6.555 -0.3572 -0.1766  0.0894
 1076YOPC   D2A15196   9.836  10.581   6.907  0.1367  0.2498 -0.2258
 1076YOPC   C3A15197  10.102  10.235   7.130 -0.1849  0.0610  0.1993
 1076YOPC   C4A15198  10.337   9.832   7.298 -0.1171  0.1036 -0.2407
 1076YOPC   C1B15199  10.449  11.161   6.825 -0.3601  0.4649  0.1383
 1076YOPC   C2B15200  10.590  11.370   7.228 -0.0659 -0.1569 -0.2049
 1076YOPC   D3B15201  10.964  11.224   7.491  0.1148  0.1694  0.3286
 1076YOPC   C4B15202  11.251  11.089   7.783  0.1491 -0.3072 -0.3139
 1077YOPC   NC315203  14.982  12.907   5.864 -0.3076  0.1304  0.0651
 1077YOPC   PO415204  14.562  12.745   5.880  0.2373  0.4445  0.1549
 1077YOPC   GL115205  14.612  12.629   6.304  0.2890 -0.0904 -0.1298
 1077YOPC   GL215206  14.990  12.587   6.346  0.2066  0.1194 -0.1296
 1077YOPC   C1A15207  14.398  12.845   6.610 -0.1500 -0.1668  0.0485
 1077YOPC   D2A15208  14.091  13.101   6.911  0.1316  0.1718  0.0284
 1077YOPC   C3A15209  14.271  13.112   7.267  0.1609  0.0485 -0.0331
 1077YOPC   C4A15210  14.365  13.388   7.580 -0.2018  0.1430 -0.1476
 1077YOPC   C1B15211  14.877  12.562   6.738  0.0821 -0.3517  0.0312
 1077YOPC   C2B15212  15.103  12.796   7.061 -0.1110 -0.2591 -0.2670
 1077YOPC   D3B15213  15.337  12.595   7.402  0.2681  0.1279  0.0290
 1077YOPC   C4B15214  15.153  12.501   7.831 -0.1423  0.0097 -0.3837
 1078YOPC   NC315215   6.343   5.669   5.021  0.3617 -0.0848 -0.4544
 1078YOPC   PO415216   6.356   5.327   5.128  0.1396  0.0589 -0.1324
 1078YOPC   GL115217   6.122   5.264   5.548  0.0900  0.0434 -0.2170
 1078YOPC   GL215218   6.258   5.142   5.753  0.2906  0.5021 -0.3487
 1078YOPC   C1A15219   5.681   5.322   5.731  0.3751 -0.0987  0.0140
 1078YOPC   D2A15220   5.286   5.316   5.865 -0.0334  0.0763 -0.0261
 1078YOPC   C3A15221   5.168   5.403   6.197 -0.3045  0.0348 -0.4101
 1078YOPC   C4A15222   5.309   5.802   6.366  0.1395  0.3599 -0.2724
 1078YOPC   C1B15223   5.992   5.325   6.114  0.3040  0.1721 -0.2630
 1078YOPC   C2B15224   5.713   5.508   6.395 -0.0778 -0.4411  0.1285
 1078YOPC   D3B15225   6.008   5.790   6.413  0.0912 -0.0602 -0.4282
 1078YOPC   C4B15226   6.215   6.133   6.247 -0.2285 -0.0994  0.0532
 1079YOPC   NC315227  18.149   6.439   5.334  0.2357 -0.0847 -0.0157
 1079YOPC   PO415228  17.814   6.261   5.520 -0.2857 -0.2297 -0.0526
 1079YOPC   GL115229  18.003   6.129   5.893  0.1225 -0.1741  0.2233
 1079YOPC   GL215230  17.781   6.157   6.041 -0.1261  0.0446 -0.1396
 1079YOPC   C1A15231  18.204   5.823   6.101  0.0909  0.1106 -0.1026
 1079YOPC   D2A15232  18.010   5.707   6.380  0.0431  0.0228 -0.1335
 1079YOPC   C3A15233  17.978   5.957   6.631 -0.0572 -0.1058  0.1788
 1079YOPC   C4A15234  17.946   6.130   7.068  0.0940 -0.2071  0.3961
 1079YOPC   C1B15235  17.716   6.292   6.514 -0.0912 -0.5164  0.0621
 1079YOPC   C2B15236  17.297   6.232   6.799  0.3150  0.2000  0.0543
 1079YOPC   D3B15237  16.914   6.271   6.658 -0.0879  0.0020  0.0810
 1079YOPC   C4B15238  16.617   6.530   6.335 -0.2919  0.2927  0.2176
 1080YOPC   NC315239   0.406   7.239   5.808 -0.1984 -0.0891 -0.1328
 1080YOPC   PO415240   0.139   7.648   5.793  0.2042 -0.0669 -0.3349
 1080YOPC   GL115241   0.092   7.745   6.176  0.1935  0.0516  0.1597
 1080YOPC   GL215242  -0.252   7.795   6.313 -0.1483  0.0295 -0.2108
 1080YOPC   C1A15243   0.075   7.940   6.641  0.2174  0.0873 -0.2958
 1080YOPC   D2A15244  -0.111   7.886   7.043  0.2305 -0.2259 -0.0014
 1080YOPC   C3A15245   0.065   7.922   7.395  0.0200 -0.0408  0.0654
 1080YOPC   C4A15246   0.156   7.978   7.771 -0.0839  0.1098 -0.1812
 1080YOPC   C1B15247  -0.364   7.678   6.694  0.2147 -0.4342  0.2503
 1080YOPC   C2B15248  -0.449   7.434   7.106  0.0298 -0.2367  0.0386
 1080YOPC   D3B15249  -0.240   7.518   7.428 -0.2798  0.0839  0.0097
 1080YOPC   C4B15250  -0.146   7.613   7.822 -0.2944  0.2490  0.1747
 1081YOPC   NC315251   2.966  15.416   5.938 -0.3223 -0.0349 -0.0848
 1081YOPC   PO415252   2.565  15.352   6.052 -0.0766  0.0056 -0.2040
 1081YOPC   GL115253   2.649  15.295   6.541  0.1080 -0.1634 -0.1885
 1081YOPC   GL215254   2.632  15.006   6.805 -0.0316 -0.4143  0.2531
 1081YOPC   C1A15255   2.707  15.692   6.806 -0.0314  0.2730 -0.1965
 1081YOPC   D2A15256   2.804  16.030   7.184 -0.1605  0.0492  0.0915
 1081YOPC   C3A15257   2.750  15.779   7.563  0.1974  0.2607  0.1222
 1081YOPC   C4A15258   2.863  15.657   8.002  0.0937  0.1070 -0.2233
 1081YOPC   C1B15259   2.854  14.901   7.221  0.0623  0.2316 -0.3191
 1081YOPC   C2B15260   2.697  14.753   7.590  0.1745 -0.2153 -0.0015
 1081YOPC   D3B15261   2.751  14.439   7.863 -0.2428 -0.1273 -0.0066
 1081YOPC   C4B15262   2.994  14.115   8.158  0.1900  0.2775  0.1239
 1082YOPC   NC315263   7.854   7.760   5.374  0.1758 -0.4874 -0.3580
 1082YOPC   PO415264   7.702   7.965   5.678  0.1515 -0.0994  0.2540
 1082YOPC   GL115265   7.995   8.141   6.035 -0.4130 -0.3703  0.0568
 1082YOPC   GL215266   8.212   7.857   6.111 -0.2555 -0.0032 -0.0220
 1082YOPC   C1A15267   7.927   8.131   6.474  0.0011  0.0670  0.0498
 1082YOPC   D2A15268   7.964   7.979   6.927  0.0939 -0.2947  0.1492
 1082YOPC   C3A15269   7.706   8.169   7.351 -0.1975 -0.1266  0.2040
 1082YOPC   C4A15270   7.246   8.443   7.451 -0.1548 -0.0164 -0.2140
 1082YOPC   C1B15271   8.384   7.935   6.547  0.0483  0.0547 -0.2742
 1082YOPC   C2B15272   8.571   7.723   6.908 -0.0413  0.0880 -0.0905
 1082YOPC   D3B15273   8.949   7.602   7.079  0.1220 -0.1233  0.1337
 1082YOPC   C4B15274   9.341   7.742   7.150  0.0602 -0.1739 -0.0390
 1083YOPC   NC315275   1.502   1.923   5.683  0.1644 -0.1930  0.0137
 1083YOPC   PO415276   1.347   1.509   5.837 -0.0498  0.3209  0.0009
 1083YOPC   GL115277   1.339   1.540   6.346  0.0805 -0.1476  0.1570
 1083YOPC   GL215278   1.402   1.891   6.519  0.0492  0.2354 -0.1756
 1083YOPC   C1A15279   1.391   1.252   6.674 -0.3654  0.0568 -0.0651
 1083YOPC   D2A15280   1.722   1.251   6.977  0.1810  0.1799  0.0714
 1083YOPC   C3A15281   1.511   1.680   7.254 -0.0225 -0.2350  0.1298
 1083YOPC   C4A15282   1.786   1.867   7.584  0.1118 -0.0796  0.4732
 1083YOPC   C1B15283   1.517   2.087   6.932 -0.2365 -0.2108 -0.0156
 1083YOPC   C2B15284   1.429   2.164   7.385  0.4886 -0.1367  0.1637
 1083YOPC   D3B15285   1.323   1.854   7.713  0.0171  0.1702  0.2120
 1083YOPC   C4B15286   1.152   1.641   8.067 -0.0618 -0.2225 -0.0317
 1084ERGO   ROH15287  11.928   6.243   9.331  0.1477 -0.1108  0.0059
 1084ERGO    R115288  12.032   6.148   9.085  0.0951 -0.1231 -0.0125
 1084ERGO    R215289  11.885   5.989   8.913  0.0202 -0.0472 -0.0241
 1084ERGO    R315290  11.947   6.182   8.733  0.0840 -0.0483 -0.0021
 1084ERGO    R415291  11.938   5.935   8.576  0.0468 -0.0314 -0.0217
 1084ERGO    R515292  12.103   6.077   8.584  0.0762 -0.0700  0.0077
 1084ERGO    C115293  12.027   6.084   8.210  0.1222 -0.0231  0.0004
 1084ERGO    C215294  12.073   6.300   7.919  0.0540  0.0260  0.0125
 1085ERGO   ROH15295  14.112   5.408   9.540  0.2858 -0.4551  0.0777
 1085ERGO    R115296  14.184   5.528   9.294  0.1044 -0.2738  0.1093
 1085ERGO    R215297  14.424   5.476   9.168  0.0818 -0.0652 -0.0337
 1085ERGO    R315298  14.264   5.415   8.958  0.0173 -0.0414  0.0095
 1085ERGO    R415299  14.536   5.399   8.850 -0.0238 -0.0040 -0.0854
 1085ERGO    R515300  14.371   5.517   8.769 -0.0567 -0.0048 -0.0096
 1085ERGO    C115301  14.451   5.297   8.468 -0.1459  0.0539 -0.0749
 1085ERGO    C215302  14.486   5.093   8.211 -0.1075 -0.1119 -0.0782
 1086ERGO   ROH15303   4.495   4.386   9.404  0.1055 -0.2756 -0.0835
 1086ERGO    R115304   4.499   4.262   9.150  0.2647 -0.1085 -0.1644
 1086ERGO    R215305   4.295   4.293   8.965  0.1689 -0.3380 -0.0962
 1086ERGO    R315306   4.499   4.371   8.803  0.0048  0.1150 -0.0981
 1086ERGO    R415307   4.270   4.343   8.624  0.0808 -0.5566 -0.1239
 1086ERGO    R515308   4.464   4.250   8.600  0.3389 -0.0767 -0.0502
 1086ERGO    C115309   4.446   4.446   8.273 -0.1246 -0.2585 -0.1419
 1086ERGO    C215310   4.433   4.499   7.897 -0.1381 -0.0438 -0.1508
 1087ERGO   ROH15311  13.833  15.821   9.752 -0.2740  0.2069  0.1017
 1087ERGO    R115312  13.827  15.717   9.489 -0.0919  0.1794  0.1069
 1087ERGO    R215313  13.689  15.840   9.284 -0.0529  0.0924  0.0267
 1087ERGO    R315314  13.930  15.829   9.158  0.0162  0.2011  0.1478
 1087ERGO    R415315  13.738  15.889   8.945  0.0956  0.0971  0.0481
 1087ERGO    R515316  13.883  15.726   8.947  0.1726  0.1671  0.1289
 1087ERGO    C115317  13.992  15.907   8.630  0.2467  0.2018  0.1743
 1087ERGO    C215318  13.972  16.047   8.281 -0.0266 -0.0309 -0.0137
 1088ERGO   ROH15319  10.563   8.803   9.516 -0.0103  0.1321  0.1117
 1088ERGO    R115320  10.700   8.924   9.299  0.0049  0.2383  0.1789
 1088ERGO    R215321  10.670   8.839   9.038  0.2518  0.1672  0.1670
 1088ERGO    R315322  10.609   9.100   8.994  0.0136  0.1014  0.0980
 1088ERGO    R415323  10.715   9.004   8.738  0.1472  0.1506  0.1426
 1088ERGO    R515324  10.783   9.178   8.850 -0.0378  0.2378  0.1144
 1088ERGO    C115325  10.683   9.346   8.522 -0.1373  0.0791  0.0636
 1088ERGO    C215326  10.715   9.684   8.381  0.0359  0.2402 -0.2576
 1089ERGO   ROH15327   7.461  12.258   8.356 -0.0255 -0.0499 -0.0668
 1089ERGO    R115328   7.404  12.497   8.215  0.0068 -0.0367 -0.0578
 1089ERGO    R215329   7.329  12.498   7.949 -0.0331 -0.0196 -0.0466
 1089ERGO    R315330   7.117  12.640   8.042  0.0128  0.0283 -0.0144
 1089ERGO    R415331   7.234  12.809   7.833 -0.0036 -0.0154 -0.0602
 1089ERGO    R515332   7.192  12.867   8.039  0.0529  0.0151 -0.0567
 1089ERGO    C115333   6.978  13.124   7.854  0.0567  0.0317 -0.0380
 1089ERGO    C215334   7.026  13.551   7.894 -0.2903 -0.2191  0.2389
 1090ERGO   ROH15335   4.862  12.115   6.710  0.0360  0.0388  0.1793
 1090ERGO    R115336   5.016  12.058   6.940  0.0674 -0.1526  0.1113
 1090ERGO    R215337   4.911  12.066   7.195  0.1657 -0.1131  0.1464
 1090ERGO    R315338   5.009  11.813   7.209 -0.0565 -0.2079  0.0599
 1090ERGO    R415339   4.957  11.886   7.487  0.2431 -0.1544  0.1104
 1090ERGO    R515340   5.144  11.811   7.406  0.1115 -0.3306 -0.0499
 1090ERGO    C115341   5.076  11.544   7.670  0.0797 -0.2674  0.0083
 1090ERGO    C215342   4.999  11.259   7.835 -0.2658 -0.4062 -0.0760
 1091ERGO   ROH15343   3.747  12.857   6.638  0.0780 -0.1184  0.1100
 1091ERGO    R115344   3.713  12.951   6.903 -0.0366  0.0226  0.0473
 1091ERGO    R215345   3.473  12.936   7.037 -0.0442 -0.1009  0.0260
 1091ERGO    R315346   3.621  12.808   7.225  0.0465  0.1449  0.1253
 1091ERGO    R415347   3.385  12.907   7.370 -0.1503 -0.1376 -0.0049
 1091ERGO    R515348   3.594  12.942   7.422 -0.2202  0.1574  0.0811
 1091ERGO    C115349   3.473  12.770   7.740 -0.1269  0.0720  0.0704
 1091ERGO    C215350   3.071  12.745   7.859  0.1345  0.3574 -0.0356
 1092ERGO   ROH15351  16.578   8.922   9.497  0.0348  0.2389 -0.0688
 1092ERGO    R115352  16.602   8.947   9.216  0.1348 -0.0680 -0.0907
 1092ERGO    R215353  16.619   8.728   9.049 -0.2015 -0.2641  0.1197
 1092ERGO    R315354  16.409   8.847   8.925  0.0204 -0.0204 -0.0313
 1092ERGO    R415355  16.543   8.696   8.713 -0.1328 -0.3666  0.1133
 1092ERGO    R515356  16.493   8.908   8.709  0.1905 -0.2880 -0.0438
 1092ERGO    C115357  16.302   8.790   8.401  0.1156 -0.1975 -0.0320
 1092ERGO    C215358  16.261   8.765   8.021  0.2945  0.1990  0.0392
 1093ERGO   ROH15359   5.825  12.455   6.697 -0.3536  0.0242 -0.0715
 1093ERGO    R115360   5.909  12.475   6.966 -0.1518  0.0552 -0.1340
 1093ERGO    R215361   5.755  12.594   7.162  0.0688  0.2412 -0.0618
 1093ERGO    R315362   5.791  12.357   7.289 -0.0218  0.2545 -0.0127
 1093ERGO    R415363   5.764  12.553   7.505  0.1806  0.3244 -0.0551
 1093ERGO    R515364   5.927  12.411   7.479  0.0839  0.2225 -0.0818
 1093ERGO    C115365   5.803  12.306   7.824  0.1606  0.3856 -0.0051
 1093ERGO    C215366   5.837  12.057   8.110  0.1395  0.1529 -0.0579
 1094ERGO   ROH15367   5.832  14.133   7.196  0.3149 -0.2026 -0.0829
 1094ERGO    R115368   5.903  14.032   7.452  0.1465 -0.2061 -0.0345
 1094ERGO    R215369   5.927  14.195   7.675  0.2337 -0.1689 -0.0603
 1094ERGO    R315370   5.750  14.019   7.781  0.0330  0.0233 -0.0783
 1094ERGO    R415371   5.819  14.196   8.003  0.3226 -0.1585 -0.0328
 1094ERGO    R515372   5.830  13.979   8.003  0.0378 -0.1683 -0.1193
 1094ERGO    C115373   5.589  14.032   8.294  0.1860  0.0280 -0.0337
 1094ERGO    C215374   5.364  14.207   8.487  0.0145 -0.3956 -0.1399
 1095ERGO   ROH15375   4.685  18.110  10.040  0.3270 -0.0481  0.0850
 1095ERGO    R115376   4.544  18.122   9.795  0.1892  0.0690  0.1681
 1095ERGO    R215377   4.555  18.341   9.628  0.2064  0.0940  0.2005
 1095ERGO    R315378   4.629  18.156   9.442  0.0028  0.0865  0.1243
 1095ERGO    R415379   4.539  18.388   9.285  0.5471  0.3734  0.2171
 1095ERGO    R515380   4.469  18.182   9.266  0.1769  0.5116  0.0173
 1095ERGO    C115381   4.600  18.241   8.912  0.5544  0.5290  0.1551
 1095ERGO    C215382   4.670  18.205   8.542 -0.2616  0.0983  0.2367
 1096ERGO   ROH15383  14.799   3.443   9.733  0.1180  0.1042 -0.1461
 1096ERGO    R115384  14.679   3.327   9.504  0.1258 -0.1502 -0.0278
 1096ERGO    R215385  14.582   3.480   9.294 -0.2412 -0.3571 -0.0241
 1096ERGO    R315386  14.746   3.322   9.146 -0.1035 -0.1715 -0.0697
 1096ERGO    R415387  14.560   3.438   8.952 -0.1732 -0.2544 -0.0399
 1096ERGO    R515388  14.603   3.226   8.980 -0.0071 -0.2259 -0.1155
 1096ERGO    C115389  14.702   3.265   8.614 -0.0045 -0.0203 -0.0919
 1096ERGO    C215390  14.636   3.210   8.291 -0.1563 -0.0618  0.3706
 1097ERGO   ROH15391   0.921   4.929   9.870  0.1713 -0.1412 -0.1514
 1097ERGO    R115392   0.952   4.836   9.604  0.1867 -0.0045 -0.1966
 1097ERGO    R215393   0.775   4.901   9.403  0.0996 -0.0505 -0.1281
 1097ERGO    R315394   0.999   4.986   9.276  0.0101  0.1699 -0.1458
 1097ERGO    R415395   0.834   4.868   9.064  0.1546 -0.1168 -0.1134
 1097ERGO    R515396   1.041   4.818   9.110  0.2191  0.1468 -0.0775
 1097ERGO    C115397   1.080   4.930   8.747  0.1026  0.0514 -0.1214
 1097ERGO    C215398   1.108   5.016   8.367 -0.2984 -0.0434  0.0490
 1098ERGO   ROH15399   2.930  13.279  10.159 -0.2604 -0.0947  0.0584
 1098ERGO    R115400   2.904  13.397   9.903 -0.0950  0.0211  0.0925
 1098ERGO    R215401   3.122  13.477   9.753  0.0099 -0.0332  0.2095
 1098ERGO    R315402   3.009  13.318   9.564  0.0013  0.0994  0.1041
 1098ERGO    R415403   3.158  13.521   9.412  0.0832  0.1430  0.2399
 1098ERGO    R515404   2.947  13.470   9.389  0.0738  0.2113  0.1745
 1098ERGO    C115405   3.072  13.398   9.036  0.1178  0.3700  0.1585
 1098ERGO    C215406   3.201  13.423   8.774  0.1804 -0.0914  0.0856
 1099ERGO   ROH15407  15.650  13.695   9.805  0.2774  0.1062  0.0802
 1099ERGO    R115408  15.654  13.861   9.576  0.1067  0.1292  0.0927
 1099ERGO    R215409  15.839  13.830   9.373  0.0519  0.2432  0.0239
 1099ERGO    R315410  15.617  13.817   9.216 -0.0008  0.1392  0.1018
 1099ERGO    R415411  15.841  13.821   9.027 -0.0690  0.2572  0.0220
 1099ERGO    R515412  15.669  13.955   9.027 -0.1370  0.1735  0.0875
 1099ERGO    C115413  15.634  13.803   8.679 -0.1889  0.1676  0.0940
 1099ERGO    C215414  15.462  13.551   8.501  0.2867  0.0190  0.0992
 1100ERGO   ROH15415   2.557   7.851   6.266 -0.0815  0.0404  0.0709
 1100ERGO    R115416   2.454   7.998   6.485 -0.1552 -0.2815  0.2571
 1100ERGO    R215417   2.494   7.922   6.747  0.2709 -0.3481  0.1744
 1100ERGO    R315418   2.589   8.175   6.773 -0.2102 -0.1588  0.2100
 1100ERGO    R415419   2.493   8.104   7.041  0.3958 -0.6070  0.3405
 1100ERGO    R515420   2.437   8.281   6.925 -0.1837 -0.6067  0.5753
 1100ERGO    C115421   2.582   8.449   7.236  0.0169 -0.5801  0.4706
 1100ERGO    C215422   2.583   8.701   7.574 -0.1196  0.0659 -0.1003
 1101ERGO   ROH15423   3.391  15.832  10.409  0.2293 -0.3908 -0.0080
 1101ERGO    R115424   3.297  15.716  10.169  0.2393 -0.4097 -0.0041
 1101ERGO    R215425   3.180  15.866   9.967 -0.1367 -0.4720  0.1472
 1101ERGO    R315426   3.371  15.747   9.814 -0.0471 -0.0992 -0.0389
 1101ERGO    R415427   3.161  15.823   9.625 -0.2428 -0.2839  0.1291
 1101ERGO    R515428   3.248  15.625   9.649  0.0529 -0.1692 -0.0502
 1101ERGO    C115429   3.329  15.688   9.281 -0.2205  0.1756 -0.0561
 1101ERGO    C215430   3.242  15.805   9.012 -0.2087 -0.1838  0.2026
 1102ERGO   ROH15431  15.622  16.005  10.005 -0.0082  0.1314 -0.0889
 1102ERGO    R115432  15.777  15.958   9.772 -0.0223  0.0669 -0.0861
 1102ERGO    R215433  15.706  15.772   9.581 -0.0894  0.0860 -0.0830
 1102ERGO    R315434  15.728  15.984   9.413 -0.0097  0.0742 -0.0869
 1102ERGO    R415435  15.777  15.749   9.244  0.0248  0.0624 -0.0571
 1102ERGO    R515436  15.906  15.924   9.265  0.0344  0.0494 -0.0221
 1102ERGO    C115437  15.840  15.935   8.889  0.1662  0.0377 -0.0455
 1102ERGO    C215438  15.975  15.827   8.588  0.0989 -0.1136  0.1219
 1103ERGO   ROH15439  10.101   0.190   9.906  0.0784 -0.0453  0.0694
 1103ERGO    R115440   9.972   0.089   9.675 -0.1562  0.1498  0.1091
 1103ERGO    R215441   9.902   0.250   9.460  0.1309  0.2455  0.0737
 1103ERGO    R315442  10.046   0.067   9.319 -0.2365 -0.0800  0.1071
 1103ERGO    R415443   9.843   0.161   9.131 -0.0521  0.2754  0.0989
 1103ERGO    R515444   9.884  -0.045   9.184 -0.4626  0.2057  0.1415
 1103ERGO    C115445   9.943  -0.061   8.808 -0.5035 -0.0128  0.1448
 1103ERGO    C215446   9.978  -0.108   8.486  0.2370 -0.1494  0.0766
 1104ERGO   ROH15447   8.503   7.358   9.145  0.1930  0.0840 -0.0524
 1104ERGO    R115448   8.428   7.430   8.882  0.0210  0.0365 -0.0184
 1104ERGO    R215449   8.604   7.418   8.669 -0.0561  0.1941 -0.0958
 1104ERGO    R315450   8.408   7.265   8.558  0.0231  0.0351 -0.0169
 1104ERGO    R415451   8.527   7.408   8.332 -0.1484  0.0859 -0.0717
 1104ERGO    R515452   8.316   7.402   8.385 -0.1276 -0.0602 -0.0113
 1104ERGO    C115453   8.299   7.259   8.032 -0.1279 -0.1264  0.0164
 1104ERGO    C215454   8.286   7.407   7.697 -0.1483 -0.2734  0.0293
 1105ERGO   ROH15455   7.150  15.595  10.486  0.1050  0.0904 -0.0067
 1105ERGO    R115456   7.166  15.713  10.229 -0.0458 -0.0009 -0.0583
 1105ERGO    R215457   7.369  15.655  10.051 -0.0130  0.1247 -0.0573
 1105ERGO    R315458   7.163  15.596   9.884  0.0216 -0.1484 -0.0107
 1105ERGO    R415459   7.378  15.690   9.707 -0.1172  0.0876 -0.0649
 1105ERGO    R515460   7.173  15.766   9.715 -0.2126 -0.1547 -0.0379
 1105ERGO    C115461   7.189  15.655   9.350 -0.1453 -0.1902 -0.0255
 1105ERGO    C215462   7.309  15.606   9.019  0.2115 -0.3491  0.1067
 1106ERGO   ROH15463  11.552  12.330   9.992 -0.2021 -0.0909  0.0584
 1106ERGO    R115464  11.568  12.277   9.715 -0.1149 -0.0350  0.0525
 1106ERGO    R215465  11.409  12.089   9.589 -0.1650  0.0820 -0.0572
 1106ERGO    R315466  11.346  12.298   9.428  0.0161  0.1534 -0.0391
 1106ERGO    R415467  11.366  12.070   9.247 -0.3467  0.1008 -0.0360
 1106ERGO    R515468  11.470  12.260   9.227 -0.1177 -0.0202 -0.0958
 1106ERGO    C115469  11.282  12.255   8.896 -0.2825  0.1787 -0.0066
 1106ERGO    C215470  11.206  12.317   8.559 -0.0791  0.1183  0.0847
 1107ERGO   ROH15471   1.090   7.767   6.232 -0.0648 -0.1186 -0.0845
 1107ERGO    R115472   0.991   7.830   6.489 -0.1513  0.0791 -0.1645
 1107ERGO    R215473   1.113   7.743   6.721 -0.4580 -0.0892 -0.0604
 1107ERGO    R315474   1.114   8.007   6.783 -0.0728 -0.0741 -0.1040
 1107ERGO    R415475   1.066   7.872   7.038 -0.5658  0.0402 -0.1285
 1107ERGO    R515476   0.944   8.030   6.950 -0.2121  0.2383 -0.2800
 1107ERGO    C115477   1.038   8.196   7.280 -0.2669  0.1296 -0.2091
 1107ERGO    C215478   0.979   8.204   7.661 -0.0749  0.0959 -0.0713
 1108ERGO   ROH15479   6.743  10.433   9.993  0.0377 -0.1481 -0.0816
 1108ERGO    R115480   6.974  10.410   9.830  0.0665 -0.1342 -0.0443
 1108ERGO    R215481   6.960  10.353   9.560  0.1172 -0.1943 -0.0382
 1108ERGO    R315482   7.109  10.580   9.538  0.0700 -0.1663 -0.0601
 1108ERGO    R415483   7.189  10.416   9.309  0.2213 -0.2351  0.0463
 1108ERGO    R515484   7.321  10.504   9.458  0.1268 -0.1419  0.0715
 1108ERGO    C115485   7.461  10.665   9.141  0.2377 -0.2325  0.0750
 1108ERGO    C215486   7.532  10.822   8.935 -0.2357  0.0600  0.0224
 1109ERGO   ROH15487  18.093   1.097  10.267 -0.0964 -0.0353 -0.1839
 1109ERGO    R115488  18.028   1.087   9.992 -0.0109 -0.0876 -0.2020
 1109ERGO    R215489  18.123   1.271   9.810  0.0006 -0.0927 -0.1963
 1109ERGO    R315490  18.210   1.049   9.679  0.0905 -0.0886 -0.1449
 1109ERGO    R415491  18.129   1.234   9.466 -0.3873 -0.3162 -0.1836
 1109ERGO    R515492  18.062   1.028   9.492 -0.1266 -0.3832  0.0484
 1109ERGO    C115493  18.213   1.003   9.143 -0.5288 -0.4427 -0.1280
 1109ERGO    C215494  18.184   1.019   8.857 -0.2135  0.0700 -0.0143
 1110ERGO   ROH15495  11.012  13.349  10.052  0.2502  0.0032 -0.1168
 1110ERGO    R115496  10.915  13.535   9.861  0.1863 -0.0133 -0.1004
 1110ERGO    R215497  10.973  13.515   9.591  0.1588  0.0069 -0.1059
 1110ERGO    R315498  10.703  13.524   9.566  0.1535 -0.0516 -0.0763
 1110ERGO    R415499  10.804  13.664   9.329  0.1010 -0.0176 -0.0830
 1110ERGO    R515500  10.659  13.740   9.472  0.0981 -0.0550 -0.0626
 1110ERGO    C115501  10.452  13.760   9.153  0.0623 -0.0866 -0.0418
 1110ERGO    C215502  10.289  13.745   8.865  0.4045  0.1569 -0.0128
 1111ERGO   ROH15503  17.744   5.898   9.969  0.1156  0.1036  0.0615
 1111ERGO    R115504  17.610   5.850   9.724  0.0625  0.2819  0.0549
 1111ERGO    R215505  17.673   5.985   9.491  0.2716  0.1826  0.0548
 1111ERGO    R315506  17.700   5.733   9.392 -0.0800  0.1341  0.0663
 1111ERGO    R415507  17.738   5.909   9.160  0.6977  0.1159  0.1473
 1111ERGO    R515508  17.597   5.743   9.176  0.3100  0.3971 -0.1215
 1111ERGO    C115509  17.801   5.628   8.875  0.6155  0.0315  0.2119
 1111ERGO    C215510  17.768   5.688   8.486  0.0525 -0.2058  0.1167
 1112ERGO   ROH15511  13.702   3.504   9.583  0.0721  0.1036  0.0627
 1112ERGO    R115512  13.565   3.451   9.341  0.0638  0.0294  0.0839
 1112ERGO    R215513  13.631   3.573   9.103 -0.0487  0.0760  0.0782
 1112ERGO    R315514  13.650   3.317   9.014  0.0885  0.0894  0.0651
 1112ERGO    R415515  13.622   3.479   8.770 -0.2913  0.0698  0.0844
 1112ERGO    R515516  13.499   3.308   8.827 -0.0898 -0.0405  0.2095
 1112ERGO    C115517  13.634   3.184   8.493 -0.3037  0.0788  0.0757
 1112ERGO    C215518  13.496   3.222   8.116  0.1901  0.1805 -0.0646
 1113ERGO   ROH15519   4.242  18.229  10.160 -0.0923  0.3398 -0.0877
 1113ERGO    R115520   4.076  18.184   9.935 -0.0272  0.2181 -0.1122
 1113ERGO    R215521   4.015  18.383   9.754 -0.0523  0.1429 -0.1827
 1113ERGO    R315522   4.109  18.203   9.573  0.0459  0.1217 -0.1117
 1113ERGO    R415523   4.014  18.427   9.411 -0.0041  0.0462 -0.1961
 1113ERGO    R515524   3.957  18.218   9.389  0.0724  0.0167 -0.1458
 1113ERGO    C115525   4.102  18.284   9.042  0.1161 -0.0298 -0.1372
 1113ERGO    C215526   4.135  18.280   8.700  0.3625  0.2876 -0.0670
 1114ERGO   ROH15527  10.464   9.538   9.708 -0.1822  0.2711  0.1840
 1114ERGO    R115528  10.657   9.600   9.511 -0.2064  0.0875  0.1000
 1114ERGO    R215529  10.622   9.538   9.243 -0.4312  0.2173  0.0948
 1114ERGO    R315530  10.672   9.803   9.209 -0.1107  0.1693  0.1598
 1114ERGO    R415531  10.686   9.689   8.939 -0.4680  0.2499  0.1039
 1114ERGO    R515532  10.838   9.811   9.037 -0.2312  0.0156  0.0348
 1114ERGO    C115533  10.770  10.026   8.730 -0.1884  0.2237  0.1702
 1114ERGO    C215534  10.828  10.176   8.458  0.3319 -0.0349  0.2792
 1115ERGO   ROH15535   8.850  17.678   9.822  0.2568 -0.0110  0.0065
 1115ERGO    R115536   8.900  17.644   9.546  0.1454 -0.0861 -0.0045
 1115ERGO    R215537   8.763  17.459   9.392  0.0952 -0.1408  0.1042
 1115ERGO    R315538   8.709  17.676   9.237  0.0154 -0.1884  0.0641
 1115ERGO    R415539   8.775  17.464   9.046  0.3602 -0.1261  0.1110
 1115ERGO    R515540   8.866  17.661   9.057  0.1710 -0.0419  0.1852
 1115ERGO    C115541   8.731  17.670   8.700  0.4395 -0.1619  0.0772
 1115ERGO    C215542   8.783  17.613   8.350  0.4835  0.1299 -0.2575
 1116ERGO   ROH15543   2.916  17.397  10.366 -0.0153 -0.1426  0.0242
 1116ERGO    R115544   3.058  17.264  10.160 -0.0036 -0.0479 -0.0329
 1116ERGO    R215545   2.942  17.073   9.998  0.0687 -0.1699  0.0312
 1116ERGO    R315546   3.032  17.234   9.799 -0.1621 -0.0972 -0.0130
 1116ERGO    R415547   2.960  16.984   9.665  0.3948 -0.2858  0.0784
 1116ERGO    R515548   3.152  17.087   9.652  0.1882  0.0771  0.1092
 1116ERGO    C115549   3.056  17.084   9.283  0.3680 -0.2852  0.0645
 1116ERGO    C215550   3.088  17.041   8.982  0.0177  0.2268 -0.3695
 1117ERGO   ROH15551   5.770  16.804   6.667 -0.1629  0.0692  0.2626
 1117ERGO    R115552   5.985  16.682   6.806 -0.2315 -0.1331  0.1954
 1117ERGO    R215553   6.103  16.797   7.026 -0.0314 -0.2270  0.1408
 1117ERGO    R315554   6.046  16.558   7.142 -0.2315 -0.1589  0.1856
 1117ERGO    R415555   6.244  16.683   7.321  0.0288 -0.3759  0.0554
 1117ERGO    R515556   6.256  16.484   7.232 -0.2563 -0.3964  0.0536
 1117ERGO    C115557   6.271  16.392   7.602 -0.1240 -0.3984  0.0477
 1117ERGO    C215558   6.202  16.465   8.067 -0.0903 -0.0790 -0.4094
 1118ERGO   ROH15559   1.589  15.807  10.197  0.1878  0.0753  0.0552
 1118ERGO    R115560   1.606  15.974   9.970  0.0195  0.0437  0.0182
 1118ERGO    R215561   1.776  15.922   9.759  0.0534  0.1536  0.0163
 1118ERGO    R315562   1.548  15.940   9.612  0.0239 -0.0849  0.0298
 1118ERGO    R415563   1.765  15.965   9.416 -0.0108  0.3057  0.0369
 1118ERGO    R515564   1.599  16.103   9.443 -0.2002  0.0676  0.1072
 1118ERGO    C115565   1.545  16.007   9.078 -0.0759  0.1704  0.0613
 1118ERGO    C215566   1.541  15.910   8.742 -0.2206 -0.0483 -0.0986
 1119ERGO   ROH15567   1.409  15.830   6.723 -0.1750  0.0279 -0.0468
 1119ERGO    R115568   1.334  15.734   6.979 -0.0959  0.0694 -0.0079
 1119ERGO    R215569   1.510  15.603   7.147 -0.0422  0.1075 -0.0379
 1119ERGO    R315570   1.433  15.794   7.324  0.0016  0.1332 -0.0459
 1119ERGO    R415571   1.523  15.571   7.491 -0.1815  0.0591 -0.0359
 1119ERGO    R515572   1.331  15.672   7.503 -0.1321  0.1676 -0.0947
 1119ERGO    C115573   1.459  15.732   7.857 -0.2215  0.0551 -0.0422
 1119ERGO    C215574   1.504  15.878   8.147 -0.0483 -0.0589  0.1351
 1120ERGO   ROH15575   4.783   9.834   9.796  0.0416  0.1454  0.2008
 1120ERGO    R115576   4.783  10.076   9.649 -0.4680  0.0637  0.0536
 1120ERGO    R215577   4.981  10.140   9.467 -0.2914  0.5898  0.4309
 1120ERGO    R315578   4.770  10.173   9.298 -0.0799 -0.2070 -0.0474
 1120ERGO    R415579   4.995  10.305   9.164 -0.2416  0.9332  0.6131
 1120ERGO    R515580   4.800  10.393   9.208 -0.8020  0.0577  0.2464
 1120ERGO    C115581   4.806  10.432   8.829 -0.0140  0.3852  0.2704
 1120ERGO    C215582   4.852  10.548   8.537  0.1224  0.1787  0.2938
 1121ERGO   ROH15583   2.442  18.396   6.858  0.0004 -0.4499 -0.3438
 1121ERGO    R115584   2.489  18.362   7.135  0.2363 -0.3770 -0.3718
 1121ERGO    R215585   2.287  18.378   7.323  0.4763  0.2726 -0.1366
 1121ERGO    R315586   2.379  18.133   7.395 -0.0632  0.0706 -0.0913
 1121ERGO    R415587   2.337  18.274   7.648  0.5725  0.3486 -0.1271
 1121ERGO    R515588   2.520  18.176   7.584  0.2619 -0.1643 -0.2741
 1121ERGO    C115589   2.452  17.983   7.906  0.1220  0.2030 -0.0790
 1121ERGO    C215590   2.420  17.876   8.180 -0.5597  0.2092 -0.1918
 1122ERGO   ROH15591   0.098  16.860   6.358 -0.0011  0.1074  0.0524
 1122ERGO    R115592  -0.009  16.888   6.618  0.0178  0.0408  0.0685
 1122ERGO    R215593   0.141  16.983   6.831  0.0001  0.1024  0.0569
 1122ERGO    R315594  -0.063  17.161   6.853 -0.0836  0.0021  0.0901
 1122ERGO    R415595   0.101  17.207   7.091 -0.0280  0.1273  0.0297
 1122ERGO    R515596  -0.113  17.167   7.087 -0.0095  0.0176  0.1056
 1122ERGO    C115597  -0.114  17.505   7.263 -0.1231  0.0478  0.0450
 1122ERGO    C215598  -0.113  17.933   7.405 -0.2467 -0.1448 -0.1180
 1123ERGO   ROH15599   5.918   7.868   5.913 -0.2659 -0.2786 -0.0609
 1123ERGO    R115600   5.981   7.979   6.165 -0.3738 -0.1341 -0.0958
 1123ERGO    R215601   5.972   7.832   6.399 -0.2007 -0.0788 -0.0527
 1123ERGO    R315602   6.228   7.919   6.426 -0.2911  0.2114 -0.0893
 1123ERGO    R415603   6.120   7.921   6.699 -0.1340 -0.3188 -0.0117
 1123ERGO    R515604   6.216   8.087   6.596 -0.4075 -0.0421  0.1624
 1123ERGO    C115605   6.446   8.054   6.898 -0.1801 -0.1861 -0.0221
 1123ERGO    C215606   6.797   7.907   7.041  0.2313  0.1093 -0.0171
 1124ERGO   ROH15607   6.520   9.385   6.277 -0.0428  0.2145 -0.1164
 1124ERGO    R115608   6.772   9.446   6.391 -0.1199  0.1866  0.0718
 1124ERGO    R215609   6.841   9.371   6.648 -0.2056 -0.0961  0.0132
 1124ERGO    R315610   7.055   9.258   6.523 -0.0976  0.1478 -0.0283
 1124ERGO    R415611   7.167   9.384   6.763 -0.3131 -0.3689  0.3696
 1124ERGO    R515612   7.233   9.415   6.557 -0.1091  0.0689  0.4845
 1124ERGO    C115613   7.557   9.287   6.712 -0.2744 -0.2987  0.5381
 1124ERGO    C215614   7.865   9.275   6.875 -0.0916 -0.0127 -0.1863
 1125ERGO   ROH15615   3.480   6.689   9.747 -0.0379 -0.2756 -0.0222
 1125ERGO    R115616   3.621   6.663   9.502 -0.0168 -0.2953 -0.0103
 1125ERGO    R215617   3.569   6.460   9.321 -0.1835 -0.1659 -0.1246
 1125ERGO    R315618   3.537   6.667   9.148  0.0446 -0.0444 -0.0214
 1125ERGO    R415619   3.643   6.452   8.983  0.0458  0.0163 -0.0787
 1125ERGO    R515620   3.724   6.653   9.000  0.1340 -0.0412  0.0998
 1125ERGO    C115621   3.657   6.642   8.625  0.3935  0.2364  0.0448
 1125ERGO    C215622   3.689   6.766   8.192  0.0116 -0.2873 -0.3864
 1126ERGO   ROH15623  16.697  12.902  10.166 -0.0712  0.0202  0.1837
 1126ERGO    R115624  16.687  12.929   9.884 -0.1388 -0.0200  0.1826
 1126ERGO    R215625  16.843  13.110   9.747 -0.2309  0.0144  0.1283
 1126ERGO    R315626  16.918  12.890   9.606 -0.1834  0.0234  0.1378
 1126ERGO    R415627  17.040  13.115   9.463 -0.1130  0.0388  0.2096
 1126ERGO    R515628  16.912  12.961   9.377 -0.0876  0.0503  0.1404
 1126ERGO    C115629  17.225  12.911   9.165  0.0002  0.0614  0.2658
 1126ERGO    C215630  17.363  12.955   8.871  0.0065 -0.4243  0.2329
 1127ERGO   ROH15631   5.890  18.005   6.064  0.0488 -0.0832  0.0969
 1127ERGO    R115632   5.816  18.036   6.336 -0.0813 -0.2201  0.0781
 1127ERGO    R215633   5.771  17.821   6.503  0.2878 -0.3105  0.0678
 1127ERGO    R315634   5.954  17.946   6.660  0.0152  0.0484  0.1149
 1127ERGO    R415635   5.799  17.780   6.845  0.3150 -0.3086  0.0657
 1127ERGO    R515636   5.837  17.994   6.863 -0.1244 -0.2227  0.1050
 1127ERGO    C115637   5.988  17.873   7.191  0.0749  0.0293  0.1087
 1127ERGO    C215638   5.999  17.673   7.496 -0.0739  0.4760  0.0374
 1128ERGO   ROH15639   0.918   4.505   6.263 -0.1143  0.1363  0.0996
 1128ERGO    R115640   0.896   4.578   6.535 -0.1236  0.1005  0.1089
 1128ERGO    R215641   0.740   4.438   6.715 -0.0837  0.0404  0.1000
 1128ERGO    R315642   0.971   4.425   6.857 -0.0745  0.0823  0.0883
 1128ERGO    R415643   0.760   4.355   7.050 -0.0604  0.1707  0.1313
 1128ERGO    R515644   0.912   4.510   7.074 -0.0508  0.1696  0.0592
 1128ERGO    C115645   0.989   4.294   7.378 -0.0382  0.2859  0.1386
 1128ERGO    C215646   0.932   4.290   7.766  0.1243  0.0307 -0.1421
 1129ERGO   ROH15647  13.542   3.976   6.001  0.2790 -0.1010  0.0778
 1129ERGO    R115648  13.624   4.050   6.262 -0.0067  0.0996  0.1161
 1129ERGO    R215649  13.444   4.089   6.468 -0.2049 -0.2780  0.0316
 1129ERGO    R315650  13.602   3.907   6.596  0.1397  0.0652  0.1094
 1129ERGO    R415651  13.422   4.007   6.804 -0.2106 -0.3633  0.0101
 1129ERGO    R515652  13.640   4.002   6.812 -0.1999  0.1319  0.1381
 1129ERGO    C115653  13.557   3.790   7.118  0.1095 -0.0908  0.0705
 1129ERGO    C215654  13.574   3.587   7.455  0.0879  0.2194  0.0570
 1130ERGO   ROH15655   2.117  13.125  10.224  0.0268 -0.0271 -0.1359
 1130ERGO    R115656   1.977  13.052   9.989 -0.0936  0.0151 -0.0774
 1130ERGO    R215657   1.799  13.222   9.864  0.0348  0.1336 -0.0983
 1130ERGO    R315658   1.954  13.172   9.646 -0.0597 -0.0906 -0.1174
 1130ERGO    R415659   1.700  13.267   9.535  0.0932  0.3983 -0.0827
 1130ERGO    R515660   1.803  13.081   9.484 -0.2369  0.2193 -0.1352
 1130ERGO    C115661   1.788  13.245   9.140  0.0385  0.3421 -0.0915
 1130ERGO    C215662   1.785  13.211   8.797  0.1205 -0.0376 -0.1669
 1131ERGO   ROH15663   7.419   9.682   9.592 -0.0205  0.0280 -0.0189
 1131ERGO    R115664   7.248   9.730   9.371 -0.2026  0.1352  0.1418
 1131ERGO    R215665   7.144   9.979   9.315  0.0722  0.2517  0.1206
 1131ERGO    R315666   7.254   9.935   9.071 -0.2503 -0.0402  0.0203
 1131ERGO    R415667   7.021  10.104   9.018 -0.0340  0.3168  0.1917
 1131ERGO    R515668   7.066   9.912   8.924 -0.4428  0.1970  0.2247
 1131ERGO    C115669   7.053  10.135   8.615 -0.3986  0.0807  0.1389
 1131ERGO    C215670   6.912  10.463   8.342 -0.1969 -0.1420  0.2680
 1132ERGO   ROH15671   5.369   3.255   5.936  0.0758  0.1054 -0.1631
 1132ERGO    R115672   5.319   3.463   6.121 -0.0311  0.0612 -0.1402
 1132ERGO    R215673   5.395   3.448   6.386 -0.1611  0.0073 -0.1005
 1132ERGO    R315674   5.518   3.684   6.331 -0.1482  0.0258  0.0078
 1132ERGO    R415675   5.410   3.719   6.601 -0.3829  0.0139 -0.0920
 1132ERGO    R515676   5.377   3.850   6.430 -0.2540  0.0061 -0.1169
 1132ERGO    C115677   5.534   4.097   6.674 -0.5000  0.0352  0.0145
 1132ERGO    C215678   5.658   4.187   7.049  0.1987 -0.1372  0.0663
 1133ERGO   ROH15679  11.571  15.481  10.102 -0.0595 -0.2797  0.1210
 1133ERGO    R115680  11.691  15.424   9.852 -0.1737 -0.0765  0.0151
 1133ERGO    R215681  11.670  15.177   9.729  0.0163 -0.0762 -0.0364
 1133ERGO    R315682  11.578  15.326   9.521 -0.3093 -0.1156  0.0741
 1133ERGO    R415683  11.648  15.068   9.403  0.2869  0.1301 -0.1263
 1133ERGO    R515684  11.718  15.263   9.337 -0.1512  0.3451  0.0295
 1133ERGO    C115685  11.550  15.143   9.016  0.1388  0.2134 -0.0749
 1133ERGO    C215686  11.393  15.102   8.740 -0.0800 -0.3079  0.1326
 1134ERGO   ROH15687   4.586   6.202   9.384 -0.0870  0.1142  0.2382
 1134ERGO    R115688   4.570   6.299   9.119 -0.0453  0.0725  0.2214
 1134ERGO    R215689   4.747   6.222   8.921 -0.0227  0.0355  0.2634
 1134ERGO    R315690   4.519   6.157   8.787 -0.0038  0.0250  0.2336
 1134ERGO    R415691   4.731   6.140   8.586  0.0115  0.1918  0.2220
 1134ERGO    R515692   4.547   6.256   8.571 -0.0312  0.1425  0.2784
 1134ERGO    C115693   4.508   6.032   8.265  0.0492  0.2729  0.1698
 1134ERGO    C215694   4.473   6.086   7.935 -0.0578 -0.0367 -0.4448
 1135ERGO   ROH15695   2.798   2.791   9.936  0.1429  0.1148 -0.1809
 1135ERGO    R115696   2.939   2.745   9.695  0.1047  0.0606 -0.1938
 1135ERGO    R215697   3.036   2.497   9.624  0.0844  0.0414 -0.1593
 1135ERGO    R315698   2.895   2.542   9.397  0.0506  0.0018 -0.1458
 1135ERGO    R415699   3.092   2.337   9.323 -0.0448 -0.1047 -0.1067
 1135ERGO    R515700   3.058   2.528   9.222  0.0058 -0.1332 -0.1772
 1135ERGO    C115701   2.991   2.287   8.933 -0.1517 -0.2269 -0.0634
 1135ERGO    C215702   3.043   2.141   8.631 -0.1222  0.2087  0.3200
 1136ERGO   ROH15703  18.421   0.941   6.515  0.1313  0.0199  0.0363
 1136ERGO    R115704  18.399   0.828   6.774  0.1044 -0.0157  0.0193
 1136ERGO    R215705  18.557   0.616   6.858  0.0850 -0.0405  0.0023
 1136ERGO    R315706  18.617   0.785   7.062  0.0812 -0.0711  0.0278
 1136ERGO    R415707  18.715   0.524   7.151  0.1266 -0.0707 -0.0303
 1136ERGO    R515708  18.580   0.655   7.260  0.1201 -0.1114  0.0068
 1136ERGO    C115709  18.863   0.628   7.513  0.1472 -0.1170 -0.0254
 1136ERGO    C215710  19.006   0.821   7.791 -0.4172 -0.0040  0.0635
 1137ERGO   ROH15711   4.919   8.732   9.479  0.1529  0.0065 -0.0268
 1137ERGO    R115712   4.864   8.821   9.216 -0.0620 -0.0338  0.0018
 1137ERGO    R215713   5.059   8.843   9.022 -0.1002  0.4890  0.0007
 1137ERGO    R315714   4.890   8.685   8.879  0.2585  0.1254 -0.0398
 1137ERGO    R415715   5.024   8.852   8.679 -0.1495  0.5164  0.0068
 1137ERGO    R515716   4.809   8.829   8.705 -0.0988 -0.0068  0.0137
 1137ERGO    C115717   4.845   8.710   8.344  0.1586  0.1911 -0.0275
 1137ERGO    C215718   4.844   8.885   8.060 -0.0167  0.2441 -0.1656
 1138ERGO   ROH15719   9.920  11.342   6.444 -0.0261 -0.1195 -0.0691
 1138ERGO    R115720  10.012  11.301   6.708  0.0010 -0.0275 -0.0638
 1138ERGO    R215721   9.841  11.248   6.919  0.0246  0.0119 -0.0323
 1138ERGO    R315722  10.004  11.032   6.953  0.0567  0.0444  0.0173
 1138ERGO    R415723   9.838  11.040   7.195  0.0056  0.0311 -0.0187
 1138ERGO    R515724  10.056  11.034   7.187  0.0076  0.0702  0.0273
 1138ERGO    C115725   9.989  10.717   7.388  0.0246  0.0726  0.0357
 1138ERGO    C215726   9.885  10.511   7.561  0.1377  0.0302  0.1544
 1139ERGO   ROH15727   1.262   8.627   9.804 -0.3083  0.1119 -0.0973
 1139ERGO    R115728   1.436   8.560   9.591 -0.1893  0.4090 -0.0965
 1139ERGO    R215729   1.395   8.339   9.430  0.3179  0.1996  0.0568
 1139ERGO    R315730   1.410   8.523   9.230 -0.1892  0.1126 -0.0706
 1139ERGO    R415731   1.532   8.280   9.118  0.6443  0.3692  0.1623
 1139ERGO    R515732   1.621   8.479   9.125  0.0196  0.6876  0.0559
 1139ERGO    C115733   1.625   8.417   8.749  0.3583  0.3865  0.1041
 1139ERGO    C215734   1.613   8.382   8.473 -0.3332  0.0693  0.3432
 1140ERGO   ROH15735   7.211   1.084   9.766  0.1071  0.1227 -0.0310
 1140ERGO    R115736   7.210   0.916   9.538 -0.0674  0.1017 -0.0172
 1140ERGO    R215737   6.985   0.878   9.382 -0.1070  0.3377 -0.0275
 1140ERGO    R315738   7.151   0.956   9.181 -0.0062  0.1402 -0.0225
 1140ERGO    R415739   6.940   0.802   9.048  0.1459 -0.1140  0.0344
 1140ERGO    R515740   7.155   0.769   9.032  0.1679 -0.0534  0.2193
 1140ERGO    C115741   7.070   0.830   8.665  0.3878 -0.5625  0.0752
 1140ERGO    C215742   7.055   0.843   8.358 -0.2409 -0.2426 -0.2389
 1141ERGO   ROH15743  14.868   3.635   6.353  0.1779 -0.0085  0.0261
 1141ERGO    R115744  14.940   3.495   6.589  0.2295 -0.0392 -0.0080
 1141ERGO    R215745  15.196   3.501   6.694  0.1808  0.1894  0.1014
 1141ERGO    R315746  15.066   3.580   6.919 -0.0014 -0.0517  0.0854
 1141ERGO    R415747  15.280   3.407   7.016  0.2243  0.2301  0.1022
 1141ERGO    R515748  15.069   3.388   7.061  0.2339 -0.0866  0.0376
 1141ERGO    C115749  15.208   3.427   7.414  0.0786  0.0275  0.0876
 1141ERGO    C215750  15.443   3.440   7.699  0.1454 -0.1458 -0.3512
 1142ERGO   ROH15751  11.978  15.501   6.582 -0.1077 -0.0521  0.0060
 1142ERGO    R115752  11.963  15.432   6.856 -0.0795  0.0472  0.0319
 1142ERGO    R215753  12.116  15.232   6.966 -0.2699 -0.0962  0.0265
 1142ERGO    R315754  12.190  15.427   7.140  0.0290 -0.1317 -0.0540
 1142ERGO    R415755  12.217  15.176   7.292 -0.6051 -0.1147  0.1319
 1142ERGO    R515756  12.103  15.353   7.352 -0.2792  0.1784 -0.0587
 1142ERGO    C115757  12.346  15.326   7.645 -0.5196 -0.1587  0.1177
 1142ERGO    C215758  12.357  15.164   7.921  0.0356 -0.0370  0.6061
 1143ERGO   ROH15759  12.367   2.810   9.936 -0.0970  0.0668 -0.0714
 1143ERGO    R115760  12.504   2.652   9.745 -0.0899 -0.0105 -0.0017
 1143ERGO    R215761  12.377   2.460   9.592 -0.1066  0.0121 -0.0094
 1143ERGO    R315762  12.487   2.598   9.385  0.0101 -0.0618  0.0001
 1143ERGO    R415763  12.329   2.387   9.258 -0.3718  0.2219 -0.0210
 1143ERGO    R515764  12.539   2.431   9.223 -0.3147 -0.0792 -0.0966
 1143ERGO    C115765  12.403   2.475   8.869 -0.4169  0.2746 -0.0189
 1143ERGO    C215766  12.329   2.428   8.578 -0.0477  0.2126 -0.1956
 1144ERGO   ROH15767  15.557   9.915   7.117  0.1213  0.0349  0.0983
 1144ERGO    R115768  15.708   9.741   7.281  0.1347  0.0166  0.0661
 1144ERGO    R215769  15.706   9.757   7.557  0.1273 -0.0389  0.0676
 1144ERGO    R315770  15.639   9.494   7.540  0.1542 -0.0430  0.0153
 1144ERGO    R415771  15.827   9.508   7.764  0.1748 -0.0709  0.0023
 1144ERGO    R515772  15.842   9.377   7.590  0.1732 -0.0315 -0.0293
 1144ERGO    C115773  15.835   9.116   7.868  0.2277 -0.0934 -0.0848
 1144ERGO    C215774  15.684   8.827   8.043  0.2293 -0.0516 -0.0867
 1145ERGO   ROH15775   6.446   7.492   9.199 -0.3686  0.0315  0.1189
 1145ERGO    R115776   6.480   7.436   8.924 -0.3364  0.0208  0.1259
 1145ERGO    R215777   6.283   7.486   8.736 -0.2560  0.1557  0.0823
 1145ERGO    R315778   6.481   7.626   8.613 -0.1352  0.0323  0.1309
 1145ERGO    R415779   6.299   7.551   8.397 -0.2294  0.2898  0.1081
 1145ERGO    R515780   6.513   7.514   8.404 -0.2560  0.0900  0.0765
 1145ERGO    C115781   6.493   7.721   8.085 -0.1004  0.2522  0.1685
 1145ERGO    C215782   6.459   8.065   8.014  0.2159 -0.0779 -0.0309
 1146ERGO   ROH15783   0.574  12.520  10.132  0.0529 -0.1109 -0.0383
 1146ERGO    R115784   0.649  12.580   9.866 -0.0087 -0.0498 -0.0417
 1146ERGO    R215785   0.837  12.433   9.728  0.0968  0.0965 -0.0531
 1146ERGO    R315786   0.638  12.411   9.544  0.1022 -0.0545 -0.0435
 1146ERGO    R415787   0.881  12.463   9.386  0.0619  0.1027 -0.0575
 1146ERGO    R515788   0.694  12.575   9.377 -0.0177 -0.0265 -0.0577
 1146ERGO    C115789   0.720  12.460   9.015  0.0467 -0.0356 -0.0511
 1146ERGO    C215790   0.722  12.467   8.685 -0.0693 -0.0329 -0.1197
 1147ERGO   ROH15791   4.019   8.281   9.601  0.1613  0.0219 -0.1132
 1147ERGO    R115792   4.145   8.229   9.353  0.1275 -0.0089 -0.1238
 1147ERGO    R215793   4.072   8.018   9.190  0.1067 -0.0293 -0.0861
 1147ERGO    R315794   4.045   8.214   9.004  0.0804 -0.0543 -0.1089
 1147ERGO    R415795   4.133   7.979   8.852  0.0932 -0.0680 -0.0843
 1147ERGO    R515796   4.226   8.176   8.851  0.0769 -0.0590 -0.1132
 1147ERGO    C115797   4.143   8.140   8.480  0.0605 -0.1140 -0.1044
 1147ERGO    C215798   4.047   8.169   8.164 -0.1816  0.2270 -0.1556
 1148ERGO   ROH15799   7.803   9.904   6.220 -0.0106  0.2593 -0.0270
 1148ERGO    R115800   7.643   9.799   6.429 -0.0821  0.3138 -0.0565
 1148ERGO    R215801   7.743   9.748   6.680 -0.0903  0.0760 -0.1096
 1148ERGO    R315802   7.537   9.906   6.760  0.0843  0.2446  0.0232
 1148ERGO    R415803   7.577   9.717   6.982 -0.1601 -0.0510 -0.1585
 1148ERGO    R515804   7.390   9.757   6.876 -0.1095  0.2841 -0.1522
 1148ERGO    C115805   7.286   9.848   7.232 -0.0368  0.0333 -0.0624
 1148ERGO    C215806   7.240   9.659   7.566 -0.1277 -0.4651  0.0045
 1149ERGO   ROH15807  15.478   8.785   9.837 -0.0874 -0.1650  0.1675
 1149ERGO    R115808  15.450   8.722   9.562 -0.1813 -0.0852  0.1586
 1149ERGO    R215809  15.346   8.900   9.379  0.0159  0.0710  0.1976
 1149ERGO    R315810  15.578   8.850   9.247 -0.0498 -0.1820  0.1716
 1149ERGO    R415811  15.391   8.943   9.039  0.0131 -0.0126  0.1863
 1149ERGO    R515812  15.507   8.757   9.037 -0.1747 -0.1347  0.1909
 1149ERGO    C115813  15.636   8.920   8.717 -0.0501 -0.2988  0.1553
 1149ERGO    C215814  15.786   8.960   8.492  0.1230  0.4608 -0.0122
 1150ERGO   ROH15815  13.291   9.051   9.393 -0.1272  0.3662  0.0711
 1150ERGO    R115816  13.430   8.965   9.163 -0.0460  0.2882  0.1486
 1150ERGO    R215817  13.308   8.935   8.916 -0.0105 -0.0055  0.1611
 1150ERGO    R315818  13.507   9.101   8.834 -0.1332  0.0861  0.0438
 1150ERGO    R415819  13.445   8.937   8.599 -0.1113 -0.0196  0.1168
 1150ERGO    R515820  13.641   8.965   8.689 -0.0998  0.1231  0.0433
 1150ERGO    C115821  13.712   9.094   8.337 -0.2852  0.0583 -0.0191
 1150ERGO    C215822  13.909   9.331   8.320 -0.0337  0.1106 -0.3140
 1151ERGO   ROH15823  10.308   4.629   9.212  0.0635 -0.1907 -0.0228
 1151ERGO    R115824  10.291   4.504   8.959  0.1194 -0.1608 -0.0412
 1151ERGO    R215825  10.126   4.596   8.757  0.0518 -0.2261 -0.0145
 1151ERGO    R315826  10.356   4.598   8.613  0.0411 -0.0691 -0.0317
 1151ERGO    R415827  10.152   4.499   8.427  0.0527 -0.0132 -0.0786
 1151ERGO    R515828  10.341   4.402   8.475  0.0859  0.0101 -0.1527
 1151ERGO    C115829  10.384   4.444   8.099  0.0433  0.2582 -0.1320
 1151ERGO    C215830  10.468   4.490   7.858  0.0243  0.2152  0.1150
 1152ERGO   ROH15831  13.745  10.046   6.039 -0.0751 -0.3033  0.0382
 1152ERGO    R115832  13.833   9.974   6.299  0.1451 -0.1043  0.0192
 1152ERGO    R215833  14.096   9.912   6.355  0.2366  0.2184 -0.0958
 1152ERGO    R315834  14.068  10.105   6.544  0.1298  0.2510 -0.1450
 1152ERGO    R415835  14.284   9.934   6.644 -0.0471  0.1286  0.1013
 1152ERGO    R515836  14.103   9.991   6.751 -0.1473  0.2335 -0.0928
 1152ERGO    C115837  14.367  10.129   6.990 -0.3126  0.1069  0.1698
 1152ERGO    C215838  14.576  10.234   7.274  0.0608  0.1494  0.1019
 1153ERGO   ROH15839  10.254  18.432   6.315  0.1776  0.2094  0.0129
 1153ERGO    R115840  10.266  18.482   6.593  0.1536  0.1574  0.0219
 1153ERGO    R215841  10.042  18.542   6.743  0.1412  0.0927  0.0156
 1153ERGO    R315842  10.127  18.333   6.895  0.1613  0.0802 -0.0098
 1153ERGO    R415843  10.008  18.521   7.086 -0.1364 -0.0749 -0.0169
 1153ERGO    R515844  10.209  18.435   7.095 -0.0745  0.0576  0.1085
 1153ERGO    C115845  10.069  18.314   7.429 -0.2792 -0.1841 -0.0598
 1153ERGO    C215846  10.150  18.388   7.740  0.1753  0.0797 -0.0627
 1154ERGO   ROH15847   7.568  16.992  10.187 -0.3469  0.1976  0.0035
 1154ERGO    R115848   7.721  16.984   9.949 -0.1925  0.1869  0.1028
 1154ERGO    R215849   7.703  16.777   9.768  0.0064  0.1264  0.1549
 1154ERGO    R315850   7.654  16.978   9.591  0.0384  0.0516  0.0585
 1154ERGO    R415851   7.702  16.742   9.424  0.0164 -0.0410  0.1704
 1154ERGO    R515852   7.804  16.935   9.409  0.0435 -0.0567  0.0838
 1154ERGO    C115853   7.656  16.911   9.058  0.0522 -0.2088  0.0888
 1154ERGO    C215854   7.525  16.936   8.735 -0.0531 -0.0489 -0.0261
 1155ERGO   ROH15855  12.785  13.630   9.801 -0.0189 -0.0113 -0.0057
 1155ERGO    R115856  12.848  13.695   9.533 -0.0069  0.0089  0.0017
 1155ERGO    R215857  12.851  13.506   9.331  0.0932  0.0059  0.0038
 1155ERGO    R315858  12.680  13.680   9.211  0.0425 -0.0612 -0.0205
 1155ERGO    R415859  12.791  13.520   8.991  0.1434 -0.0092 -0.0055
 1155ERGO    R515860  12.788  13.738   9.006  0.0520 -0.0113 -0.0004
 1155ERGO    C115861  12.594  13.691   8.680  0.1250 -0.0810 -0.0339
 1155ERGO    C215862  12.528  13.777   8.412 -0.0109 -0.1573 -0.1867
 1156ERGO   ROH15863   9.485   0.713   6.110 -0.0316  0.3220  0.0153
 1156ERGO    R115864   9.451   0.583   6.360 -0.0387  0.1324 -0.0814
 1156ERGO    R215865   9.512   0.705   6.600  0.0796 -0.0927  0.0127
 1156ERGO    R315866   9.255   0.638   6.661  0.0581 -0.0129  0.0068
 1156ERGO    R415867   9.373   0.721   6.917  0.1072 -0.1893  0.0294
 1156ERGO    R515868   9.271   0.533   6.876  0.0267 -0.1207 -0.0490
 1156ERGO    C115869   9.052   0.667   7.158  0.1032 -0.1705  0.0335
 1156ERGO    C215870   9.036   0.715   7.509 -0.3014 -0.1198  0.0007
 1157ERGO   ROH15871  16.707   1.385  10.053  0.0196  0.0528 -0.1038
 1157ERGO    R115872  16.658   1.249   9.810  0.0217  0.0632 -0.1096
 1157ERGO    R215873  16.508   1.360   9.605 -0.0093  0.0544 -0.0877
 1157ERGO    R315874  16.729   1.304   9.457 -0.0146  0.0978 -0.1125
 1157ERGO    R415875  16.522   1.369   9.260 -0.0983 -0.0862 -0.0964
 1157ERGO    R515876  16.644   1.189   9.265 -0.0071 -0.0283 -0.0448
 1157ERGO    C115877  16.737   1.323   8.920 -0.1549 -0.1273 -0.1248
 1157ERGO    C215878  16.591   1.308   8.563  0.0985 -0.0188 -0.4251
 1158ERGO   ROH15879   8.243   3.181   9.580  0.0767  0.0697 -0.1279
 1158ERGO    R115880   8.265   3.231   9.302  0.1192 -0.0171 -0.1399
 1158ERGO    R215881   8.428   3.082   9.137  0.1231 -0.0840 -0.0714
 1158ERGO    R315882   8.200   3.048   8.994  0.1402 -0.1020 -0.0954
 1158ERGO    R415883   8.416   2.989   8.804  0.1771  0.0927 -0.1241
 1158ERGO    R515884   8.254   3.132   8.776  0.1150  0.0427 -0.0497
 1158ERGO    C115885   8.194   2.904   8.476  0.2247  0.1787 -0.1774
 1158ERGO    C215886   8.108   2.880   8.179 -0.3410 -0.2668  0.0356
 1159ERGO   ROH15887  11.923   6.330   5.938  0.2045  0.1855  0.0235
 1159ERGO    R115888  11.824   6.354   6.202  0.0813  0.0459 -0.0085
 1159ERGO    R215889  11.896   6.180   6.403  0.1128  0.0329 -0.0304
 1159ERGO    R315890  11.966   6.408   6.533 -0.0867  0.0424  0.0644
 1159ERGO    R415891  11.919   6.211   6.747  0.1998 -0.1198 -0.0211
 1159ERGO    R515892  11.827   6.409   6.729 -0.0195 -0.2074  0.1151
 1159ERGO    C115893  11.998   6.444   7.069  0.0632 -0.1998  0.0734
 1159ERGO    C215894  11.966   6.397   7.448  0.0511 -0.2045  0.0818
 1160ERGO   ROH15895  13.398  12.347   9.825 -0.0676  0.2431  0.0548
 1160ERGO    R115896  13.436  12.425   9.556 -0.1100  0.1919  0.0345
 1160ERGO    R215897  13.612  12.625   9.482 -0.1219  0.1740 -0.0299
 1160ERGO    R315898  13.712  12.432   9.320 -0.1484  0.1457 -0.0139
 1160ERGO    R415899  13.757  12.682   9.174 -0.0800  0.1407 -0.0170
 1160ERGO    R515900  13.655  12.504   9.099 -0.1142  0.1566 -0.0229
 1160ERGO    C115901  13.936  12.534   8.841 -0.0804  0.0947  0.0057
 1160ERGO    C215902  14.094  12.512   8.474 -0.0324  0.4063  0.1771
 1161ERGO   ROH15903  12.842  18.133   9.884 -0.0833  0.2745  0.0927
 1161ERGO    R115904  12.672  18.216   9.674 -0.0064  0.3886  0.0740
 1161ERGO    R215905  12.764  18.358   9.456  0.1709  0.0841 -0.0603
 1161ERGO    R315906  12.647  18.157   9.315 -0.1851  0.1562  0.1227
 1161ERGO    R415907  12.728  18.353   9.112  0.2466 -0.2050 -0.0656
 1161ERGO    R515908  12.528  18.269   9.140  0.0719  0.2060 -0.0215
 1161ERGO    C115909  12.597  18.161   8.780 -0.0437 -0.3057  0.1032
 1161ERGO    C215910  12.427  18.298   8.537 -0.0980 -0.1035 -0.0213
 1162ERGO   ROH15911   1.795   2.802   6.446 -0.0925 -0.0126  0.1717
 1162ERGO    R115912   1.614   2.843   6.659 -0.3036 -0.4624  0.0906
 1162ERGO    R215913   1.516   2.636   6.815  0.4354 -0.6925  0.2842
 1162ERGO    R315914   1.611   2.788   7.019 -0.1520 -0.1030  0.1517
 1162ERGO    R415915   1.465   2.571   7.150  0.4444 -0.4210  0.3401
 1162ERGO    R515916   1.436   2.785   7.182 -0.2540 -0.4405  0.0463
 1162ERGO    C115917   1.524   2.677   7.537 -0.1018  0.2906  0.2482
 1162ERGO    C215918   1.679   2.375   7.692  0.0878 -0.2618 -0.0753
 1163ERGO   ROH15919   0.020   1.861   6.762  0.0362 -0.0123 -0.0659
 1163ERGO    R115920   0.013   1.753   7.023  0.0263 -0.1205 -0.1098
 1163ERGO    R215921   0.015   1.912   7.249  0.1558 -0.2168 -0.0412
 1163ERGO    R315922  -0.209   1.772   7.311  0.0895 -0.1201 -0.0611
 1163ERGO    R415923  -0.138   1.911   7.559  0.1307 -0.1569 -0.0535
 1163ERGO    R515924  -0.173   1.697   7.536  0.0389 -0.1409 -0.0603
 1163ERGO    C115925  -0.438   1.778   7.797  0.0536 -0.0312 -0.0793
 1163ERGO    C215926  -0.717   1.762   7.914  0.0224 -0.2949 -0.1952
 1164ERGO   ROH15927   9.168  10.717   9.718  0.1900  0.0989  0.0116
 1164ERGO    R115928   9.153  10.650   9.443  0.0606  0.1030  0.0170
 1164ERGO    R215929   8.925  10.691   9.292  0.0314  0.2261  0.0933
 1164ERGO    R315930   9.095  10.828   9.131  0.0522  0.1305  0.0340
 1164ERGO    R415931   8.973  10.625   8.957 -0.0135  0.1016  0.1105
 1164ERGO    R515932   9.187  10.660   8.986 -0.0018  0.0585  0.0815
 1164ERGO    C115933   9.162  10.716   8.609 -0.0202 -0.0607  0.0650
 1164ERGO    C215934   9.047  10.625   8.316 -0.2362 -0.1716  0.2389
 1165ERGO   ROH15935   9.857  17.456   9.939 -0.2399 -0.0582 -0.0227
 1165ERGO    R115936   9.909  17.588   9.695 -0.2737 -0.0095 -0.0039
 1165ERGO    R215937  10.032  17.463   9.482  0.0446  0.1394  0.0858
 1165ERGO    R315938   9.812  17.547   9.346  0.0033 -0.1916 -0.0623
 1165ERGO    R415939  10.004  17.470   9.137  0.2878  0.1517  0.0638
 1165ERGO    R515940   9.901  17.662   9.155 -0.0374 -0.0138  0.0243
 1165ERGO    C115941   9.780  17.554   8.810  0.3907 -0.1520 -0.0879
 1165ERGO    C215942   9.804  17.441   8.478 -0.2365 -0.1813 -0.2340
 1166ERGO   ROH15943   8.444   7.335   6.200 -0.0116  0.0154  0.2278
 1166ERGO    R115944   8.272   7.295   6.421 -0.2111 -0.0679  0.0628
 1166ERGO    R215945   8.048   7.134   6.408 -0.0928 -0.2385 -0.1378
 1166ERGO    R315946   8.162   7.013   6.623 -0.2088 -0.1138 -0.0058
 1166ERGO    R415947   7.906   6.874   6.586 -0.0402 -0.3335 -0.2357
 1166ERGO    R515948   7.978   6.967   6.769 -0.3071 -0.2518 -0.1822
 1166ERGO    C115949   7.930   6.609   6.891 -0.1184 -0.2718 -0.1687
 1166ERGO    C215950   7.745   6.351   7.181  0.0441 -0.0540  0.1054
 1167ERGO   ROH15951  17.020   2.761   6.362  0.1256 -0.1683 -0.1693
 1167ERGO    R115952  16.871   2.684   6.589  0.1709 -0.0811 -0.1104
 1167ERGO    R215953  16.685   2.480   6.583  0.2136 -0.1206  0.0183
 1167ERGO    R315954  16.832   2.383   6.790  0.2564  0.0140  0.0532
 1167ERGO    R415955  16.561   2.280   6.836  0.2961 -0.0929  0.0817
 1167ERGO    R515956  16.683   2.392   6.978  0.2462  0.0114  0.0483
 1167ERGO    C115957  16.627   2.072   7.178  0.3842  0.0497  0.1514
 1167ERGO    C215958  16.483   1.954   7.489 -0.0629  0.3236  0.3076
 1168ERGO   ROH15959  17.890   3.187   6.379 -0.1632 -0.0692 -0.0271
 1168ERGO    R115960  17.965   3.205   6.652 -0.0650 -0.2633 -0.0393
 1168ERGO    R215961  17.857   3.393   6.824  0.3601 -0.0495  0.0103
 1168ERGO    R315962  17.800   3.174   6.974 -0.0729  0.0409 -0.0108
 1168ERGO    R415963  17.844   3.388   7.169  0.4556 -0.0772  0.0134
 1168ERGO    R515964  17.943   3.194   7.166  0.0359 -0.2999 -0.0502
 1168ERGO    C115965  17.782   3.180   7.511  0.1048 -0.0085 -0.0046
 1168ERGO    C215966  17.718   3.181   7.748  0.0026  0.0930 -0.0532
 1169ERGO   ROH15967   3.969   5.162   9.422 -0.1132 -0.2247  0.1616
 1169ERGO    R115968   3.886   5.009   9.199 -0.1323 -0.1078  0.0874
 1169ERGO    R215969   3.685   5.091   9.029  0.0035  0.0875  0.0168
 1169ERGO    R315970   3.875   5.052   8.838  0.0599 -0.0094  0.0921
 1169ERGO    R415971   3.647   5.168   8.694  0.1411  0.0123 -0.0169
 1169ERGO    R515972   3.751   4.983   8.645  0.1106 -0.0263  0.0662
 1169ERGO    C115973   3.803   5.176   8.320  0.2742 -0.1224  0.0341
 1169ERGO    C215974   3.826   5.220   8.038 -0.0962  0.1793 -0.0654
 1170ERGO   ROH15975   2.071   5.875   9.505 -0.4167 -0.0631  0.0910
 1170ERGO    R115976   2.006   6.028   9.277  0.0578  0.0483  0.0185
 1170ERGO    R215977   2.185   6.073   9.072  0.2878 -0.3964  0.1049
 1170ERGO    R315978   1.985   5.973   8.917  0.1355  0.0196  0.0190
 1170ERGO    R415979   2.187   6.066   8.726  0.4396 -0.4389  0.1065
 1170ERGO    R515980   1.975   6.121   8.729  0.5484  0.0244 -0.0039
 1170ERGO    C115981   2.000   5.968   8.380  0.3850 -0.0730  0.0268
 1170ERGO    C215982   1.919   5.938   8.116  0.1223 -0.1755 -0.0471
 1171ERGO   ROH15983  10.309   6.229   9.338 -0.1065 -0.0046  0.0773
 1171ERGO    R115984  10.147   6.227   9.107 -0.0681  0.0093  0.0497
 1171ERGO    R215985  10.208   6.374   8.881  0.0064 -0.0296  0.0423
 1171ERGO    R315986  10.185   6.132   8.757 -0.0303 -0.0392  0.0672
 1171ERGO    R415987  10.151   6.330   8.543  0.1680 -0.0613  0.0190
 1171ERGO    R515988  10.015   6.167   8.592  0.0731  0.0054 -0.0286
 1171ERGO    C115989  10.096   6.078   8.230  0.2276 -0.0887  0.0288
 1171ERGO    C215990  10.164   5.899   7.976 -0.0075 -0.1834 -0.1401
 1172ERGO   ROH15991  11.443   4.555   9.377 -0.0521 -0.1206  0.0994
 1172ERGO    R115992  11.500   4.365   9.174  0.1924 -0.0265  0.0777
 1172ERGO    R215993  11.317   4.298   8.978  0.2226 -0.3428  0.1612
 1172ERGO    R315994  11.522   4.365   8.811  0.0402  0.0076  0.0655
 1172ERGO    R415995  11.316   4.252   8.635  0.1272 -0.3501  0.1616
 1172ERGO    R515996  11.524   4.190   8.648  0.2536 -0.0009  0.0663
 1172ERGO    C115997  11.507   4.288   8.279 -0.0996 -0.0255  0.0721
 1172ERGO    C215998  11.463   4.281   7.970 -0.0599  0.2530  0.0271
 1173ERGO   ROH15999   8.078  16.352   6.348 -0.0323 -0.1995  0.1871
 1173ERGO    R116000   7.995  16.400   6.615  0.0643  0.0497  0.1733
 1173ERGO    R216001   8.092  16.256   6.829 -0.1764 -0.0388  0.2182
 1173ERGO    R316002   8.154  16.502   6.926  0.2607 -0.1020  0.1275
 1173ERGO    R416003   8.151  16.327   7.162 -0.3405  0.0125  0.2379
 1173ERGO    R516004   8.039  16.512   7.137  0.0701  0.2542  0.0211
 1173ERGO    C116005   8.243  16.599   7.447 -0.0257 -0.0171  0.1642
 1173ERGO    C216006   8.406  16.390   7.733 -0.0429  0.3564 -0.2537
 1174ERGO   ROH16007   0.046  15.622  10.011 -0.1142 -0.1154  0.0646
 1174ERGO    R116008   0.153  15.768   9.793  0.0257 -0.1406  0.1151
 1174ERGO    R216009   0.303  15.649   9.593 -0.1637 -0.2346  0.0237
 1174ERGO    R316010   0.119  15.765   9.431 -0.0560  0.0804  0.1198
 1174ERGO    R416011   0.320  15.653   9.248 -0.3227 -0.2380  0.0156
 1174ERGO    R516012   0.248  15.859   9.253  0.0150 -0.1175  0.0657
 1174ERGO    C116013   0.156  15.765   8.895 -0.3143  0.0557  0.1013
 1174ERGO    C216014   0.290  15.642   8.571 -0.0976  0.1238 -0.0017
 1175ERGO   ROH16015  14.887   0.667   6.462  0.1432 -0.0676  0.3028
 1175ERGO    R116016  14.970   0.703   6.730  0.0977  0.1170  0.2929
 1175ERGO    R216017  15.229   0.771   6.797  0.1033  0.0887  0.2920
 1175ERGO    R316018  15.107   0.974   6.930  0.1392  0.2331  0.1100
 1175ERGO    R416019  15.392   1.007   6.990  0.1277  0.1160  0.2394
 1175ERGO    R516020  15.229   0.994   7.135  0.0427  0.2865  0.1644
 1175ERGO    C116021  15.371   1.336   7.228  0.1756  0.2675  0.0380
 1175ERGO    C216022  15.469   1.729   7.180  0.3274 -0.2525 -0.2755
 1176ERGO   ROH16023   6.043   5.603   9.473  0.1519  0.0449 -0.0607
 1176ERGO    R116024   6.148   5.562   9.213  0.1409  0.0344 -0.0632
 1176ERGO    R216025   5.987   5.520   8.992  0.1329 -0.0085 -0.0482
 1176ERGO    R316026   6.128   5.729   8.890  0.0980  0.0007 -0.0784
 1176ERGO    R416027   6.027   5.585   8.655  0.2972 -0.1722 -0.0625
 1176ERGO    R516028   6.234   5.639   8.695  0.2516 -0.0577  0.0296
 1176ERGO    C116029   6.182   5.819   8.363  0.3601 -0.2589 -0.0991
 1176ERGO    C216030   6.084   5.817   8.006  0.2158 -0.0255 -0.3556
 1177ERGO   ROH16031  15.018   4.519   9.734  0.3155  0.0295  0.0821
 1177ERGO    R116032  15.130   4.333   9.552  0.4082  0.1030  0.0634
 1177ERGO    R216033  15.005   4.262   9.315  0.2823 -0.1762  0.2095
 1177ERGO    R316034  15.243   4.336   9.206  0.0837  0.1093 -0.0463
 1177ERGO    R416035  15.122   4.157   9.008  0.2598 -0.3834  0.2702
 1177ERGO    R516036  15.321   4.139   9.095  0.3609  0.0905  0.1692
 1177ERGO    C116037  15.413   4.165   8.726  0.0603 -0.2360  0.0655
 1177ERGO    C216038  15.389   4.207   8.394  0.2091  0.3561 -0.2539
 1178ERGO   ROH16039  17.519   7.126   7.321 -0.0544  0.1158  0.0138
 1178ERGO    R116040  17.779   7.016   7.337 -0.0648  0.1008  0.1006
 1178ERGO    R216041  17.828   6.745   7.307 -0.0772  0.0832  0.1922
 1178ERGO    R316042  18.002   6.831   7.116 -0.0366  0.0173  0.2004
 1178ERGO    R416043  18.118   6.581   7.214 -0.1541 -0.0399  0.1704
 1178ERGO    R516044  18.218   6.774   7.202 -0.0643 -0.0910  0.1881
 1178ERGO    C116045  18.450   6.566   6.980 -0.1608 -0.1734  0.1656
 1178ERGO    C216046  18.748   6.282   6.809 -0.0403 -0.1138  0.3010
 1179ERGO   ROH16047   1.816  10.412   6.493 -0.1271 -0.1106 -0.1727
 1179ERGO    R116048   1.624  10.380   6.699  0.0398 -0.2713 -0.0386
 1179ERGO    R216049   1.683  10.259   6.940  0.3865  0.0188  0.0304
 1179ERGO    R316050   1.586  10.490   7.043  0.0525 -0.0555 -0.1044
 1179ERGO    R416051   1.534  10.289   7.250  0.3990 -0.0059  0.0390
 1179ERGO    R516052   1.388  10.424   7.162  0.1716 -0.2823 -0.0246
 1179ERGO    C116053   1.356  10.524   7.528  0.0928 -0.0900 -0.0825
 1179ERGO    C216054   1.291  10.630   7.783 -0.1309 -0.5978 -0.2850
 1180ERGO   ROH16055   8.655  11.973  10.216 -0.0958  0.2260  0.0880
 1180ERGO    R116056   8.704  11.925   9.941  0.1131  0.1679  0.1344
 1180ERGO    R216057   8.531  12.008   9.742  0.1086 -0.1397  0.0069
 1180ERGO    R316058   8.755  12.126   9.643  0.0140  0.1059  0.0744
 1180ERGO    R416059   8.580  12.092   9.411  0.1598 -0.1925  0.0001
 1180ERGO    R516060   8.786  12.024   9.428  0.2416  0.0670  0.1215
 1180ERGO    C116061   8.819  12.251   9.124  0.1011  0.0073  0.0596
 1180ERGO    C216062   8.717  12.286   8.693 -0.0167  0.6136  0.2082
 1181ERGO   ROH16063   8.405   8.774   9.294  0.3303  0.0786 -0.1645
 1181ERGO    R116064   8.492   8.909   9.061  0.2375  0.2455 -0.1031
 1181ERGO    R216065   8.471   8.799   8.809  0.4189  0.2973 -0.1351
 1181ERGO    R316066   8.341   9.032   8.754  0.1772  0.1737 -0.1050
 1181ERGO    R416067   8.378   8.904   8.493  0.4227  0.2826 -0.1418
 1181ERGO    R516068   8.437   9.106   8.547  0.1798  0.3419 -0.0517
 1181ERGO    C116069   8.201   9.182   8.257  0.1979  0.1580 -0.1174
 1181ERGO    C216070   7.936   9.082   7.919  0.1701 -0.1788 -0.5198
 1182ERGO   ROH16071  16.764  13.560   6.572  0.0328 -0.1648  0.0489
 1182ERGO    R116072  16.751  13.728   6.799  0.0304 -0.0144 -0.0616
 1182ERGO    R216073  16.619  13.971   6.797 -0.1362 -0.1061 -0.1695
 1182ERGO    R316074  16.489  13.866   7.011  0.0397 -0.0450 -0.0288
 1182ERGO    R416075  16.458  14.155   7.041 -0.2558 -0.0401 -0.2963
 1182ERGO    R516076  16.536  14.017   7.190 -0.0621  0.1791 -0.1848
 1182ERGO    C116077  16.241  14.163   7.384 -0.1604  0.0556 -0.2381
 1182ERGO    C216078  16.118  14.149   7.807  0.2294  0.2645  0.0975
 1183ERGO   ROH16079   6.706   5.901   6.444 -0.0915  0.0227 -0.2328
 1183ERGO    R116080   6.463   5.866   6.584 -0.0442  0.0225 -0.1501
 1183ERGO    R216081   6.435   5.925   6.853  0.0594 -0.0201 -0.1300
 1183ERGO    R316082   6.228   6.077   6.765  0.0411  0.0146 -0.0286
 1183ERGO    R416083   6.162   6.016   7.044  0.0083 -0.2478 -0.0909
 1183ERGO    R516084   6.035   5.982   6.870  0.0439 -0.1213 -0.1432
 1183ERGO    C116085   5.809   6.212   7.072 -0.0386 -0.3479  0.0271
 1183ERGO    C216086   5.736   6.368   7.303  0.1944 -0.0705  0.0385
 1184ERGO   ROH16087  16.157  10.007   9.692  0.2003  0.0368 -0.0687
 1184ERGO    R116088  16.120   9.833   9.471  0.0671  0.1232 -0.1164
 1184ERGO    R216089  15.985   9.908   9.243  0.1224  0.2888 -0.0970
 1184ERGO    R316090  16.213   9.828   9.120  0.0630  0.1491 -0.1177
 1184ERGO    R416091  16.021   9.872   8.901  0.0111  0.0696 -0.0868
 1184ERGO    R516092  16.137   9.691   8.939 -0.0294  0.0597 -0.0115
 1184ERGO    C116093  16.257   9.775   8.586 -0.1094 -0.1891 -0.1004
 1184ERGO    C216094  16.167   9.789   8.238 -0.1246  0.1301 -0.3399
 1185ERGO   ROH16095  10.242  15.800  10.036  0.0524  0.2605  0.0620
 1185ERGO    R116096  10.278  15.832   9.757  0.1281  0.0673  0.0480
 1185ERGO    R216097  10.346  15.623   9.590 -0.0103 -0.0869  0.1829
 1185ERGO    R316098  10.126  15.702   9.453  0.0768  0.0104  0.0977
 1185ERGO    R416099  10.315  15.615   9.246  0.0670 -0.2135  0.1779
 1185ERGO    R516100  10.213  15.808   9.257  0.1993 -0.1351  0.0714
 1185ERGO    C116101  10.090  15.686   8.917  0.1939 -0.1958  0.0953
 1185ERGO    C216102  10.146  15.617   8.614  0.1859  0.1881 -0.1819
 1186ERGO   ROH16103   6.020   4.279   6.703 -0.2125  0.2026  0.0005
 1186ERGO    R116104   6.064   4.455   6.920 -0.1993 -0.0262  0.1877
 1186ERGO    R216105   6.170   4.371   7.161  0.2212 -0.2121 -0.0514
 1186ERGO    R316106   6.351   4.568   7.114 -0.1148  0.1150 -0.0149
 1186ERGO    R416107   6.397   4.491   7.393  0.1692 -0.0294 -0.0939
 1186ERGO    R516108   6.358   4.692   7.319 -0.1946 -0.0252  0.0766
 1186ERGO    C116109   6.698   4.747   7.484 -0.1765  0.3841 -0.0843
 1186ERGO    C216110   6.967   5.000   7.571  0.0340 -0.2669 -0.2650
 1187ERGO   ROH16111  10.800  16.862   9.999  0.1688  0.0310  0.0129
 1187ERGO    R116112  10.791  16.665   9.797 -0.1300 -0.0244  0.0744
 1187ERGO    R216113  10.603  16.668   9.594 -0.0861  0.2371  0.0276
 1187ERGO    R316114  10.823  16.656   9.435 -0.0622 -0.1934  0.0854
 1187ERGO    R416115  10.596  16.628   9.251 -0.0823  0.4903 -0.0030
 1187ERGO    R516116  10.767  16.493   9.268 -0.4140  0.0550 -0.0434
 1187ERGO    C116117  10.799  16.593   8.901 -0.0577  0.2335  0.0335
 1187ERGO    C216118  10.793  16.511   8.578  0.3005  0.1327  0.0578
 1188ERGO   ROH16119  16.663  15.933   9.940 -0.2004 -0.0557 -0.0263
 1188ERGO    R116120  16.727  16.033   9.683 -0.3531 -0.1076 -0.0868
 1188ERGO    R216121  16.987  16.063   9.595 -0.3694  0.5419  0.0202
 1188ERGO    R316122  16.900  15.911   9.387  0.1453  0.0893  0.1144
 1188ERGO    R416123  17.127  16.062   9.279 -0.2916  0.7323  0.0541
 1188ERGO    R516124  16.926  16.052   9.196 -0.2600  0.0312  0.0111
 1188ERGO    C116125  17.127  15.919   8.900  0.2365  0.4185  0.1620
 1188ERGO    C216126  17.163  15.982   8.655 -0.1441 -0.2332  0.0562
 1189ERGO   ROH16127   9.157   2.495   9.470  0.4360  0.1137 -0.0538
 1189ERGO    R116128   9.019   2.456   9.226  0.2194  0.2560  0.0422
 1189ERGO    R216129   9.142   2.480   8.980  0.0629  0.1584 -0.0491
 1189ERGO    R316130   9.042   2.229   8.942 -0.1954  0.2506  0.0062
 1189ERGO    R416131   9.100   2.328   8.672 -0.0222  0.1091 -0.0126
 1189ERGO    R516132   8.911   2.247   8.743 -0.1284  0.3320 -0.0319
 1189ERGO    C116133   8.983   2.005   8.457 -0.3140  0.1670  0.0605
 1189ERGO    C216134   9.083   1.953   8.045 -0.1280 -0.1661 -0.1183
 1190ERGO   ROH16135  10.939   5.276   9.061 -0.2158 -0.1756 -0.0661
 1190ERGO    R116136  10.869   5.287   8.787 -0.1025 -0.0465 -0.0906
 1190ERGO    R216137  10.984   5.466   8.610  0.0448 -0.0332  0.0211
 1190ERGO    R316138  11.038   5.240   8.468  0.0031 -0.0054 -0.0414
 1190ERGO    R416139  11.093   5.459   8.282  0.4319  0.0543  0.1412
 1190ERGO    R516140  10.962   5.289   8.247  0.3100  0.1929 -0.1107
 1190ERGO    C116141  11.206   5.244   7.958  0.6180  0.1314  0.1525
 1190ERGO    C216142  11.399   5.424   7.774 -0.2224  0.0601 -0.1947
 1191ERGO   ROH16143  14.536   8.529   9.692  0.0942  0.0211 -0.0153
 1191ERGO    R116144  14.408   8.489   9.443  0.0718  0.0047 -0.0012
 1191ERGO    R216145  14.425   8.671   9.235  0.0104  0.0161  0.0033
 1191ERGO    R316146  14.510   8.454   9.095  0.0366  0.0379 -0.0150
 1191ERGO    R416147  14.321   8.589   8.916  0.0025  0.0177  0.0054
 1191ERGO    R516148  14.315   8.380   8.977  0.0407  0.0131 -0.0062
 1191ERGO    C116149  14.340   8.337   8.598  0.0223  0.0393 -0.0103
 1191ERGO    C216150  14.359   8.390   8.289  0.1117  0.1340 -0.2086
 1192ERGO   ROH16151   0.308   0.705   6.428 -0.0725  0.1205  0.0398
 1192ERGO    R116152   0.478   0.585   6.619  0.0074  0.1078 -0.0373
 1192ERGO    R216153   0.724   0.693   6.688  0.0075  0.1454 -0.0758
 1192ERGO    R316154   0.623   0.680   6.940  0.0734  0.0599 -0.0544
 1192ERGO    R416155   0.910   0.724   6.978  0.0546  0.1699 -0.1093
 1192ERGO    R516156   0.791   0.565   7.066  0.1442  0.1098 -0.1109
 1192ERGO    C116157   0.923   0.730   7.383  0.1438  0.1039 -0.1089
 1192ERGO    C216158   1.071   0.874   7.606  0.1811 -0.0650  0.0222
 1193ERGO   ROH16159   0.705  15.234  10.221  0.2754  0.0104  0.0318
 1193ERGO    R116160   0.845  15.326   9.993  0.1547 -0.0107 -0.0525
 1193ERGO    R216161   1.004  15.160   9.838  0.0950 -0.0204 -0.1078
 1193ERGO    R316162   0.847  15.252   9.637 -0.0157 -0.0652 -0.0423
 1193ERGO    R416163   1.054  15.096   9.502  0.0404  0.0928 -0.1376
 1193ERGO    R516164   1.000  15.302   9.460 -0.0950  0.0698 -0.0726
 1193ERGO    C116165   0.936  15.145   9.118 -0.0952  0.1167 -0.0933
 1193ERGO    C216166   0.961  15.072   8.736 -0.2587  0.0318 -0.0995
 1194ERGO   ROH16167   0.359   7.970   9.764 -0.2139  0.0426 -0.2140
 1194ERGO    R116168   0.453   8.027   9.503 -0.1029 -0.0083 -0.1863
 1194ERGO    R216169   0.711   7.968   9.422 -0.0671 -0.0332 -0.0702
 1194ERGO    R316170   0.583   7.836   9.222  0.0076 -0.0663 -0.0950
 1194ERGO    R416171   0.822   7.949   9.096 -0.0246  0.0249 -0.0585
 1194ERGO    R516172   0.616   7.974   9.029 -0.0210 -0.0467 -0.0818
 1194ERGO    C116173   0.768   7.814   8.718  0.0703  0.0277 -0.0752
 1194ERGO    C216174   0.882   7.700   8.455 -0.3203  0.0068  0.1172
 1195ERGO   ROH16175  16.049  17.421   6.168  0.2625  0.0174 -0.0623
 1195ERGO    R116176  16.114  17.644   6.330 -0.0359  0.3050 -0.3251
 1195ERGO    R216177  15.973  17.882   6.319 -0.7502 -0.0841 -0.1945
 1195ERGO    R316178  15.948  17.841   6.587 -0.0958 -0.0215 -0.1073
 1195ERGO    R416179  15.924  18.131   6.554 -0.8037 -0.0750 -0.2151
 1195ERGO    R516180  16.061  18.027   6.686 -0.2811  0.2841 -0.4407
 1195ERGO    C116181  15.872  18.238   6.942 -0.2205 -0.0108 -0.1454
 1195ERGO    C216182  15.761  18.510   7.156  0.0571 -0.5261 -0.0043
 1196ERGO   ROH16183  17.193  10.626   5.928  0.0035  0.0182  0.0149
 1196ERGO    R116184  17.183  10.577   6.206  0.0515  0.0042  0.0142
 1196ERGO    R216185  17.396  10.473   6.347  0.1243  0.1283 -0.0037
 1196ERGO    R316186  17.360  10.694   6.502  0.0027  0.1033  0.0055
 1196ERGO    R416187  17.519  10.511   6.668  0.0045  0.1363  0.0420
 1196ERGO    R516188  17.331  10.607   6.723 -0.0452  0.0725 -0.0122
 1196ERGO    C116189  17.558  10.740   7.000 -0.1793  0.1174  0.0772
 1196ERGO    C216190  17.664  10.995   7.113 -0.2361 -0.0985  0.2596
 1197ERGO   ROH16191   7.856   4.291   9.174 -0.1466 -0.1153 -0.1274
 1197ERGO    R116192   7.922   4.129   8.952  0.0795 -0.0406 -0.1176
 1197ERGO    R216193   7.735   4.053   8.763  0.2000 -0.2478 -0.1536
 1197ERGO    R316194   7.915   4.161   8.590  0.1139 -0.0449 -0.1196
 1197ERGO    R416195   7.756   3.975   8.427  0.1593 -0.0138 -0.2121
 1197ERGO    R516196   7.974   3.979   8.445  0.1656  0.0750 -0.2558
 1197ERGO    C116197   7.937   4.031   8.069  0.0547  0.3130 -0.2143
 1197ERGO    C216198   7.942   4.144   7.697 -0.1118  0.0814  0.4292
 1198ERGO   ROH16199  18.241   5.094   9.822 -0.1229  0.0714  0.0636
 1198ERGO    R116200  18.296   4.920   9.606 -0.0631  0.0434  0.1003
 1198ERGO    R216201  18.103   4.840   9.426 -0.0127  0.0274  0.0482
 1198ERGO    R316202  18.280   4.934   9.243  0.0465  0.0023  0.0941
 1198ERGO    R416203  18.128   4.729   9.100  0.0712  0.0091  0.0616
 1198ERGO    R516204  18.345   4.741   9.117  0.0658 -0.0082  0.1224
 1198ERGO    C116205  18.309   4.753   8.738  0.1757 -0.0252  0.1124
 1198ERGO    C216206  18.262   4.646   8.372  0.2225 -0.2325  0.1084
 1199ERGO   ROH16207  15.805   5.854   6.129 -0.2835 -0.3678  0.2108
 1199ERGO    R116208  15.723   5.908   6.395 -0.0353 -0.3514  0.2875
 1199ERGO    R216209  15.890   5.869   6.612  0.2659 -0.0878  0.1215
 1199ERGO    R316210  15.829   6.129   6.664  0.0460 -0.1298  0.0745
 1199ERGO    R416211  15.857   6.005   6.928  0.1574 -0.0454  0.0910
 1199ERGO    R516212  15.686   6.119   6.856  0.0624 -0.2075  0.0766
 1199ERGO    C116213  15.781   6.329   7.161 -0.1121 -0.0603  0.0290
 1199ERGO    C216214  15.830   6.465   7.510  0.4794 -0.0033  0.1050
 1200ERGO   ROH16215   7.685   5.602   9.261 -0.1536  0.2582 -0.1308
 1200ERGO    R116216   7.624   5.673   8.994 -0.0769  0.1094 -0.1887
 1200ERGO    R216217   7.807   5.651   8.789 -0.0191 -0.0077 -0.1228
 1200ERGO    R316218   7.610   5.505   8.672  0.0131 -0.0709 -0.1004
 1200ERGO    R416219   7.788   5.581   8.451 -0.1319  0.1367 -0.1484
 1200ERGO    R516220   7.572   5.614   8.461 -0.1480  0.0051 -0.0345
 1200ERGO    C116221   7.592   5.403   8.144 -0.1674  0.1613 -0.1424
 1200ERGO    C216222   7.523   5.414   7.819 -0.0038  0.1014 -0.2341
 1201ERGO   ROH16223   1.027  16.693   6.863  0.0126 -0.1450  0.0377
 1201ERGO    R116224   0.998  16.593   7.126  0.2126 -0.0093  0.1147
 1201ERGO    R216225   1.134  16.701   7.341  0.1523  0.3006  0.0100
 1201ERGO    R316226   0.884  16.723   7.447  0.1524  0.0684  0.0605
 1201ERGO    R416227   1.054  16.646   7.673  0.2139 -0.0311 -0.0275
 1201ERGO    R516228   0.871  16.546   7.608  0.2667 -0.0758 -0.0911
 1201ERGO    C116229   0.773  16.635   7.965  0.2497 -0.4423 -0.0019
 1201ERGO    C216230   0.832  16.828   8.241  0.0264  0.2018  0.0646
 1202ERGO   ROH16231  12.395   7.203   9.224  0.0420  0.2233  0.1277
 1202ERGO    R116232  12.514   7.150   8.972 -0.0527  0.1478  0.0986
 1202ERGO    R216233  12.374   7.039   8.761 -0.1781  0.2511  0.1296
 1202ERGO    R316234  12.464   7.258   8.629 -0.0566  0.1916  0.1121
 1202ERGO    R416235  12.389   7.071   8.417 -0.0179  0.1519  0.1261
 1202ERGO    R516236  12.581   7.171   8.440  0.0038  0.1044  0.1857
 1202ERGO    C116237  12.483   7.296   8.093  0.1894  0.0383  0.1076
 1202ERGO    C216238  12.437   7.128   7.818 -0.3173 -0.2081  0.4360
 1203ERGO   ROH16239  14.869   6.418   9.526 -0.0057  0.1782 -0.0077
 1203ERGO    R116240  14.944   6.389   9.255 -0.0179  0.0834 -0.0009
 1203ERGO    R216241  14.808   6.224   9.080 -0.0920  0.1049  0.0366
 1203ERGO    R316242  14.791   6.450   8.930  0.0104  0.0796 -0.0148
 1203ERGO    R416243  14.785   6.229   8.736 -0.1321  0.0377  0.0378
 1203ERGO    R516244  14.920   6.401   8.735 -0.0404 -0.0352 -0.0200
 1203ERGO    C116245  14.754   6.445   8.394 -0.0594 -0.0250 -0.0099
 1203ERGO    C216246  14.551   6.505   8.000  0.2177 -0.1662 -0.0199
 1204ERGO   ROH16247  17.443   0.999   9.912 -0.2944 -0.0239 -0.1172
 1204ERGO    R116248  17.597   1.070   9.685 -0.2315  0.0911 -0.0389
 1204ERGO    R216249  17.658   0.889   9.485  0.1288  0.0962  0.0638
 1204ERGO    R316250  17.547   1.079   9.325 -0.0055 -0.0965 -0.0777
 1204ERGO    R416251  17.722   0.925   9.147  0.0414 -0.1578  0.0174
 1204ERGO    R516252  17.723   1.141   9.175 -0.0670 -0.1295 -0.1666
 1204ERGO    C116253  17.655   1.124   8.800 -0.1359 -0.4865 -0.1423
 1204ERGO    C216254  17.549   1.127   8.453  0.0278  0.2228  0.1093
 1205ERGO   ROH16255  18.307   4.177   6.454  0.2993  0.2283  0.0931
 1205ERGO    R116256  18.247   4.357   6.664  0.1574  0.0995  0.1656
 1205ERGO    R216257  18.017   4.338   6.816  0.1180 -0.0747  0.0866
 1205ERGO    R316258  18.192   4.336   7.023  0.0550 -0.1022  0.1399
 1205ERGO    R416259  17.972   4.509   7.113  0.1100  0.0292  0.0263
 1205ERGO    R516260  18.184   4.560   7.110  0.1362 -0.0739  0.0756
 1205ERGO    C116261  18.111   4.606   7.481  0.0458  0.0638  0.0413
 1205ERGO    C216262  18.050   4.650   7.828  0.3002  0.2629  0.0752
 1206ERGO   ROH16263  14.023  11.043   9.337  0.2700 -0.0142 -0.0166
 1206ERGO    R116264  13.979  11.109   9.066  0.3643 -0.1075 -0.0535
 1206ERGO    R216265  13.987  10.922   8.863 -0.0271 -0.2582  0.0734
 1206ERGO    R316266  13.740  11.020   8.806  0.1502  0.1869  0.0343
 1206ERGO    R416267  13.847  10.929   8.547 -0.1903 -0.6089  0.1321
 1206ERGO    R516268  13.768  11.127   8.593  0.2816 -0.3101 -0.2205
 1206ERGO    C116269  13.534  11.025   8.310 -0.1189 -0.3951  0.1296
 1206ERGO    C216270  13.616  10.734   8.105 -0.1159  0.0501  0.2115
 1207ERGO   ROH16271   7.819   2.740   5.795  0.0733  0.0366  0.1135
 1207ERGO    R116272   7.726   2.619   6.033  0.2387  0.1014  0.2123
 1207ERGO    R216273   7.767   2.730   6.282 -0.0219  0.4337  0.1107
 1207ERGO    R316274   7.497   2.706   6.302  0.0071 -0.0444  0.0685
 1207ERGO    R416275   7.592   2.718   6.580 -0.0729  0.7139  0.0951
 1207ERGO    R516276   7.464   2.564   6.492  0.2375  0.2711  0.3621
 1207ERGO    C116277   7.236   2.689   6.772 -0.0754  0.4282  0.0464
 1207ERGO    C216278   7.156   2.859   7.077 -0.2324 -0.1945  0.0115
 1208ERGO   ROH16279  11.506   8.571   9.439 -0.2903  0.4307 -0.0307
 1208ERGO    R116280  11.624   8.457   9.209 -0.0933  0.3602  0.1021
 1208ERGO    R216281  11.476   8.339   9.008  0.0885  0.1147  0.1026
 1208ERGO    R316282  11.611   8.513   8.850  0.0389  0.1111  0.0572
 1208ERGO    R416283  11.522   8.302   8.667  0.0244  0.0908  0.0969
 1208ERGO    R516284  11.726   8.374   8.692  0.0194  0.1113  0.0469
 1208ERGO    C116285  11.677   8.444   8.321 -0.0594  0.0735  0.0509
 1208ERGO    C216286  11.851   8.476   8.083  0.2248 -0.0754  0.3964
 1209ERGO   ROH16287   2.375  11.937  10.199 -0.1532 -0.0554 -0.0475
 1209ERGO    R116288   2.573  11.953   9.998 -0.2264  0.1544 -0.1052
 1209ERGO    R216289   2.769  11.760   9.966  0.1085  0.4708 -0.0173
 1209ERGO    R316290   2.674  11.753   9.711  0.0547  0.1300  0.0079
 1209ERGO    R416291   2.935  11.621   9.697  0.1695  0.3413  0.0863
 1209ERGO    R516292   2.868  11.788   9.575 -0.0051  0.1618 -0.0707
 1209ERGO    C116293   2.944  11.533   9.301  0.1544 -0.0539  0.1702
 1209ERGO    C216294   2.987  11.409   9.128 -0.1700 -0.1812 -0.1107
 1210ERGO   ROH16295   0.883   1.802   6.474  0.0115 -0.0604 -0.0398
 1210ERGO    R116296   0.987   1.710   6.721  0.2334  0.1850 -0.0355
 1210ERGO    R216297   1.076   1.882   6.919 -0.0129  0.4040 -0.1009
 1210ERGO    R316298   0.899   1.744   7.073  0.2530  0.1369 -0.0278
 1210ERGO    R416299   1.053   1.904   7.263  0.2132  0.2085 -0.0722
 1210ERGO    R516300   1.022   1.688   7.270  0.4557  0.1752 -0.1468
 1210ERGO    C116301   0.875   1.786   7.608  0.5943 -0.1560  0.0130
 1210ERGO    C216302   0.868   2.007   7.869 -0.0741 -0.0232  0.1210
 1211ERGO   ROH16303  17.647  12.696  10.216  0.2194  0.1955  0.1965
 1211ERGO    R116304  17.814  12.825  10.026  0.1885  0.1538  0.1405
 1211ERGO    R216305  18.087  12.785  10.017  0.1734  0.0695  0.0353
 1211ERGO    R316306  18.036  12.723   9.757  0.0560  0.0987  0.0508
 1211ERGO    R416307  18.285  12.877   9.750  0.1363 -0.0311 -0.0277
 1211ERGO    R516308  18.104  12.917   9.635  0.1190  0.0654  0.0317
 1211ERGO    C116309  18.354  12.873   9.350  0.0045 -0.0622 -0.0497
 1211ERGO    C216310  18.450  12.960   9.038  0.4902  0.2527  0.0960
 1212ERGO   ROH16311  14.350  17.078   9.772 -0.1248 -0.0327  0.0540
 1212ERGO    R116312  14.461  17.168   9.528 -0.0862  0.1871  0.1516
 1212ERGO    R216313  14.387  17.063   9.283  0.2985  0.0663  0.0863
 1212ERGO    R316314  14.339  17.324   9.223 -0.1238 -0.0090  0.0630
 1212ERGO    R416315  14.476  17.217   8.986  0.1534  0.2053  0.1120
 1212ERGO    R516316  14.533  17.394   9.101 -0.1855  0.3150  0.1326
 1212ERGO    C116317  14.483  17.551   8.757 -0.3275  0.2159  0.1050
 1212ERGO    C216318  14.550  17.625   8.422 -0.0903  0.2396 -0.2455
 1213ERGO   ROH16319  10.458   4.976   5.983  0.1765  0.1976  0.0461
 1213ERGO    R116320  10.441   5.008   6.264 -0.0483  0.1211  0.0440
 1213ERGO    R216321  10.518   5.241   6.392  0.0458  0.0142  0.1878
 1213ERGO    R316322  10.267   5.229   6.495 -0.0622  0.2028 -0.0447
 1213ERGO    R416323  10.433   5.331   6.714 -0.1647 -0.0510  0.1518
 1213ERGO    R516324  10.299   5.159   6.721 -0.3346  0.0706 -0.0443
 1213ERGO    C116325  10.148   5.372   6.999 -0.3884  0.0882 -0.0874
 1213ERGO    C216326  10.091   5.526   7.232 -0.1180 -0.3495 -0.1234
 1214ERGO   ROH16327  17.016   2.189  10.144  0.2801 -0.1397 -0.0742
 1214ERGO    R116328  17.173   2.198   9.908  0.2384 -0.1707 -0.1039
 1214ERGO    R216329  17.227   1.973   9.757  0.0007 -0.1531 -0.2264
 1214ERGO    R316330  17.124   2.124   9.555  0.0904  0.0415 -0.1287
 1214ERGO    R416331  17.300   1.932   9.422 -0.1375 -0.0636 -0.2683
 1214ERGO    R516332  17.305   2.149   9.401  0.0675 -0.0610 -0.1678
 1214ERGO    C116333  17.247   2.049   9.037 -0.1338  0.1712 -0.2010
 1214ERGO    C216334  17.268   2.081   8.674  0.1502 -0.0404  0.0335
 1215ERGO   ROH16335   9.631   8.468   9.406  0.2116 -0.1913  0.1143
 1215ERGO    R116336   9.839   8.417   9.220  0.1989 -0.1209  0.0813
 1215ERGO    R216337   9.808   8.246   9.005  0.1777 -0.0180  0.0081
 1215ERGO    R316338   9.892   8.462   8.863  0.1893  0.0374  0.0972
 1215ERGO    R416339   9.975   8.231   8.703 -0.2352  0.0866 -0.2320
 1215ERGO    R516340  10.102   8.395   8.770  0.0126 -0.0870 -0.2423
 1215ERGO    C116341  10.150   8.426   8.393 -0.4647  0.1997 -0.2883
 1215ERGO    C216342  10.204   8.495   8.115 -0.3354 -0.1416  0.0615
 1216ERGO   ROH16343   5.544  14.815  10.500  0.0006 -0.3496  0.1465
 1216ERGO    R116344   5.621  14.895  10.240  0.0211 -0.1410  0.2155
 1216ERGO    R216345   5.675  14.713  10.038 -0.0170  0.0222  0.0610
 1216ERGO    R316346   5.490  14.858   9.902  0.0185  0.1811  0.1775
 1216ERGO    R416347   5.674  14.761   9.696 -0.1727  0.0366  0.0620
 1216ERGO    R516348   5.615  14.968   9.730  0.0139  0.0885  0.1098
 1216ERGO    C116349   5.500  14.925   9.369 -0.2299  0.1943  0.1721
 1216ERGO    C216350   5.540  14.931   9.070  0.1696  0.0015 -0.0053
 1217ERGO   ROH16351   7.885  14.950  10.259 -0.1319 -0.0720 -0.0425
 1217ERGO    R116352   8.002  14.984  10.004 -0.0029 -0.2453 -0.0073
 1217ERGO    R216353   7.960  14.807   9.796 -0.2257 -0.1705 -0.0237
 1217ERGO    R316354   7.885  15.032   9.663  0.1686 -0.0397 -0.0412
 1217ERGO    R416355   8.015  14.866   9.459 -0.2567 -0.3744 -0.0661
 1217ERGO    R516356   8.063  15.073   9.508  0.1933 -0.4466 -0.1369
 1217ERGO    C116357   7.977  15.111   9.139  0.0955 -0.3704 -0.1072
 1217ERGO    C216358   7.988  15.007   8.755 -0.2760 -0.0766  0.2136
 1218ERGO   ROH16359   6.720  15.596   7.104  0.0509  0.3303 -0.2348
 1218ERGO    R116360   6.813  15.753   7.320  0.1006  0.1471 -0.1196
 1218ERGO    R216361   6.692  15.752   7.568 -0.0085  0.1374 -0.1681
 1218ERGO    R316362   6.942  15.693   7.655 -0.0955 -0.1298 -0.0921
 1218ERGO    R416363   6.788  15.740   7.899 -0.0720  0.2020 -0.1472
 1218ERGO    R516364   6.975  15.836   7.843  0.0574 -0.0666 -0.1704
 1218ERGO    C116365   7.080  15.677   8.174 -0.1906 -0.0114 -0.0637
 1218ERGO    C216366   7.420  15.580   8.476 -0.0737 -0.2122 -0.1080
 1219ERGO   ROH16367   2.796   8.899   9.318 -0.0915  0.0051  0.0271
 1219ERGO    R116368   2.778   9.000   9.055 -0.0923 -0.0958 -0.0123
 1219ERGO    R216369   2.582   8.918   8.877 -0.1867 -0.0520  0.0695
 1219ERGO    R316370   2.533   9.185   8.859 -0.0263 -0.0277 -0.0310
 1219ERGO    R416371   2.475   9.082   8.592 -0.0932 -0.0946  0.0093
 1219ERGO    R516372   2.609   9.246   8.641  0.0069 -0.1563 -0.0560
 1219ERGO    C116373   2.365   9.427   8.410  0.1119 -0.0964 -0.1200
 1219ERGO    C216374   2.246   9.479   8.115 -0.0266  0.2486 -0.0997
 1220ERGO   ROH16375   1.850  17.704  10.355 -0.0934 -0.0024  0.0531
 1220ERGO    R116376   1.770  17.711  10.084 -0.1284  0.1828  0.0681
 1220ERGO    R216377   1.835  17.921   9.915  0.2423  0.0853  0.0848
 1220ERGO    R316378   1.935  17.721   9.760 -0.1606 -0.0926  0.0405
 1220ERGO    R416379   1.832  17.919   9.570  0.3386  0.2266  0.0817
 1220ERGO    R516380   1.782  17.707   9.576 -0.1486  0.3248 -0.0128
 1220ERGO    C116381   1.923  17.730   9.222  0.0164  0.1420  0.0382
 1220ERGO    C216382   1.874  17.772   8.873  0.0469  0.2705 -0.2214
 1221ERGO   ROH16383  17.689   8.406   6.202  0.0848 -0.3079  0.0245
 1221ERGO    R116384  17.626   8.569   6.425 -0.0081 -0.2542 -0.0396
 1221ERGO    R216385  17.440   8.496   6.615 -0.0161 -0.2548 -0.0432
 1221ERGO    R316386  17.646   8.542   6.787 -0.0567 -0.1283 -0.0278
 1221ERGO    R416387  17.408   8.527   6.958 -0.0982  0.0535 -0.0754
 1221ERGO    R516388  17.554   8.689   6.953 -0.0795  0.0290 -0.1804
 1221ERGO    C116389  17.583   8.587   7.319 -0.1844  0.3519 -0.0797
 1221ERGO    C216390  17.517   8.704   7.726  0.0351  0.2696  0.1825
 1222ERGO   ROH16391  15.720  17.614   9.713  0.0780 -0.2112 -0.0850
 1222ERGO    R116392  15.852  17.672   9.470 -0.0665  0.0215 -0.1144
 1222ERGO    R216393  16.034  17.498   9.355  0.2528  0.3403 -0.1364
 1222ERGO    R316394  15.872  17.524   9.138  0.1492  0.0216 -0.1000
 1222ERGO    R416395  16.143  17.514   9.027  0.1003  0.2078 -0.1933
 1222ERGO    R516396  15.993  17.668   8.990 -0.0570  0.0272 -0.2543
 1222ERGO    C116397  16.054  17.548   8.633 -0.0854 -0.1685 -0.1923
 1222ERGO    C216398  16.117  17.595   8.193  0.1626 -0.0666  0.0286
 1223ERGO   ROH16399  15.253   8.494   6.135  0.3002 -0.1257  0.0769
 1223ERGO    R116400  15.099   8.614   6.340  0.1182 -0.0827 -0.0821
 1223ERGO    R216401  14.938   8.468   6.510 -0.0042 -0.0510 -0.1697
 1223ERGO    R316402  15.081   8.595   6.703 -0.1754  0.0217 -0.0884
 1223ERGO    R416403  14.911   8.405   6.849 -0.0297 -0.1976 -0.1981
 1223ERGO    R516404  14.927   8.620   6.885 -0.2474 -0.1927 -0.1171
 1223ERGO    C116405  15.030   8.488   7.228 -0.2051 -0.2147 -0.1383
 1223ERGO    C216406  14.885   8.382   7.602 -0.1093  0.1231  0.0532
 1224ERGO   ROH16407  12.457  17.310   9.873  0.0404  0.1503  0.0485
 1224ERGO    R116408  12.584  17.229   9.633 -0.0807 -0.0355  0.0467
 1224ERGO    R216409  12.451  17.089   9.435 -0.3046  0.1993  0.0316
 1224ERGO    R316410  12.540  17.292   9.277  0.0364  0.0706  0.0490
 1224ERGO    R416411  12.390  17.116   9.096 -0.4103  0.4081  0.0647
 1224ERGO    R516412  12.596  17.185   9.070 -0.2704  0.0043 -0.0072
 1224ERGO    C116413  12.438  17.322   8.750 -0.1517  0.4089  0.1004
 1224ERGO    C216414  12.367  17.391   8.377 -0.0947 -0.1067 -0.0122
 1225ERGO   ROH16415   7.584   1.267   9.610  0.1440 -0.0670  0.0382
 1225ERGO    R116416   7.456   1.206   9.365  0.1821 -0.1538  0.0391
 1225ERGO    R216417   7.362   1.401   9.193 -0.0889 -0.2136  0.1091
 1225ERGO    R316418   7.517   1.270   9.012  0.0532  0.0299  0.0500
 1225ERGO    R416419   7.303   1.393   8.852 -0.2373 -0.3587  0.1370
 1225ERGO    R516420   7.360   1.182   8.852  0.1273 -0.2619  0.1361
 1225ERGO    C116421   7.414   1.265   8.484 -0.1904 -0.2147  0.0978
 1225ERGO    C216422   7.302   1.218   8.150 -0.0537  0.2181 -0.0375
 1226ERGO   ROH16423   6.124  17.073  10.230 -0.2276  0.0092  0.0793
 1226ERGO    R116424   6.011  17.110   9.973 -0.0609  0.3745  0.0526
 1226ERGO    R216425   6.120  17.282   9.786  0.6230 -0.0481  0.0277
 1226ERGO    R316426   6.116  17.061   9.628 -0.1700 -0.1009  0.0792
 1226ERGO    R416427   6.105  17.287   9.441  0.9117 -0.0414  0.0136
 1226ERGO    R516428   5.967  17.118   9.449  0.1787  0.5011 -0.0504
 1226ERGO    C116429   6.093  17.083   9.091  0.3354 -0.0870  0.0537
 1226ERGO    C216430   6.077  17.142   8.803  0.0569  0.0033  0.0581
 1227ERGO   ROH16431   9.169   9.432   9.461 -0.0366 -0.1761 -0.1393
 1227ERGO    R116432   9.134   9.630   9.261 -0.2689 -0.2719 -0.1956
 1227ERGO    R216433   9.339   9.713   9.096 -0.3135  0.0593 -0.0901
 1227ERGO    R316434   9.164   9.647   8.898 -0.0891 -0.2887 -0.1821
 1227ERGO    R416435   9.408   9.728   8.757 -0.0838 -0.0681 -0.0515
 1227ERGO    R516436   9.207   9.806   8.725 -0.1644 -0.3412 -0.2496
 1227ERGO    C116437   9.283   9.674   8.375  0.2608 -0.4691 -0.1156
 1227ERGO    C216438   9.375   9.596   7.921 -0.2797 -0.0609 -0.1805
 1228ERGO   ROH16439  18.148   1.573  10.277  0.1694 -0.0392  0.1762
 1228ERGO    R116440  18.128   1.726  10.040  0.0923  0.0158  0.2194
 1228ERGO    R216441  18.350   1.814   9.900  0.0435 -0.2225  0.0007
 1228ERGO    R316442  18.228   1.689   9.692 -0.3208 -0.0497  0.1006
 1228ERGO    R416443  18.359   1.921   9.571  0.0486 -0.2979 -0.0250
 1228ERGO    R516444  18.149   1.867   9.553 -0.0789  0.0813  0.1154
 1228ERGO    C116445  18.250   1.866   9.185 -0.2900 -0.1796  0.0537
 1228ERGO    C216446  18.256   1.876   8.760 -0.3292 -0.2516  0.1301
 1229ERGO   ROH16447   8.139   1.343   6.094 -0.0003  0.1201 -0.0044
 1229ERGO    R116448   8.273   1.255   6.327 -0.1120 -0.0468 -0.0010
 1229ERGO    R216449   8.369   1.431   6.518  0.2195 -0.1533 -0.0622
 1229ERGO    R316450   8.220   1.278   6.687 -0.0221  0.1449  0.0008
 1229ERGO    R416451   8.442   1.376   6.851  0.2299 -0.2707 -0.0834
 1229ERGO    R516452   8.381   1.168   6.825 -0.1836 -0.1601 -0.0473
 1229ERGO    C116453   8.345   1.200   7.204  0.0093 -0.0591 -0.0367
 1229ERGO    C216454   8.375   1.325   7.477  0.0431 -0.3485  0.2565
 1230ERGO   ROH16455  11.343   0.670   9.696 -0.0666  0.0634  0.0798
 1230ERGO    R116456  11.413   0.635   9.424  0.0503  0.0481  0.1116
 1230ERGO    R216457  11.429   0.386   9.304 -0.0480  0.0509  0.0940
 1230ERGO    R316458  11.257   0.497   9.126  0.1132  0.1803  0.0161
 1230ERGO    R416459  11.447   0.347   8.962 -0.0401 -0.1309  0.1142
 1230ERGO    R516460  11.395   0.557   8.939  0.2188 -0.0729  0.0084
 1230ERGO    C116461  11.297   0.428   8.594  0.1159 -0.1152  0.0528
 1230ERGO    C216462  11.221   0.302   8.297  0.0227 -0.0415 -0.1881
 1231ERGO   ROH16463   9.496   8.132   6.001  0.0369  0.0037  0.0784
 1231ERGO    R116464   9.471   8.006   6.253  0.1823 -0.0381  0.0726
 1231ERGO    R216465   9.311   7.784   6.294  0.1263  0.0159  0.1501
 1231ERGO    R316466   9.540   7.676   6.392  0.1620 -0.0940 -0.0488
 1231ERGO    R416467   9.336   7.610   6.591  0.3104  0.0429  0.1518
 1231ERGO    R516468   9.526   7.711   6.628  0.4010 -0.0538 -0.0377
 1231ERGO    C116469   9.565   7.408   6.857  0.4512 -0.0445 -0.0340
 1231ERGO    C216470   9.444   7.169   7.149  0.3627 -0.1310  0.0275
 1232ERGO   ROH16471   0.317  17.229  10.311 -0.0535 -0.0877 -0.1819
 1232ERGO    R116472   0.265  17.377  10.075 -0.0571 -0.0626 -0.1656
 1232ERGO    R216473   0.465  17.499   9.928 -0.0440 -0.1421 -0.2205
 1232ERGO    R316474   0.357  17.355   9.724 -0.1609 -0.0989 -0.1896
 1232ERGO    R416475   0.574  17.508   9.600 -0.0499 -0.3022 -0.2282
 1232ERGO    R516476   0.366  17.503   9.536 -0.0509 -0.1510 -0.2209
 1232ERGO    C116477   0.537  17.380   9.218 -0.1632 -0.3550 -0.2037
 1232ERGO    C216478   0.491  17.543   8.962 -0.0428  0.0991 -0.0562
 1233ERGO   ROH16479   2.978  18.445   6.753 -0.1273 -0.3031 -0.0322
 1233ERGO    R116480   2.966  18.233   6.940 -0.3079 -0.2103  0.0633
 1233ERGO    R216481   3.142  18.211   7.152 -0.2245 -0.3466 -0.0247
 1233ERGO    R316482   2.913  18.198   7.298 -0.1670  0.0098  0.1087
 1233ERGO    R416483   3.127  18.143   7.491 -0.1279 -0.3263 -0.0149
 1233ERGO    R516484   2.951  18.020   7.453 -0.3498 -0.0576  0.0836
 1233ERGO    C116485   2.903  18.091   7.825 -0.0179  0.0202  0.1160
 1233ERGO    C216486   2.879  17.993   8.135  0.2632  0.1506  0.1261
 1234ERGO   ROH16487   8.876  15.718  10.312 -0.0583 -0.1283  0.0214
 1234ERGO    R116488   8.930  15.583  10.070  0.0266 -0.0505 -0.0043
 1234ERGO    R216489   8.740  15.434   9.937  0.1106 -0.1257 -0.0473
 1234ERGO    R316490   8.807  15.594   9.727  0.0382 -0.0445 -0.0077
 1234ERGO    R416491   8.751  15.331   9.607  0.2113 -0.0534 -0.0660
 1234ERGO    R516492   8.932  15.450   9.582  0.1413  0.0609 -0.0217
 1234ERGO    C116493   8.820  15.422   9.218  0.2022  0.0649 -0.0399
 1234ERGO    C216494   8.766  15.387   8.864  0.0548  0.1616 -0.0524
 1235ERGO   ROH16495   6.399   0.388   6.275 -0.0008 -0.0426  0.1582
 1235ERGO    R116496   6.375   0.366   6.557  0.0482 -0.1676  0.1546
 1235ERGO    R216497   6.556   0.225   6.711  0.2991  0.0791  0.1053
 1235ERGO    R316498   6.575   0.460   6.846 -0.0844  0.0784  0.1674
 1235ERGO    R416499   6.598   0.254   7.053  0.3448  0.0622  0.1001
 1235ERGO    R516500   6.458   0.421   7.051  0.0446 -0.1876  0.1895
 1235ERGO    C116501   6.640   0.492   7.378  0.0115  0.0518  0.1554
 1235ERGO    C216502   6.739   0.448   7.795  0.0090  0.2124 -0.0435
 1236ERGO   ROH16503   4.764  17.848   6.624 -0.2455 -0.0443 -0.0039
 1236ERGO    R116504   4.645  17.962   6.854 -0.1763 -0.0275  0.0265
 1236ERGO    R216505   4.631  17.829   7.096 -0.1215 -0.0219  0.0445
 1236ERGO    R316506   4.753  18.053   7.190 -0.0742 -0.0284 -0.0086
 1236ERGO    R416507   4.621  17.938   7.424 -0.0462  0.0404  0.0241
 1236ERGO    R516508   4.600  18.142   7.351 -0.0249  0.0237 -0.0007
 1236ERGO    C116509   4.730  18.212   7.702  0.0420  0.0707 -0.0376
 1236ERGO    C216510   4.768  18.130   8.020  0.0539 -0.1533 -0.1802
 1237ERGO   ROH16511  12.824  16.204   9.951 -0.0474  0.0835 -0.0275
 1237ERGO    R116512  12.795  16.092   9.694 -0.0888  0.0465 -0.0064
 1237ERGO    R216513  12.579  15.933   9.624 -0.1675  0.1469  0.0121
 1237ERGO    R316514  12.553  16.112   9.422 -0.0590  0.1191 -0.0282
 1237ERGO    R416515  12.505  15.852   9.297 -0.2224  0.1154  0.0319
 1237ERGO    R516516  12.649  16.003   9.232 -0.1280  0.0140 -0.0052
 1237ERGO    C116517  12.438  15.974   8.916 -0.1526  0.0707  0.0054
 1237ERGO    C216518  12.230  15.974   8.597  0.3076 -0.0561 -0.1547
 1238ERGO   ROH16519  13.703   2.516   6.268  0.0305 -0.1926  0.1706
 1238ERGO    R116520  13.550   2.642   6.470  0.0220 -0.0453  0.0755
 1238ERGO    R216521  13.489   2.519   6.710 -0.0094  0.1164  0.1609
 1238ERGO    R316522  13.602   2.742   6.816  0.0046  0.1785  0.0127
 1238ERGO    R416523  13.360   2.700   6.975 -0.0832  0.4156 -0.0752
 1238ERGO    R516524  13.416   2.882   6.871  0.0293  0.2954 -0.2137
 1238ERGO    C116525  13.391   3.015   7.228 -0.1129  0.6480 -0.3518
 1238ERGO    C216526  13.441   3.093   7.578  0.0684  0.0066  0.1410
 1239ERGO   ROH16527  12.998   7.796   9.750 -0.2417 -0.0139 -0.0659
 1239ERGO    R116528  12.935   7.902   9.495 -0.0072  0.1461 -0.0598
 1239ERGO    R216529  13.113   8.056   9.350  0.2973 -0.1358  0.0021
 1239ERGO    R316530  13.064   7.872   9.157  0.0082 -0.0216 -0.0394
 1239ERGO    R416531  13.135   8.116   9.010  0.3855 -0.0942  0.0145
 1239ERGO    R516532  12.956   7.995   8.983  0.1949  0.1874 -0.0117
 1239ERGO    C116533  13.102   7.977   8.631  0.1654  0.0372 -0.0170
 1239ERGO    C216534  13.245   8.065   8.319  0.0080 -0.0228 -0.3710
 1240ERGO   ROH16535  14.481  18.082   9.756  0.0388 -0.3395 -0.1797
 1240ERGO    R116536  14.443  18.247   9.529 -0.1129 -0.2379 -0.0827
 1240ERGO    R216537  14.630  18.433   9.448 -0.2639 -0.0442  0.0012
 1240ERGO    R316538  14.610  18.301   9.211 -0.1862  0.0731 -0.0717
 1240ERGO    R416539  14.688  18.574   9.137 -0.0556  0.0822  0.0952
 1240ERGO    R516540  14.517  18.462   9.060 -0.0540  0.1749 -0.0458
 1240ERGO    C116541  14.702  18.532   8.734  0.1386  0.2661  0.0813
 1240ERGO    C216542  14.709  18.567   8.436  0.1577 -0.1442  0.0827
 1241ERGO   ROH16543   5.760   0.756   9.806  0.1095  0.0050  0.0001
 1241ERGO    R116544   5.857   0.648   9.563  0.2841  0.2223 -0.0285
 1241ERGO    R216545   5.697   0.503   9.391  0.5426 -0.0907 -0.0036
 1241ERGO    R316546   5.782   0.687   9.209  0.1345  0.1030 -0.0128
 1241ERGO    R416547   5.708   0.452   9.049  0.6256 -0.0827 -0.0033
 1241ERGO    R516548   5.899   0.558   9.045  0.4109  0.3411 -0.0181
 1241ERGO    C116549   5.795   0.595   8.680  0.2909  0.1038 -0.0116
 1241ERGO    C216550   5.770   0.527   8.394  0.1190  0.1304 -0.1607
 1242ERGO   ROH16551   1.830  11.468   6.471  0.1945  0.1409 -0.0948
 1242ERGO    R116552   1.807  11.340   6.723  0.2556  0.0193 -0.1497
 1242ERGO    R216553   2.022  11.308   6.893  0.2231  0.2844 -0.0528
 1242ERGO    R316554   1.859  11.433   7.071 -0.0584 -0.0169 -0.0902
 1242ERGO    R416555   2.075  11.322   7.235 -0.0353  0.1507 -0.0045
 1242ERGO    R516556   1.862  11.292   7.264 -0.0234 -0.1288 -0.1711
 1242ERGO    C116557   1.953  11.448   7.600 -0.4500 -0.2101 -0.0116
 1242ERGO    C216558   1.982  11.353   7.985 -0.1465  0.1201  0.3297
 1243ERGO   ROH16559  16.930  15.175   6.784  0.1199  0.0181 -0.0394
 1243ERGO    R116560  16.823  15.324   6.999  0.0733 -0.0661 -0.0041
 1243ERGO    R216561  16.805  15.224   7.256  0.3163 -0.0506  0.0184
 1243ERGO    R316562  16.942  15.451   7.318  0.1091  0.1065 -0.0838
 1243ERGO    R416563  16.772  15.400   7.552  0.1380  0.0630 -0.0670
 1243ERGO    R516564  16.783  15.585   7.438 -0.0237  0.0216 -0.1585
 1243ERGO    C116565  16.881  15.714   7.783 -0.1602  0.2767 -0.2126
 1243ERGO    C216566  16.847  15.895   8.060  0.1784  0.1213 -0.0034
 1244ERGO   ROH16567   4.995   5.162   9.369 -0.0717  0.1375 -0.1208
 1244ERGO    R116568   4.974   5.262   9.105 -0.0831  0.0355 -0.1600
 1244ERGO    R216569   5.196   5.332   8.955 -0.0888  0.0124 -0.1868
 1244ERGO    R316570   5.088   5.160   8.775 -0.0630 -0.0743 -0.1187
 1244ERGO    R416571   5.219   5.365   8.612 -0.1509 -0.0876 -0.2001
 1244ERGO    R516572   5.012   5.301   8.596 -0.1310 -0.1544 -0.1504
 1244ERGO    C116573   5.131   5.223   8.243 -0.1627 -0.2271 -0.1439
 1244ERGO    C216574   5.439   5.306   8.012 -0.1333  0.0049  0.0563
 1245ERGO   ROH16575   7.479   8.759   9.506 -0.1184  0.0098  0.0038
 1245ERGO    R116576   7.472   8.854   9.240 -0.2180  0.0142  0.0087
 1245ERGO    R216577   7.503   8.688   9.022  0.0116  0.0645  0.0069
 1245ERGO    R316578   7.266   8.798   8.944 -0.1243 -0.2311 -0.0139
 1245ERGO    R416579   7.405   8.735   8.693  0.1301  0.2182 -0.0084
 1245ERGO    R516580   7.322   8.928   8.751 -0.2099  0.0447  0.1361
 1245ERGO    C116581   7.126   8.864   8.430  0.0715  0.0301 -0.0370
 1245ERGO    C216582   7.056   9.029   8.207  0.0558 -0.0623 -0.1023
 1246ERGO   ROH16583  18.071   6.906   9.938  0.0899  0.0274  0.0274
 1246ERGO    R116584  18.042   6.807   9.674  0.1630 -0.1425  0.0843
 1246ERGO    R216585  18.038   6.972   9.453 -0.1456 -0.2554  0.0150
 1246ERGO    R316586  18.238   6.810   9.367  0.0738 -0.0002  0.0241
 1246ERGO    R416587  18.132   6.932   9.123 -0.0428 -0.0731  0.0187
 1246ERGO    R516588  18.157   6.719   9.161  0.2109 -0.0628 -0.0130
 1246ERGO    C116589  18.374   6.756   8.850  0.2234  0.2727  0.0291
 1246ERGO    C216590  18.411   6.616   8.651 -0.0676 -0.0052  0.0164
 1247ERGO   ROH16591   6.632   4.150   9.185 -0.0682 -0.0745 -0.0523
 1247ERGO    R116592   6.731   4.216   8.928  0.0317  0.0024  0.0056
 1247ERGO    R216593   6.737   4.035   8.721  0.0989  0.0698 -0.0492
 1247ERGO    R316594   6.599   4.229   8.589  0.1601  0.1192 -0.0415
 1247ERGO    R416595   6.716   4.064   8.377  0.0472  0.0411 -0.0488
 1247ERGO    R516596   6.736   4.280   8.399  0.1492  0.0373 -0.0738
 1247ERGO    C116597   6.575   4.263   8.053  0.0746  0.0707 -0.0415
 1247ERGO    C216598   6.603   4.127   7.735 -0.1911  0.1197 -0.4020
 1248ERGO   ROH16599  12.291  10.678   9.596 -0.0330  0.0923  0.0406
 1248ERGO    R116600  12.243  10.888   9.412  0.1744  0.1883  0.0941
 1248ERGO    R216601  12.437  11.071   9.341  0.4413 -0.1519 -0.0684
 1248ERGO    R316602  12.373  10.991   9.089  0.0737 -0.0317 -0.0199
 1248ERGO    R416603  12.418  11.280   9.066  0.5426 -0.0937 -0.0325
 1248ERGO    R516604  12.241  11.170   9.002  0.2900  0.2047  0.1180
 1248ERGO    C116605  12.346  11.327   8.670  0.2564  0.0533  0.0338
 1248ERGO    C216606  12.157  11.422   8.273 -0.1834 -0.4434 -0.1870
 1249ERGO   ROH16607  17.954  14.820   9.756 -0.0083  0.1366  0.0367
 1249ERGO    R116608  17.949  14.956   9.508  0.0567  0.1149  0.0249
 1249ERGO    R216609  18.156  14.940   9.326  0.0040 -0.0756 -0.0089
 1249ERGO    R316610  17.957  14.865   9.155 -0.0888  0.0760  0.0288
 1249ERGO    R416611  18.183  14.935   8.981 -0.0095 -0.2082 -0.0095
 1249ERGO    R516612  17.980  15.014   8.969  0.0621  0.0038 -0.0201
 1249ERGO    C116613  18.012  14.862   8.621 -0.1043 -0.1432  0.0256
 1249ERGO    C216614  18.005  14.933   8.280  0.0714  0.1034  0.1949
 1250ERGO   ROH16615  10.815   2.938   9.572  0.1588 -0.0121  0.0305
 1250ERGO    R116616  10.651   2.857   9.356  0.1748 -0.1806  0.0819
 1250ERGO    R216617  10.584   3.026   9.147 -0.0173 -0.2676  0.0782
 1250ERGO    R316618  10.686   2.825   8.995  0.1108 -0.2033  0.0759
 1250ERGO    R416619  10.592   3.023   8.802 -0.1710 -0.3217  0.0734
 1250ERGO    R516620  10.539   2.813   8.807  0.0321 -0.3791  0.1414
 1250ERGO    C116621  10.692   2.834   8.458 -0.1403 -0.2929  0.0686
 1250ERGO    C216622  10.709   2.849   8.025 -0.1584 -0.0486  0.0291
 1251ERGO   ROH16623  12.646  13.233   6.759 -0.0738 -0.1476  0.1891
 1251ERGO    R116624  12.549  13.391   6.973  0.1071  0.0436  0.1321
 1251ERGO    R216625  12.516  13.292   7.228 -0.1317  0.1342  0.1353
 1251ERGO    R316626  12.672  13.503   7.296  0.1846 -0.0973  0.1535
 1251ERGO    R416627  12.532  13.432   7.544 -0.2338  0.3223  0.0592
 1251ERGO    R516628  12.539  13.629   7.450  0.2288  0.2570 -0.0807
 1251ERGO    C116629  12.689  13.712   7.791  0.0035  0.2146  0.0318
 1251ERGO    C216630  12.834  13.962   8.087  0.0819  0.0302 -0.1113
 1252ERGO   ROH16631  15.958   7.402   9.407  0.1379 -0.0573 -0.0764
 1252ERGO    R116632  16.013   7.485   9.142  0.1379 -0.1458 -0.1052
 1252ERGO    R216633  16.148   7.327   8.961  0.0408 -0.2525 -0.0885
 1252ERGO    R316634  15.929   7.372   8.806  0.0372 -0.1905 -0.0647
 1252ERGO    R416635  16.126   7.256   8.623  0.0814  0.0254 -0.1514
 1252ERGO    R516636  16.018   7.444   8.596  0.0263  0.0143 -0.0002
 1252ERGO    C116637  15.908   7.258   8.281  0.1018  0.2455 -0.1657
 1252ERGO    C216638  15.891   7.088   8.001  0.0304 -0.1366 -0.1060
 1253ERGO   ROH16639   5.523   2.222   6.307 -0.0090  0.0791  0.0260
 1253ERGO    R116640   5.608   2.056   6.520 -0.1103 -0.0220 -0.0107
 1253ERGO    R216641   5.819   2.124   6.687 -0.0009 -0.2357 -0.0572
 1253ERGO    R316642   5.634   2.084   6.882  0.0095 -0.0778 -0.0144
 1253ERGO    R416643   5.867   1.930   6.969 -0.1275 -0.3459 -0.1102
 1253ERGO    R516644   5.664   1.856   6.947 -0.2152 -0.1252 -0.0694
 1253ERGO    C116645   5.723   1.781   7.317 -0.1916 -0.2618 -0.1010
 1253ERGO    C216646   5.636   1.716   7.621 -0.0541  0.1029  0.0852
 1254ERGO   ROH16647  13.703   6.669   9.535  0.0793 -0.2120 -0.0261
 1254ERGO    R116648  13.819   6.582   9.292  0.1195 -0.3029  0.0269
 1254ERGO    R216649  13.709   6.381   9.138 -0.0512 -0.1133 -0.0882
 1254ERGO    R316650  13.720   6.569   8.942  0.3263 -0.0804 -0.0451
 1254ERGO    R416651  13.686   6.315   8.800 -0.4954  0.0139 -0.0903
 1254ERGO    R516652  13.842   6.463   8.765 -0.0885 -0.3969 -0.1656
 1254ERGO    C116653  13.682   6.452   8.419 -0.3998  0.1188 -0.0510
 1254ERGO    C216654  13.667   6.500   8.123 -0.0745  0.0722  0.0628
 1255ERGO   ROH16655  12.352   4.887   6.366 -0.0298  0.1131 -0.0023
 1255ERGO    R116656  12.373   4.923   6.646  0.0444  0.0100  0.0056
 1255ERGO    R216657  12.508   5.137   6.758 -0.0339  0.0364  0.0461
 1255ERGO    R316658  12.272   5.175   6.888 -0.0113 -0.1433  0.1440
 1255ERGO    R416659  12.477   5.259   7.080  0.0027  0.2676 -0.0357
 1255ERGO    R516660  12.319   5.113   7.115  0.1944  0.0982  0.1734
 1255ERGO    C116661  12.238   5.365   7.390  0.0452  0.2336  0.0086
 1255ERGO    C216662  12.130   5.559   7.678  0.0846  0.2228  0.0611
 1256ERGO   ROH16663  10.596   1.651   9.737  0.0344 -0.1776  0.0696
 1256ERGO    R116664  10.659   1.494   9.510 -0.0640 -0.1369  0.0144
 1256ERGO    R216665  10.487   1.466   9.296 -0.0844  0.0382  0.0128
 1256ERGO    R316666  10.703   1.550   9.153 -0.0396 -0.0426  0.0305
 1256ERGO    R416667  10.549   1.386   8.966 -0.1358  0.0714 -0.0056
 1256ERGO    R516668  10.760   1.363   9.016 -0.1415 -0.0501 -0.0095
 1256ERGO    C116669  10.787   1.418   8.639 -0.1235  0.0150  0.0004
 1256ERGO    C216670  10.755   1.437   8.249 -0.1623 -0.0295 -0.4370
 1257ERGO   ROH16671  13.350   4.396   6.154  0.0094 -0.0386  0.0420
 1257ERGO    R116672  13.223   4.518   6.375 -0.0241 -0.0290  0.0163
 1257ERGO    R216673  13.216   4.402   6.626 -0.0139  0.0091  0.0296
 1257ERGO    R316674  13.323   4.639   6.704 -0.0651  0.0421  0.0043
 1257ERGO    R416675  13.260   4.500   6.954  0.1469 -0.0365  0.0236
 1257ERGO    R516676  13.196   4.700   6.897  0.0242 -0.0490  0.0970
 1257ERGO    C116677  13.386   4.779   7.219  0.1925 -0.0320 -0.0037
 1257ERGO    C216678  13.631   4.853   7.433 -0.1077 -0.1311  0.2192
 1258ERGO   ROH16679  16.354  11.081   9.731 -0.0956  0.0632 -0.0265
 1258ERGO    R116680  16.223  11.072   9.481 -0.0060  0.0946 -0.0746
 1258ERGO    R216681  16.357  11.015   9.245  0.0752  0.1115 -0.0323
 1258ERGO    R316682  16.166  10.824   9.221  0.0742  0.1234 -0.1207
 1258ERGO    R416683  16.160  10.968   8.965  0.0594  0.2589 -0.0471
 1258ERGO    R516684  15.990  10.930   9.097  0.0667  0.1895 -0.0553
 1258ERGO    C116685  15.867  10.760   8.779  0.0492  0.3559 -0.1387
 1258ERGO    C216686  15.705  10.743   8.588 -0.1052  0.0686  0.2679
 1259ERGO   ROH16687   6.005  13.273  10.246 -0.1965  0.1251 -0.0156
 1259ERGO    R116688   6.085  13.245   9.976 -0.1284  0.0893  0.0079
 1259ERGO    R216689   5.987  13.045   9.812 -0.1388  0.1085 -0.0100
 1259ERGO    R316690   5.923  13.254   9.650 -0.0345  0.1191 -0.0381
 1259ERGO    R416691   6.022  13.047   9.468  0.0012  0.1008  0.0039
 1259ERGO    R516692   6.093  13.253   9.482  0.0336  0.0874  0.0309
 1259ERGO    C116693   5.983  13.244   9.116  0.1805  0.1063 -0.0144
 1259ERGO    C216694   5.908  13.175   8.912 -0.1547  0.2608 -0.0558
 1260ERGO   ROH16695  12.729  11.661   6.584 -0.0735 -0.0175  0.0570
 1260ERGO    R116696  12.758  11.512   6.823  0.0195 -0.0856  0.0039
 1260ERGO    R216697  12.985  11.366   6.881  0.1063  0.0272 -0.0535
 1260ERGO    R316698  12.981  11.513   7.110  0.0259 -0.0563 -0.0008
 1260ERGO    R416699  13.097  11.255   7.189  0.1192 -0.0421 -0.0831
 1260ERGO    R516700  12.926  11.354   7.281  0.0700 -0.1413 -0.0636
 1260ERGO    C116701  13.158  11.327   7.583  0.0514 -0.1608 -0.0508
 1260ERGO    C216702  13.292  11.090   7.874 -0.2323  0.0551  0.0307
 1261ERGO   ROH16703   2.442  13.557   7.561 -0.0073  0.0575  0.0618
 1261ERGO    R116704   2.628  13.454   7.748  0.0436 -0.0075 -0.0247
 1261ERGO    R216705   2.558  13.388   8.007  0.1391  0.0102  0.0032
 1261ERGO    R316706   2.667  13.148   7.940  0.0328 -0.0250 -0.0487
 1261ERGO    R416707   2.682  13.157   8.233 -0.0483 -0.1312 -0.0352
 1261ERGO    R516708   2.847  13.119   8.096 -0.0257 -0.1703 -0.0027
 1261ERGO    C116709   2.857  12.798   8.302 -0.2572 -0.2466 -0.1065
 1261ERGO    C216710   2.962  12.569   8.526 -0.1461 -0.1243  0.0180
 1262ERGO   ROH16711  15.765   0.438   9.606 -0.0147  0.1147  0.0455
 1262ERGO    R116712  15.935   0.478   9.383 -0.0052  0.2121  0.0690
 1262ERGO    R216713  15.963   0.290   9.182  0.2810  0.1392  0.1684
 1262ERGO    R316714  15.895   0.499   9.021  0.0570 -0.0225  0.0479
 1262ERGO    R416715  16.042   0.316   8.846  0.2913  0.0591  0.1649
 1262ERGO    R516716  16.084   0.527   8.877  0.0404  0.1244  0.0579
 1262ERGO    C116717  16.025   0.526   8.501  0.0870 -0.1393  0.0499
 1262ERGO    C216718  16.114   0.412   8.213  0.1328  0.2007 -0.2157
 1263ERGO   ROH16719  14.772   7.465   9.493  0.1406  0.2030 -0.0548
 1263ERGO    R116720  14.933   7.465   9.260  0.0389  0.0291 -0.1276
 1263ERGO    R216721  14.872   7.314   9.037 -0.2779  0.1647 -0.1380
 1263ERGO    R316722  14.891   7.553   8.910  0.0041  0.1728 -0.0882
 1263ERGO    R416723  14.945   7.354   8.702 -0.2854  0.1420 -0.1421
 1263ERGO    R516724  15.071   7.524   8.754 -0.0568 -0.0251 -0.1257
 1263ERGO    C116725  15.005   7.602   8.387 -0.0252  0.1363 -0.0978
 1263ERGO    C216726  14.918   7.490   8.165  0.1318 -0.2277  0.0913
 1264ERGO   ROH16727   9.231   1.559   9.595 -0.1338  0.0506 -0.0785
 1264ERGO    R116728   9.170   1.369   9.393 -0.2517  0.0324 -0.0278
 1264ERGO    R216729   8.954   1.398   9.222 -0.0995  0.2470 -0.1988
 1264ERGO    R316730   9.144   1.369   9.031  0.0059 -0.1051 -0.0467
 1264ERGO    R416731   8.902   1.256   8.912 -0.1075  0.3412 -0.2397
 1264ERGO    R516732   9.095   1.158   8.929 -0.3002 -0.0168 -0.0832
 1264ERGO    C116733   9.051   1.145   8.551 -0.0133  0.0654 -0.1207
 1264ERGO    C216734   8.922   1.044   8.270 -0.1779 -0.3038 -0.1265
 1265ERGO   ROH16735  13.455   0.543   9.866  0.2243 -0.2070  0.0252
 1265ERGO    R116736  13.501   0.618   9.597  0.2949 -0.1566  0.0501
 1265ERGO    R216737  13.550   0.433   9.397  0.0696 -0.1427 -0.0257
 1265ERGO    R316738  13.341   0.558   9.275  0.2020  0.1471  0.0372
 1265ERGO    R416739  13.519   0.480   9.056 -0.0070 -0.1670 -0.0217
 1265ERGO    R516740  13.442   0.680   9.095  0.3088 -0.0398 -0.0296
 1265ERGO    C116741  13.306   0.624   8.743  0.0727  0.0910  0.0398
 1265ERGO    C216742  13.128   0.595   8.478  0.0808 -0.0149 -0.2915
 1266ERGO   ROH16743   8.564   8.351   9.217 -0.2487  0.0524  0.0949
 1266ERGO    R116744   8.673   8.441   8.972 -0.3017  0.0605  0.0744
 1266ERGO    R216745   8.875   8.306   8.840 -0.1368  0.2131  0.1682
 1266ERGO    R316746   8.701   8.313   8.632 -0.1120 -0.0605  0.1340
 1266ERGO    R416747   8.962   8.257   8.510  0.0067  0.3561  0.1831
 1266ERGO    R516748   8.825   8.417   8.455 -0.2416  0.1421  0.1600
 1266ERGO    C116749   8.850   8.235   8.121  0.1135  0.1827  0.1598
 1266ERGO    C216750   8.812   8.144   7.860 -0.0990  0.1425  0.0520
 1267ERGO   ROH16751  14.680  14.568   9.834 -0.0658  0.0099 -0.0669
 1267ERGO    R116752  14.890  14.699   9.698 -0.0930  0.2851  0.1476
 1267ERGO    R216753  15.081  14.850   9.829  0.0556 -0.1408  0.4443
 1267ERGO    R316754  15.254  14.686   9.697 -0.0972  0.1169 -0.1053
 1267ERGO    R416755  15.392  14.945   9.711  0.0589  0.0152  0.5764
 1267ERGO    R516756  15.354  14.827   9.531 -0.0902  0.5404  0.2417
 1267ERGO    C116757  15.735  14.847   9.519 -0.0825  0.3480  0.1374
 1267ERGO    C216758  15.974  14.821   9.474 -0.2465 -0.0329 -0.0363
 1268ERGO   ROH16759   8.915   0.369   9.987  0.1090 -0.0288 -0.0627
 1268ERGO    R116760   9.001   0.334   9.720  0.0479  0.0710 -0.0958
 1268ERGO    R216761   8.940   0.108   9.573  0.1683  0.0448 -0.1036
 1268ERGO    R316762   8.843   0.289   9.395 -0.0262 -0.0038 -0.0504
 1268ERGO    R416763   8.926   0.060   9.231 -0.0735  0.0050 -0.0903
 1268ERGO    R516764   8.988   0.268   9.204 -0.1606  0.0241 -0.1582
 1268ERGO    C116765   8.827   0.202   8.865 -0.3969 -0.0638 -0.0327
 1268ERGO    C216766   8.857   0.135   8.490  0.2071 -0.1365 -0.0958
 1269ERGO   ROH16767  16.911   4.317  10.027  0.0737  0.1166 -0.1771
 1269ERGO    R116768  16.978   4.300   9.753  0.0119  0.0551 -0.1891
 1269ERGO    R216769  17.061   4.064   9.635  0.1239  0.0565 -0.1249
 1269ERGO    R316770  16.857   4.116   9.462  0.0430 -0.1276 -0.0867
 1269ERGO    R416771  17.070   4.002   9.295  0.1685  0.2133 -0.1528
 1269ERGO    R516772  16.966   4.192   9.263 -0.0728  0.0952 -0.0643
 1269ERGO    C116773  16.884   4.015   8.935  0.1184  0.1318 -0.1331
 1269ERGO    C216774  17.006   3.941   8.647  0.0071  0.2177  0.2546
 1270ERGO   ROH16775  11.236   4.156   9.422  0.0907  0.1120 -0.1116
 1270ERGO    R116776  11.184   3.941   9.245  0.1292  0.0286 -0.0189
 1270ERGO    R216777  11.050   3.974   9.006  0.0367 -0.1143  0.0238
 1270ERGO    R316778  11.270   3.852   8.903  0.0511 -0.0565 -0.0204
 1270ERGO    R416779  11.080   3.866   8.679  0.0103 -0.0310 -0.0080
 1270ERGO    R516780  11.182   3.687   8.753  0.0509 -0.0409 -0.0513
 1270ERGO    C116781  11.305   3.689   8.392  0.0086  0.0716 -0.0683
 1270ERGO    C216782  11.324   3.668   8.026 -0.3456 -0.0810 -0.1677
 1271ERGO   ROH16783  13.252   1.498   9.969 -0.1161  0.0592  0.0578
 1271ERGO    R116784  13.115   1.471   9.722 -0.1595  0.0580  0.0824
 1271ERGO    R216785  12.960   1.673   9.615  0.0289  0.1505 -0.0134
 1271ERGO    R316786  13.120   1.636   9.398 -0.0222 -0.1202 -0.0090
 1271ERGO    R416787  12.847   1.648   9.289 -0.0180  0.2463 -0.0051
 1271ERGO    R516788  12.994   1.490   9.256 -0.2384  0.0260  0.0234
 1271ERGO    C116789  12.931   1.599   8.896 -0.0934  0.0479  0.0039
 1271ERGO    C216790  12.869   1.626   8.616  0.1472 -0.3616  0.3962
 1272ERGO   ROH16791  12.049   9.034   6.281 -0.2642  0.3487  0.2524
 1272ERGO    R116792  12.074   9.020   6.563 -0.3574 -0.0527  0.2459
 1272ERGO    R216793  12.127   8.784   6.695  0.1478 -0.1600 -0.1211
 1272ERGO    R316794  12.333   8.927   6.801 -0.2299  0.1713  0.1986
 1272ERGO    R416795  12.329   8.676   6.954  0.3666 -0.1669 -0.2913
 1272ERGO    R516796  12.323   8.879   7.036 -0.1701 -0.3195  0.1117
 1272ERGO    C116797  12.640   8.748   7.205  0.1395  0.1401 -0.0901
 1272ERGO    C216798  12.822   8.646   7.487 -0.1984 -0.1146 -0.1596
 1273ERGO   ROH16799   9.423   3.956   9.356 -0.0133  0.1828  0.0303
 1273ERGO    R116800   9.529   3.881   9.104 -0.0425  0.0014  0.0715
 1273ERGO    R216801   9.374   3.764   8.907 -0.1185  0.0747  0.0911
 1273ERGO    R316802   9.470   3.968   8.756  0.0910 -0.0632  0.0311
 1273ERGO    R416803   9.415   3.753   8.564 -0.4056  0.0227  0.0557
 1273ERGO    R516804   9.603   3.861   8.588 -0.2063 -0.2733 -0.0825
 1273ERGO    C116805   9.528   3.938   8.222 -0.3758 -0.1370 -0.0211
 1273ERGO    C216806   9.293   3.806   7.999 -0.1151  0.0043  0.1220
 1274ERGO   ROH16807  13.708   9.989   9.533  0.0208  0.1856 -0.1068
 1274ERGO    R116808  13.583   9.966   9.280 -0.1301  0.3106 -0.0478
 1274ERGO    R216809  13.546  10.182   9.112  0.1691  0.3291 -0.1132
 1274ERGO    R316810  13.676  10.024   8.933 -0.1668  0.0330 -0.1030
 1274ERGO    R416811  13.506  10.196   8.769  0.2645  0.4345 -0.1187
 1274ERGO    R516812  13.513   9.979   8.763 -0.2404  0.4174 -0.1316
 1274ERGO    C116813  13.605  10.056   8.401  0.0047  0.2180 -0.1124
 1274ERGO    C216814  13.672   9.956   8.002  0.0518 -0.1466 -0.3902
 1275ERGO   ROH16815   3.602  10.232   9.647  0.0523 -0.0940  0.1068
 1275ERGO    R116816   3.676  10.138   9.391  0.1033 -0.0125  0.0912
 1275ERGO    R216817   3.555  10.226   9.159  0.0717 -0.0224  0.1047
 1275ERGO    R316818   3.810  10.281   9.084  0.0502  0.1057  0.1224
 1275ERGO    R416819   3.648  10.354   8.852  0.0259  0.0546  0.1225
 1275ERGO    R516820   3.819  10.220   8.853  0.0896  0.1343  0.1159
 1275ERGO    C116821   3.941  10.481   8.603 -0.0210  0.2195  0.1495
 1275ERGO    C216822   3.903  10.499   8.179  0.1381 -0.0855  0.0548
 1276ERGO   ROH16823   4.528  11.132  10.215 -0.0115  0.3065 -0.0567
 1276ERGO    R116824   4.424  11.174   9.955 -0.1044  0.2922 -0.0224
 1276ERGO    R216825   4.332  10.967   9.796  0.1203  0.2456 -0.0958
 1276ERGO    R316826   4.107  11.118   9.785 -0.0678 -0.0206  0.0066
 1276ERGO    R416827   4.194  11.096   9.506 -0.1440  0.1219 -0.0280
 1276ERGO    R516828   4.151  11.280   9.614 -0.3248  0.0579  0.0105
 1276ERGO    C116829   3.902  11.313   9.327 -0.4744 -0.2000  0.1077
 1276ERGO    C216830   3.799  11.398   8.987 -0.2168 -0.1304  0.2064
 1277ERGO   ROH16831  12.509   3.488   9.559  0.1056 -0.1523  0.0007
 1277ERGO    R116832  12.462   3.520   9.281  0.0648 -0.2418 -0.0025
 1277ERGO    R216833  12.657   3.607   9.106 -0.0017 -0.1655 -0.0346
 1277ERGO    R316834  12.593   3.379   8.973  0.1230 -0.2324  0.0171
 1277ERGO    R416835  12.670   3.567   8.763 -0.1460 -0.1759 -0.0397
 1277ERGO    R516836  12.484   3.454   8.774 -0.0477 -0.3361  0.0666
 1277ERGO    C116837  12.617   3.330   8.438 -0.1130 -0.2448  0.0058
 1277ERGO    C216838  12.562   3.046   8.185 -0.1827 -0.1650  0.3285
 1278ERGO   ROH16839   0.281  12.246   6.224 -0.0917 -0.0981 -0.0565
 1278ERGO    R116840   0.295  12.143   6.488  0.0193 -0.0760 -0.0522
 1278ERGO    R216841   0.070  12.098   6.642  0.0865  0.0382  0.0893
 1278ERGO    R316842   0.174  11.848   6.663 -0.0088 -0.0044  0.0478
 1278ERGO    R416843   0.050  11.899   6.924  0.2798  0.1155  0.1577
 1278ERGO    R516844   0.256  11.836   6.887  0.2122  0.0117 -0.0331
 1278ERGO    C116845   0.137  11.549   7.108  0.3029  0.1205  0.1585
 1278ERGO    C216846   0.006  11.606   7.399 -0.2585  0.2442 -0.0563
 1279ERGO   ROH16847  16.496  16.401   9.942 -0.0011  0.1064 -0.0155
 1279ERGO    R116848  16.547  16.497   9.680  0.1477  0.0607 -0.0044
 1279ERGO    R216849  16.783  16.445   9.546  0.1301 -0.1646  0.0449
 1279ERGO    R316850  16.616  16.352   9.354  0.0791 -0.0042  0.0105
 1279ERGO    R416851  16.845  16.461   9.207  0.1779 -0.1602  0.0540
 1279ERGO    R516852  16.635  16.512   9.176  0.2216  0.0074  0.0378
 1279ERGO    C116853  16.724  16.383   8.828  0.1577 -0.0068  0.0270
 1279ERGO    C216854  16.737  16.356   8.442  0.0332  0.1396 -0.1804
 1280ERGO   ROH16855   7.181   2.496   9.775 -0.2040  0.0226  0.0042
 1280ERGO    R116856   7.186   2.395   9.510 -0.1239 -0.0167  0.0197
 1280ERGO    R216857   6.965   2.280   9.390 -0.0744 -0.0881 -0.0126
 1280ERGO    R316858   7.014   2.465   9.197 -0.0749 -0.1029 -0.0256
 1280ERGO    R416859   6.944   2.222   9.050  0.1141 -0.1598 -0.0125
 1280ERGO    R516860   7.123   2.342   9.023  0.0653 -0.0797  0.0485
 1280ERGO    C116861   6.978   2.362   8.671  0.2234 -0.2153 -0.0247
 1280ERGO    C216862   6.892   2.167   8.375  0.4296  0.1554  0.0127
 1281ERGO   ROH16863   4.350   5.761   6.029 -0.2592 -0.0633 -0.1091
 1281ERGO    R116864   4.162   5.883   6.202 -0.2488 -0.1078 -0.0664
 1281ERGO    R216865   4.005   5.737   6.377 -0.0165 -0.1267  0.1289
 1281ERGO    R316866   4.110   5.907   6.561 -0.0371  0.0804 -0.0462
 1281ERGO    R416867   3.871   5.797   6.690  0.2393 -0.2012  0.2558
 1281ERGO    R516868   3.919   6.008   6.665 -0.0667 -0.1386  0.1240
 1281ERGO    C116869   3.891   5.991   7.045  0.3689 -0.0502  0.1653
 1281ERGO    C216870   3.880   5.858   7.465  0.0668  0.0748 -0.2696
 1282ERGO   ROH16871   0.497   8.893   6.390  0.0982  0.3414  0.0659
 1282ERGO    R116872   0.437   8.773   6.639  0.1072  0.1215 -0.0363
 1282ERGO    R216873   0.615   8.608   6.771  0.2059  0.2010 -0.0745
 1282ERGO    R316874   0.573   8.781   6.976 -0.0395  0.0272  0.0270
 1282ERGO    R416875   0.695   8.545   7.101  0.3393  0.1320 -0.1188
 1282ERGO    R516876   0.508   8.641   7.159  0.1913 -0.1826 -0.0429
 1282ERGO    C116877   0.702   8.671   7.487  0.1867 -0.0712 -0.0494
 1282ERGO    C216878   0.804   8.654   7.967 -0.1334  0.1652 -0.0630
 1283ERGO   ROH16879  15.696  12.748   9.705  0.2710 -0.2044 -0.0837
 1283ERGO    R116880  15.711  12.856   9.444 -0.0473 -0.1732 -0.0952
 1283ERGO    R216881  15.952  12.898   9.314 -0.1815  0.0990 -0.2833
 1283ERGO    R316882  15.836  12.747   9.120 -0.1715 -0.0268 -0.1909
 1283ERGO    R416883  16.023  12.920   8.976 -0.1555 -0.1557 -0.2961
 1283ERGO    R516884  15.810  12.896   8.935 -0.1433 -0.1667 -0.3004
 1283ERGO    C116885  15.955  12.792   8.598 -0.1311 -0.4222 -0.2167
 1283ERGO    C216886  15.885  12.805   8.246  0.0503  0.0142  0.0955
 1284ERGO   ROH16887   0.939  13.024   6.967  0.1830  0.0211 -0.0758
 1284ERGO    R116888   1.048  12.989   7.226  0.0325 -0.0022 -0.0146
 1284ERGO    R216889   0.891  12.933   7.447 -0.0978 -0.0210 -0.1079
 1284ERGO    R316890   1.061  12.723   7.473 -0.1142 -0.0243 -0.0308
 1284ERGO    R416891   0.979  12.787   7.747 -0.0576  0.1176 -0.0517
 1284ERGO    R516892   1.183  12.770   7.674 -0.0747  0.0610 -0.0773
 1284ERGO    C116893   1.190  12.504   7.947 -0.0496  0.1954  0.0534
 1284ERGO    C216894   1.534  12.349   8.032 -0.2287 -0.1548  0.1282
 1285ERGO   ROH16895  17.478   9.572   9.835  0.0755 -0.0739  0.0398
 1285ERGO    R116896  17.573   9.614   9.572  0.1907 -0.1173  0.0740
 1285ERGO    R216897  17.650   9.407   9.406 -0.0948 -0.1742  0.0106
 1285ERGO    R316898  17.471   9.521   9.236  0.1072  0.1664  0.0169
 1285ERGO    R416899  17.681   9.412   9.062 -0.0972 -0.2488  0.0092
 1285ERGO    R516900  17.606   9.617   9.063  0.2915 -0.0961  0.0064
 1285ERGO    C116901  17.531   9.522   8.702  0.0909  0.0273  0.0144
 1285ERGO    C216902  17.682   9.369   8.494  0.0239 -0.2312 -0.0096
 1286W        W16903  14.548  17.065  15.596  0.3249 -0.0328 -0.0604
 1287W        W16904   2.990   2.135  12.762 -0.0131  0.0963  0.0655
 1288W        W16905   4.777  13.601   1.040 -0.1846 -0.0253 -0.1466
 1289W        W16906   3.439  16.036   4.776  0.0841 -0.0320  0.3245
 1290W        W16907   1.745  16.516  14.791 -0.4469 -0.0779 -0.0507
 1291W        W16908   7.741   4.696  15.281 -0.2378 -0.1625  0.1150
 1292W        W16909   0.641  10.622   5.377 -0.1498  0.0358  0.3370
 1293W        W16910  14.549   2.980   1.442 -0.0754  0.1470  0.5091
 1294W        W16911  10.647   0.831   1.122 -0.1417  0.0511  0.1440
 1295W        W16912   5.943   6.780   0.640  0.3103  0.1127 -0.0355
 1296W        W16913  10.588   8.209   2.771  0.1369  0.3865  0.0703
 1297W        W16914   8.739  15.564   0.358  0.0486  0.3900  0.1192
 1298W        W16915  11.112  12.581  14.381  0.1291 -0.1392  0.0062
 1299W        W16916  13.082   2.572   2.730  0.1232 -0.1366  0.0451
 1300W        W16917  16.170   1.557   2.318 -0.0887 -0.2780 -0.1714
 1301W        W16918  10.822   5.613   3.401 -0.0136 -0.1954  0.2814
 1302W        W16919  16.443  17.252  14.161 -0.1497 -0.3298 -0.3129
 1303W        W16920   4.683   1.272   2.077  0.1403  0.2159 -0.0163
 1304W        W16921   9.033   3.133  14.314 -0.3520  0.1462  0.1379
 1305W        W16922   2.108  11.290   4.536 -0.0229 -0.3366  0.0575
 1306W        W16923  17.759  17.040   5.196 -0.2100  0.0328 -0.2727
 1307W        W16924   1.202   2.572   4.262 -0.0712  0.0551  0.0916
 1308W        W16925  15.974  11.991   3.141 -0.1988  0.3243 -0.2692
 1309W        W16926   6.738   9.460  12.630  0.1172  0.2113 -0.1521
 1310W        W16927   4.462   3.636   5.534  0.1118 -0.0449  0.0829
 1311W        W16928   7.333  10.766  13.861  0.0534 -0.0151 -0.1154
 1312W        W16929   4.903  11.043  15.343  0.4107  0.0337 -0.0178
 1313W        W16930   6.502  17.560  14.824  0.0752 -0.1316  0.1559
 1314W        W16931   6.748  12.320   0.330 -0.1737  0.2650 -0.4902
 1315W        W16932   9.225  12.907  13.125 -0.0673 -0.3045 -0.1625
 1316W        W16933   5.930   7.219   1.292 -0.3302 -0.1588 -0.1115
 1317W        W16934  11.734  12.557  13.868 -0.1082  0.0753 -0.3106
 1318W        W16935   0.298  15.978   3.641 -0.0182  0.0034 -0.1784
 1319W        W16936   3.795   2.676  14.021  0.2456  0.0111  0.3001
 1320W        W16937   3.816  11.584   1.859 -0.3366  0.5396 -0.1694
 1321W        W16938   7.479   1.142  15.429  0.3364 -0.0069  0.0254
 1322W        W16939   4.629  14.868   2.737  0.4026 -0.2047 -0.0990
 1323W        W16940   7.646   1.372   4.721  0.1906  0.1191 -0.3848
 1324W        W16941  12.864   6.854   5.906 -0.2476  0.0127  0.2814
 1325W        W16942  11.635  10.324  11.511 -0.5754 -0.0236 -0.0814
 1326W        W16943   7.597   3.607  14.588 -0.3140 -0.1833 -0.3462
 1327W        W16944  11.928  12.686   4.638 -0.1773  0.2334 -0.1715
 1328W        W16945  16.324   1.083  14.622 -0.1452  0.2901  0.2185
 1329W        W16946  16.127   7.700  13.072 -0.0117 -0.0366 -0.0707
 1330W        W16947   1.685   5.046   4.078  0.0817  0.1832 -0.0909
 1331W        W16948  15.481  11.542   3.842 -0.0718  0.2289 -0.0615
 1332W        W16949   4.410  10.176   3.251 -0.0837 -0.2620  0.0556
 1333W        W16950   6.465   2.840   5.062  0.1085  0.1175  0.1531
 1334W        W16951   1.021   0.992   5.107 -0.1399  0.0651  0.1515
 1335W        W16952  11.495  15.545  11.392  0.0469  0.2040  0.1060
 1336W        W16953  16.086  17.405   5.050 -0.1210  0.0664 -0.0425
 1337W        W16954  16.812  14.462  12.645 -0.1146  0.0764  0.2710
 1338W        W16955  12.104   7.435  10.578 -0.0564 -0.1930 -0.4019
 1339W        W16956   9.929   8.425  10.127  0.2014  0.0426 -0.0854
 1340W        W16957  14.089  11.612  12.884  0.0534 -0.2680 -0.2187
 1341W        W16958   8.254   0.043   4.220 -0.0768  0.1997  0.1032
 1342W        W16959  16.099   6.848   0.041  0.3677  0.1951  0.0104
 1343W        W16960   1.168   1.484  14.562 -0.2944  0.0254  0.0517
 1344W        W16961  13.044  17.470  14.030 -0.0905  0.0212  0.1447
 1345W        W16962  15.708   3.578  14.513  0.0280  0.0447  0.2306
 1346W        W16963  18.190   6.606   1.771  0.3694  0.2364 -0.3188
 1347W        W16964   5.114  17.515   2.267 -0.0102  0.0646 -0.1270
 1348W        W16965   7.737  12.339   0.783  0.0288  0.0546 -0.2098
 1349W        W16966   3.237  17.562   1.173 -0.1536  0.0648  0.2824
 1350W        W16967   6.438   8.748  10.886  0.0546  0.0018  0.0574
 1351W        W16968  17.408  16.751  12.597  0.2528  0.3524  0.1445
 1352W        W16969   8.753   5.571   4.538  0.1546  0.1403  0.2684
 1353W        W16970   9.219   7.679   1.708  0.4678  0.5477  0.0849
 1354W        W16971   8.225  14.783  15.384 -0.1135  0.1606 -0.0756
 1355W        W16972  16.997   9.431   0.037  0.1066 -0.1682  0.1693
 1356W        W16973   6.616  11.779   5.956  0.0183  0.0886 -0.0962
 1357W        W16974  18.345   6.494  12.157 -0.1335  0.1077  0.0376
 1358W        W16975   3.258   8.405  15.048 -0.3058 -0.4495 -0.0697
 1359W        W16976   5.282   0.565  11.396 -0.3406  0.3054 -0.1192
 1360W        W16977   9.895   0.147  12.393  0.0284  0.1875 -0.0317
 1361W        W16978  16.042  18.229  11.237  0.1026 -0.1104 -0.1773
 1362W        W16979  15.501   4.107  12.545 -0.0547  0.1194 -0.1222
 1363W        W16980   7.760  13.741   2.801  0.0275 -0.2458  0.1049
 1364W        W16981   6.388  10.252   5.836 -0.1279  0.0181 -0.0748
 1365W        W16982  10.421  11.377  12.247 -0.0609 -0.0737  0.0181
 1366W        W16983  10.504  16.625  12.194 -0.1315  0.4501  0.3050
 1367W        W16984  15.215   5.958  13.904 -0.2028  0.3917  0.0345
 1368W        W16985   8.320  17.004   3.166  0.1600  0.0396 -0.0767
 1369W        W16986   6.490  18.010  13.832 -0.0125 -0.2147  0.2640
 1370W        W16987   7.582   7.040  11.055  0.0340 -0.2622  0.1833
 1371W        W16988   7.660  17.252   1.363  0.2384  0.4000 -0.0472
 1372W        W16989  15.626  10.841  16.087 -0.1662 -0.1168  0.2910
 1373W        W16990   8.244  17.708   4.784  0.2947 -0.0586  0.1350
 1374W        W16991  13.216   6.542   4.813  0.3465 -0.1373  0.4044
 1375W        W16992  14.394  15.350  12.207  0.2664 -0.3907 -0.0145
 1376W        W16993   5.923  13.009  13.716 -0.0833 -0.0397 -0.1204
 1377W        W16994  14.563  12.476  15.168 -0.1675  0.2721 -0.1700
 1378W        W16995   0.994   6.115   1.893  0.1317 -0.0870 -0.1866
 1379W        W16996   5.794  13.424  11.162  0.1457  0.1747 -0.1252
 1380W        W16997  11.452   4.528  12.238  0.1133 -0.1245 -0.3923
 1381W        W16998   9.765  11.403  10.375  0.0113  0.2381 -0.2976
 1382W        W16999   5.473   9.652  10.546 -0.2133 -0.1462  0.1595
 1383W        W17000   3.577   4.913  16.106  0.0145 -0.0048  0.2820
 1384W        W17001  13.807   5.577   1.988 -0.2655  0.1738 -0.2000
 1385W        W17002   0.140   3.242  13.957 -0.3167 -0.2880  0.0398
 1386W        W17003   9.132   5.463  10.853 -0.1963  0.1345 -0.2444
 1387W        W17004  17.826  14.114   4.337  0.1045 -0.2313  0.2148
 1388W        W17005  15.853   9.265   5.735  0.0166 -0.1358 -0.0503
 1389W        W17006  10.431   4.825   2.359  0.2828  0.0877  0.1927
 1390W        W17007  11.752  11.471   1.521  0.0002 -0.1587  0.3107
 1391W        W17008   6.266  12.220   0.922 -0.2190 -0.1402  0.2008
 1392W        W17009  13.676   3.268  14.479  0.1047 -0.0064  0.2716
 1393W        W17010   1.194   4.562   0.981 -0.2599 -0.0949 -0.1149
 1394W        W17011  13.590   9.212  15.364 -0.2450  0.0305 -0.2681
 1395W        W17012  13.271   9.098  15.831  0.0659  0.0761  0.0958
 1396W        W17013   7.797   0.558   2.831  0.3303  0.1852 -0.1358
 1397W        W17014   4.202  17.519  15.269 -0.0369  0.1740 -0.0905
 1398W        W17015  17.946  14.434  12.988  0.3309  0.0023  0.1227
 1399W        W17016  11.869   8.445  15.207  0.2853 -0.0178  0.1660
 1400W        W17017  11.286   6.183  13.115 -0.0634  0.0006  0.1607
 1401W        W17018  11.299  16.049  12.054 -0.0935  0.1724  0.1039
 1402W        W17019   0.398  13.183  13.356  0.3453  0.0523  0.1092
 1403W        W17020   1.740   6.694   4.356  0.0576 -0.0109  0.3547
 1404W        W17021   2.523  16.401   5.217 -0.2983  0.0330 -0.0551
 1405W        W17022   7.961   1.681   2.517  0.3863  0.0270 -0.1597
 1406W        W17023  10.512  11.338  15.121  0.1525  0.2723  0.1685
 1407W        W17024   5.167   6.238  12.966 -0.1219 -0.0756 -0.2363
 1408W        W17025   9.395   2.440   5.912  0.1445  0.0620  0.0404
 1409W        W17026  16.753   1.830   1.841  0.1391 -0.2290  0.0435
 1410W        W17027  10.460   5.612  11.672 -0.1074 -0.0201  0.2577
 1411W        W17028  13.386  14.128  11.562 -0.2483 -0.2506 -0.6218
 1412W        W17029  17.343   7.076  14.522 -0.1278 -0.0985  0.3038
 1413W        W17030   1.976  13.520   6.001  0.3316 -0.0709 -0.2460
 1414W        W17031   3.761   2.374   4.669 -0.1683  0.1401  0.1695
 1415W        W17032   1.292  17.618   3.564 -0.2585  0.1058 -0.3007
 1416W        W17033  13.898  17.938  12.811  0.0218  0.2237 -0.1135
 1417W        W17034  17.301   2.422  15.765 -0.0373 -0.2065  0.0071
 1418W        W17035  11.969   1.139  16.014 -0.0386  0.2719  0.1135
 1419W        W17036  13.309  15.601  11.451  0.0623 -0.0094 -0.1245
 1420W        W17037   3.442  17.225   1.502 -0.2864  0.0395 -0.0286
 1421W        W17038   1.302   0.745  13.905 -0.1677 -0.1658  0.0044
 1422W        W17039   8.437   9.266  14.535  0.0916  0.2011 -0.0556
 1423W        W17040  17.813  10.974   3.901  0.1546 -0.0949  0.5205
 1424W        W17041   9.773  14.381   1.778 -0.1928 -0.1147  0.1116
 1425W        W17042   6.420   7.314   4.077 -0.1589  0.1272  0.2084
 1426W        W17043  11.199   8.400  15.376  0.1040 -0.1041  0.1207
 1427W        W17044   5.446   4.939  14.496 -0.1323 -0.1085  0.1009
 1428W        W17045   6.318  12.044   3.082 -0.0084 -0.1563  0.4509
 1429W        W17046  10.241  15.962   0.078  0.1971  0.0286  0.1944
 1430W        W17047   4.694  14.661  15.577  0.2112 -0.2473 -0.1222
 1431W        W17048   3.273  17.363  13.855  0.1583  0.0965 -0.4726
 1432W        W17049  10.653   6.420  12.042  0.0387  0.0274  0.0851
 1433W        W17050   4.107  10.628   4.524  0.2977 -0.0062 -0.4278
 1434W        W17051  14.940   3.032  14.754  0.3058 -0.0860 -0.2159
 1435W        W17052  17.582   4.209  12.955  0.5951 -0.1904  0.0463
 1436W        W17053  16.671  12.027   0.221  0.0427 -0.2675 -0.4696
 1437W        W17054   5.471  15.356   3.088  0.1707 -0.2229 -0.0667
 1438W        W17055  11.385  17.635   4.567  0.1881 -0.0340 -0.2044
 1439W        W17056   7.555   0.999  11.661  0.3737  0.0467 -0.0214
 1440W        W17057   2.562  15.521   4.622  0.1572  0.4163  0.2959
 1441W        W17058  10.426  13.487  14.368 -0.1492  0.0430  0.2540
 1442W        W17059  15.568  17.781  12.659 -0.1983  0.1076 -0.3652
 1443W        W17060   1.225  13.116   0.249  0.1615  0.4342 -0.1790
 1444W        W17061   3.500  12.266   4.183  0.2837 -0.1069  0.0553
 1445W        W17062  10.603  17.369  14.868  0.1420  0.2035 -0.0610
 1446W        W17063  13.849  15.144  13.917 -0.0318  0.1435 -0.0999
 1447W        W17064   4.320  17.362   2.956  0.0466  0.0848 -0.0244
 1448W        W17065  15.579  14.079   0.615 -0.0448 -0.2221  0.1100
 1449W        W17066   5.507   2.601  14.559 -0.1852  0.3408 -0.0570
 1450W        W17067   0.025   2.216  12.888 -0.2236 -0.1606  0.0190
 1451W        W17068  17.164   3.828  13.690 -0.1748  0.0790 -0.0656
 1452W        W17069  17.690   4.455  15.759  0.0906  0.1564 -0.0632
 1453W        W17070   7.132  16.624   5.997  0.0009 -0.1450 -0.0255
 1454W        W17071  10.761   2.916   5.840 -0.3092  0.2170  0.2905
 1455W        W17072   6.461   1.685  10.798 -0.1447 -0.2011  0.1708
 1456W        W17073  15.718  12.250   3.498  0.0012  0.0812  0.0881
 1457W        W17074   4.185  15.434  14.192  0.0273 -0.0465 -0.1649
 1458W        W17075  15.759   8.392  14.333 -0.2844  0.1909  0.2134
 1459W        W17076   2.788   7.491  11.135 -0.1357  0.1703  0.3666
 1460W        W17077   6.249  17.857   2.054  0.0592  0.3380  0.3508
 1461W        W17078   0.903   2.259  12.846  0.0475  0.0811 -0.0110
 1462W        W17079  16.550  16.114   3.168  0.0287 -0.0888  0.0094
 1463W        W17080  13.162   8.753   2.953  0.0016 -0.2091 -0.0328
 1464W        W17081  11.360  17.770  12.388  0.0915 -0.1361  0.0959
 1465W        W17082  13.746   9.578   0.190  0.2283  0.0237 -0.1053
 1466W        W17083   0.760   5.629   5.128 -0.0752 -0.2504 -0.0223
 1467W        W17084   0.907   0.921   0.787 -0.0961 -0.1378 -0.3494
 1468W        W17085   4.409   8.150  10.425 -0.0921  0.2650  0.0941
 1469W        W17086   7.302   0.371   2.667 -0.1104  0.0249  0.1090
 1470W        W17087  14.887   1.650   5.919 -0.0214  0.1036 -0.0048
 1471W        W17088   5.196  11.287   2.054  0.0892 -0.0521  0.1458
 1472W        W17089  11.320   2.518   0.039 -0.1619  0.1704  0.1135
 1473W        W17090  11.608  14.706  11.754 -0.0335 -0.0946  0.1252
 1474W        W17091   6.798   7.918  13.723 -0.2516  0.1339 -0.0940
 1475W        W17092  10.131  13.552  11.664  0.1348  0.1824 -0.0546
 1476W        W17093   3.080  14.840   0.275  0.4826  0.0126 -0.2019
 1477W        W17094  17.079  13.830   0.384 -0.1148 -0.1469 -0.0182
 1478W        W17095  17.504  10.777  12.703  0.0075  0.1147  0.2643
 1479W        W17096   9.751  16.546  13.759 -0.3916 -0.0363  0.2572
 1480W        W17097  16.390  18.432  14.252  0.2134  0.3010 -0.0071
 1481W        W17098  10.233   0.572  15.437  0.3226 -0.3236 -0.2484
 1482W        W17099  14.071  13.847   1.442  0.0532  0.0026  0.1107
 1483W        W17100   3.911  14.678   6.110  0.2293  0.1259  0.2239
 1484W        W17101  16.225   5.796  11.899 -0.1143 -0.2688  0.0088
 1485W        W17102  12.789  16.037  15.980 -0.1817 -0.0702  0.1128
 1486W        W17103   3.749   0.874   5.234  0.0342 -0.1137  0.2480
 1487W        W17104  11.290   1.839   0.094 -0.0321 -0.0132 -0.0773
 1488W        W17105   7.477   8.346   3.009 -0.1446 -0.0649  0.0392
 1489W        W17106  18.203  16.532  13.555  0.1424 -0.1192 -0.0168
 1490W        W17107   6.230   7.782   4.204 -0.0327  0.2141  0.1362
 1491W        W17108   7.678   5.426  13.974 -0.0330  0.2354 -0.1522
 1492W        W17109   5.538   0.901   0.648 -0.0936  0.2062 -0.2315
 1493W        W17110   4.204  15.327   1.510 -0.2462  0.0510 -0.3510
 1494W        W17111  15.708   2.861  13.872 -0.0046 -0.2222  0.2477
 1495W        W17112   1.689   7.782  14.022  0.2109  0.1906  0.1046
 1496W        W17113  17.306   4.333   2.133  0.1878  0.1935  0.1251
 1497W        W17114   8.636  11.728  15.696 -0.1468 -0.0093 -0.0530
 1498W        W17115  17.710  13.834   5.445  0.2461  0.1652 -0.1507
 1499W        W17116  17.969   4.143  12.554  0.0415  0.2127  0.1075
 1500W        W17117   2.348   6.710  10.737  0.2203  0.2408  0.0718
 1501W        W17118   7.998   7.358  12.866  0.1203  0.2463 -0.1778
 1502W        W17119   7.941  12.686   4.318  0.2202  0.1821 -0.2954
 1503W        W17120   6.719  16.429   5.757  0.0412 -0.1638  0.0336
 1504W        W17121  12.395   2.645  15.448 -0.0182 -0.0558  0.2910
 1505W        W17122   4.555   1.781   2.212  0.0861 -0.0690 -0.0927
 1506W        W17123  14.895   4.732  11.326  0.0601 -0.1566 -0.2324
 1507W        W17124  15.157   8.722   1.625 -0.0675 -0.0488 -0.1382
 1508W        W17125  14.915   8.910  14.535  0.1152 -0.1027  0.2868
 1509W        W17126   9.023   1.909  15.908  0.2929 -0.2886 -0.0375
 1510W        W17127   7.640   2.403  12.361  0.2053  0.1019  0.0827
 1511W        W17128   9.222   4.677  10.455  0.0620  0.0303 -0.2187
 1512W        W17129  14.235   2.961   0.868  0.2607  0.0099 -0.3184
 1513W        W17130   2.611  12.030   3.017  0.1361 -0.1602 -0.1410
 1514W        W17131  17.005   9.018   4.135  0.1394 -0.0356  0.3334
 1515W        W17132   3.322   8.459  10.826  0.0956 -0.1238  0.0401
 1516W        W17133  11.610   4.951  13.459  0.2338 -0.1323  0.2638
 1517W        W17134  14.822  18.411  14.912  0.0353 -0.0411  0.0392
 1518W        W17135   8.574  11.874   4.894  0.1917  0.3527 -0.2384
 1519W        W17136  16.071  16.170  13.434  0.2738 -0.0688  0.1932
 1520W        W17137  17.820   4.546  14.576  0.0059 -0.0225  0.1131
 1521W        W17138  16.814   8.284  15.636 -0.0690  0.2344 -0.1150
 1522W        W17139   7.350   6.215  14.209 -0.2244  0.1505  0.3576
 1523W        W17140  10.028  12.732   4.146 -0.1841 -0.1579  0.1379
 1524W        W17141  13.948  15.344   4.133  0.2197  0.3035  0.5087
 1525W        W17142  16.408  13.752   3.331  0.2031 -0.2545  0.1400
 1526W        W17143  13.447   0.856  11.606 -0.2152  0.0650  0.0017
 1527W        W17144  10.002   0.373  15.893  0.2465 -0.0726  0.0929
 1528W        W17145   5.477  17.523  15.518 -0.0196  0.3290  0.0373
 1529W        W17146   9.698   1.904  13.955  0.1218  0.3566  0.3749
 1530W        W17147   2.802   0.582  14.377  0.0160  0.2984 -0.0244
 1531W        W17148   8.096   8.086  12.957  0.0419  0.1943 -0.3379
 1532W        W17149  15.512   8.174   2.029  0.0404 -0.1232 -0.1280
 1533W        W17150  13.187   0.305   1.068  0.0222 -0.2763  0.3845
 1534W        W17151   1.709   8.452  12.438 -0.2754 -0.0318 -0.1663
 1535W        W17152  13.424  13.804   0.153  0.1529  0.3428 -0.3254
 1536W        W17153   9.373  14.959  14.640  0.1766  0.0174 -0.2581
 1537W        W17154  16.398   7.314   0.887 -0.3242  0.3095  0.0792
 1538W        W17155   4.188  14.155   3.278  0.1143  0.3604  0.2241
 1539W        W17156   4.056  13.595   4.017 -0.1014  0.1957 -0.0858
 1540W        W17157  14.249   7.557  13.545  0.0783  0.0508  0.0282
 1541W        W17158   9.112   0.776   3.127 -0.0370 -0.3931 -0.1485
 1542W        W17159  15.863  10.729  11.543  0.1220  0.0275 -0.2113
 1543W        W17160   1.712  17.792  15.711  0.0460  0.2187  0.1864
 1544W        W17161  11.157  14.527  11.880 -0.1139  0.0380  0.0326
 1545W        W17162   0.994   3.017   0.167 -0.2358  0.1168 -0.0974
 1546W        W17163   2.734  13.974  12.286  0.1753  0.0889 -0.0905
 1547W        W17164  15.940   0.851  13.763  0.2358 -0.1485 -0.0768
 1548W        W17165  16.401  11.645   0.289  0.1932 -0.0529 -0.0343
 1549W        W17166   9.481   6.585   3.727 -0.0512  0.0124  0.4232
 1550W        W17167   5.798  17.964  12.553  0.1297  0.1776 -0.1669
 1551W        W17168  11.784   2.297  12.760  0.1540  0.2339 -0.2038
 1552W        W17169   5.746   4.655   4.697 -0.0230 -0.1639 -0.1555
 1553W        W17170  17.457   9.311   0.262  0.2077 -0.1588  0.1919
 1554W        W17171  10.893   4.677  13.187 -0.1116  0.2110 -0.2537
 1555W        W17172  13.028   8.461   2.090  0.1984 -0.0796 -0.0195
 1556W        W17173   4.820  17.189   0.916 -0.0196  0.1207  0.1399
 1557W        W17174   5.003  15.975   4.958  0.2046  0.1204  0.0858
 1558W        W17175   6.399  14.326  12.520  0.1367 -0.1548  0.0200
 1559W        W17176   5.468   8.120  13.576  0.0073 -0.1776  0.1303
 1560W        W17177   6.712   4.354  14.307 -0.0247 -0.0215  0.1035
 1561W        W17178  14.801  15.882  14.899 -0.2614  0.0416 -0.0029
 1562W        W17179   4.904   5.009   5.025  0.0625 -0.1190  0.3100
 1563W        W17180   2.368  12.475  14.464 -0.2514  0.1946 -0.0942
 1564W        W17181   6.128   1.943   0.641 -0.2144  0.2698 -0.0459
 1565W        W17182   4.945   8.617   0.056 -0.1086 -0.2310 -0.0293
 1566W        W17183   0.237   0.103   0.363 -0.1090 -0.0183  0.1310
 1567W        W17184   7.972  14.368   5.085  0.1605  0.0628 -0.0311
 1568W        W17185   6.660  10.908  16.032  0.3452 -0.0812 -0.0679
 1569W        W17186  12.667  10.827  15.162  0.2321 -0.1437 -0.0673
 1570W        W17187  13.217   2.811  10.367 -0.2599 -0.0291  0.0448
 1571W        W17188  17.445   3.525  14.651  0.1443  0.2882  0.0338
 1572W        W17189   1.708   3.912   2.543  0.1180  0.2103 -0.0231
 1573W        W17190  17.528  14.910  11.652  0.1468  0.0338  0.2144
 1574W        W17191  10.087   6.377  10.328 -0.2103  0.1391  0.0809
 1575W        W17192   1.500   7.140   0.130  0.0371  0.1228  0.0987
 1576W        W17193   9.043   8.426   5.292 -0.2211  0.4818 -0.0896
 1577W        W17194  13.928  18.066   2.468 -0.0581 -0.1986 -0.0330
 1578W        W17195   3.757   9.828  13.130 -0.0816  0.1847 -0.0558
 1579W        W17196   6.272   4.840   5.192 -0.0250 -0.1557 -0.1341
 1580W        W17197  14.800   6.228  10.990  0.2158 -0.1417  0.1063
 1581W        W17198  14.674  13.720  12.503 -0.1442 -0.0406  0.0388
 1582W        W17199   8.222   9.592  15.870 -0.0607  0.0286  0.0557
 1583W        W17200   7.768  11.119   1.930  0.3337 -0.2250 -0.2600
 1584W        W17201  10.348   2.168  15.292 -0.0084  0.2238 -0.0083
 1585W        W17202   6.231   0.650  13.968 -0.2667 -0.1944  0.1842
 1586W        W17203   9.128  16.486  13.479  0.0478 -0.0869  0.3142
 1587W        W17204  15.553   0.997   0.642  0.2728 -0.1133 -0.0376
 1588W        W17205   1.103  16.085  15.071 -0.0903  0.0272  0.0985
 1589W        W17206   5.546   2.439  13.695 -0.0336 -0.5349  0.5365
 1590W        W17207  15.734   2.932  14.861 -0.0623 -0.0629  0.0630
 1591W        W17208   0.194  11.167   1.873 -0.1351  0.0546  0.0362
 1592W        W17209  12.910   9.532  13.157  0.2457  0.2296  0.1706
 1593W        W17210   2.590   2.979  13.607 -0.1585  0.0448  0.2501
 1594W        W17211  18.076   7.641  12.645  0.3261 -0.0541 -0.2526
 1595W        W17212  10.356   9.024   1.113  0.2014 -0.1713  0.0012
 1596W        W17213   3.789  11.040   4.247 -0.1685  0.3334  0.0399
 1597W        W17214  16.305  14.501   3.389  0.1336 -0.0656 -0.1148
 1598W        W17215  17.677  11.456  11.329 -0.0687 -0.1073 -0.1360
 1599W        W17216  14.620  14.129   0.162 -0.0319 -0.1791 -0.1281
 1600W        W17217  16.084  15.480   5.350  0.4094 -0.2275 -0.2360
 1601W        W17218  15.665   7.155  11.754  0.0207 -0.1391 -0.4948
 1602W        W17219   8.163  16.960   3.645 -0.0893 -0.1116 -0.0946
 1603W        W17220  10.564  17.884  14.118 -0.2068 -0.0336 -0.1377
 1604W        W17221   3.005  12.312   4.268  0.0903  0.1165 -0.2992
 1605W        W17222   7.345   6.288   3.775  0.0636 -0.0904  0.1780
 1606W        W17223  16.711   7.043   3.908 -0.1044 -0.0031 -0.0220
 1607W        W17224   4.550  12.297  14.983 -0.3079  0.3199 -0.2726
 1608W        W17225   8.508   6.636  14.618  0.2437  0.4022 -0.1163
 1609W        W17226   4.514   8.089  14.422  0.1110 -0.3825 -0.1617
 1610W        W17227   4.988   6.740   1.202 -0.1869  0.1109  0.2697
 1611W        W17228   6.407   5.429  15.685  0.1447 -0.0187 -0.1313
 1612W        W17229  11.655  14.760  14.024  0.2287  0.0463  0.3203
 1613W        W17230   2.797   2.456  14.372 -0.1365 -0.1538 -0.0292
 1614W        W17231   4.403  12.681  14.459 -0.1482 -0.0345 -0.2552
 1615W        W17232   3.922   0.500  13.326  0.0829 -0.0174  0.0028
 1616W        W17233  10.807   1.217   3.861 -0.1539  0.2472  0.1361
 1617W        W17234   7.097   2.200  13.547  0.1155  0.0324 -0.2506
 1618W        W17235   6.143   1.158  13.040  0.0037  0.1805 -0.0509
 1619W        W17236   3.113   5.651   0.442  0.0978 -0.1070  0.1943
 1620W        W17237  17.061   7.941  11.729 -0.0833  0.1594 -0.0982
 1621W        W17238   8.411  10.214  14.220 -0.0446  0.2907  0.0016
 1622W        W17239  14.290  14.170   3.448 -0.0738  0.0446  0.2379
 1623W        W17240   8.855   7.857   2.418 -0.3615 -0.0735 -0.0974
 1624W        W17241   1.850  10.916  12.851  0.0162 -0.0918 -0.0291
 1625W        W17242   1.687   5.759  13.322 -0.0150 -0.2656  0.0542
 1626W        W17243   1.027   6.680   0.257 -0.2910  0.3539 -0.1538
 1627W        W17244   6.275  12.960   1.931 -0.0189  0.2970  0.0805
 1628W        W17245   8.846   9.888   4.341 -0.0253 -0.2143  0.0522
 1629W        W17246   1.386   4.278  14.123  0.0796  0.1496  0.2820
 1630W        W17247  16.348  13.136  15.472  0.1065  0.1805 -0.0688
 1631W        W17248   5.206   6.903   4.718 -0.0292  0.5644 -0.1334
 1632W        W17249  15.649   5.264  11.255 -0.0756  0.3708 -0.0800
 1633W        W17250  17.733  13.082   3.811 -0.0749 -0.0430  0.3246
 1634W        W17251   0.519  15.712   2.184  0.0223  0.2699  0.0781
 1635W        W17252  11.113  11.518   1.863 -0.0599 -0.1274 -0.0292
 1636W        W17253  18.334   9.023   1.542 -0.2169  0.2304 -0.3208
 1637W        W17254   2.662  10.548  11.441 -0.1461 -0.1957  0.3042
 1638W        W17255  13.321  13.014   3.299  0.1008 -0.3120 -0.1316
 1639W        W17256   3.274   8.804  11.232 -0.2015  0.0906 -0.0079
 1640W        W17257   2.329   7.429   6.098 -0.1708 -0.0379 -0.0199
 1641W        W17258  13.681   4.420   5.568 -0.3998  0.0029 -0.0727
 1642W        W17259  16.774   6.479  14.851  0.2192  0.3086  0.4348
 1643W        W17260   2.659   8.778   2.201 -0.0343 -0.0029  0.1130
 1644W        W17261   1.229  14.552   6.159  0.0619  0.1713 -0.6361
 1645W        W17262   1.881  13.225   1.647 -0.4862 -0.1416 -0.0368
 1646W        W17263   0.004   5.300   1.065 -0.1210  0.1552 -0.1008
 1647W        W17264   7.204  12.855  14.740 -0.2062 -0.2310  0.2279
 1648W        W17265   6.894  14.457  12.764 -0.1568 -0.2216  0.1110
 1649W        W17266  15.237  10.850   4.445 -0.3992  0.4076 -0.0512
 1650W        W17267  10.803  11.324  13.679 -0.1144  0.2681 -0.0601
 1651W        W17268   3.575  18.257  12.946  0.0843  0.1098  0.1139
 1652W        W17269  10.977  15.995   2.344 -0.1886  0.1393  0.3942
 1653W        W17270  11.524   3.554  12.954 -0.2359  0.0560  0.1451
 1654W        W17271  17.900  18.168   1.891  0.1084  0.0552 -0.0868
 1655W        W17272  17.745   2.694   5.409  0.0666  0.0130  0.1404
 1656W        W17273   8.258   5.223   1.172 -0.0840  0.0680  0.0490
 1657W        W17274  11.295   9.042   3.204 -0.2906 -0.0472  0.5323
 1658W        W17275  12.463  11.260  11.197 -0.1933  0.0200 -0.0974
 1659W        W17276   3.860   4.350  11.295  0.2055  0.0778 -0.1985
 1660W        W17277   9.097   6.499   3.383  0.0880  0.1134  0.0050
 1661W        W17278   8.432   8.972   3.195 -0.1977  0.3507  0.1668
 1662W        W17279  13.541  13.020   2.862  0.0483 -0.0676  0.1873
 1663W        W17280  11.191  14.089  15.978  0.0962 -0.1438 -0.0794
 1664W        W17281   1.929   9.824   4.545 -0.1388 -0.3776  0.1806
 1665W        W17282  16.664  10.324  14.154 -0.0634  0.0283 -0.0733
 1666W        W17283   1.925   0.281  13.980 -0.2027  0.1231  0.1839
 1667W        W17284   6.247  18.236  14.321 -0.1660 -0.0302 -0.0645
 1668W        W17285   3.229  11.168   5.031  0.0422 -0.0277  0.1350
 1669W        W17286  11.892   6.997  15.333 -0.0762  0.0605  0.0362
 1670W        W17287  16.049   6.332   5.193  0.1286  0.1276 -0.3443
 1671W        W17288   2.312  16.487  12.919 -0.1276  0.1099 -0.0728
 1672W        W17289   5.537   6.559  13.707 -0.2632 -0.0082 -0.2813
 1673W        W17290   2.099   0.757   0.662  0.2302  0.0472 -0.1300
 1674W        W17291  14.305   4.698   3.205  0.0509  0.1455 -0.0760
 1675W        W17292  16.992   0.662   6.003  0.3253 -0.3620  0.0651
 1676W        W17293  16.736   2.141  15.901 -0.0693 -0.0371  0.2160
 1677W        W17294   1.644  13.887   1.033  0.2683 -0.0047  0.2971
 1678W        W17295  10.021   7.838  11.581 -0.1872  0.4466  0.1978
 1679W        W17296   9.144   6.750   1.605  0.4007 -0.1915 -0.1022
 1680W        W17297   7.101  18.111  13.417  0.0671  0.5119 -0.2470
 1681W        W17298   2.232   6.737   4.999  0.2121 -0.3239 -0.1633
 1682W        W17299   7.499   3.605   1.203 -0.1817 -0.0051  0.1777
 1683W        W17300   2.666  18.065  12.717 -0.0476 -0.0106 -0.1487
 1684W        W17301  12.433  14.843   5.173  0.0919 -0.2630 -0.2317
 1685W        W17302  17.135  13.237   1.350  0.0252  0.2596  0.1855
 1686W        W17303   4.210   2.923   3.263  0.0704  0.0333 -0.0989
 1687W        W17304  14.768   0.680  15.445  0.0662 -0.2431 -0.1597
 1688W        W17305  13.444  13.080   0.600 -0.0296  0.1789  0.1546
 1689W        W17306  12.036  14.611   4.370  0.1312  0.4212 -0.0423
 1690W        W17307  13.680   5.695   2.454 -0.3774  0.0828 -0.0500
 1691W        W17308  17.083  11.770   1.514 -0.0923  0.0822  0.0925
 1692W        W17309   3.864  16.880   1.296 -0.1508 -0.0836 -0.1236
 1693W        W17310   3.101  15.839  14.062 -0.3071  0.1169  0.1237
 1694W        W17311   9.162  16.128  15.787 -0.0304 -0.1724  0.3997
 1695W        W17312   1.331   4.791   3.716  0.0970 -0.3619  0.2448
 1696W        W17313  17.953  11.956  14.850 -0.1302  0.0413  0.0649
 1697W        W17314   3.352  16.666   2.711  0.1483  0.0179 -0.1977
 1698W        W17315  11.795  16.147  14.026  0.1881 -0.2114 -0.0414
 1699W        W17316   1.536   6.692   0.333 -0.1536 -0.1430  0.1026
 1700W        W17317  10.087  16.223   3.908 -0.1519  0.2222  0.3166
 1701W        W17318   9.196   4.509  14.319  0.2172 -0.0384  0.0074
 1702W        W17319   3.989   8.223   5.110 -0.2332  0.0190  0.2724
 1703W        W17320  14.172   0.594  14.285 -0.0866  0.0022  0.0544
 1704W        W17321  13.781   4.373   1.584  0.1646  0.2356  0.0181
 1705W        W17322  15.120   7.478   2.709 -0.1328  0.0462 -0.0520
 1706W        W17323  14.961  11.524  13.053  0.1633  0.0386 -0.2016
 1707W        W17324  10.082   3.763  15.085 -0.1394  0.2041 -0.2798
 1708W        W17325  13.594   5.209   4.391  0.0906  0.0904  0.1752
 1709W        W17326   4.324   1.430  14.927  0.0921 -0.1226  0.0145
 1710W        W17327   0.465   6.508   4.642 -0.3415  0.1783  0.0524
 1711W        W17328   1.006  16.036  14.474 -0.1857 -0.0241 -0.3767
 1712W        W17329  16.236   1.823   4.425 -0.2552 -0.1290  0.2565
 1713W        W17330  17.714  11.948   0.029  0.2040  0.0177 -0.2727
 1714W        W17331  12.498  11.838   2.591 -0.0758  0.0161 -0.0071
 1715W        W17332   9.112  17.139   4.948  0.1538  0.0289  0.1372
 1716W        W17333   0.362   3.652   3.789 -0.0174  0.0595 -0.0609
 1717W        W17334  14.663  14.531   5.078 -0.2886 -0.0420  0.2181
 1718W        W17335   0.300   3.644  11.825 -0.0048  0.2241  0.0866
 1719W        W17336   1.669  16.216   1.222 -0.1237  0.0908 -0.2179
 1720W        W17337  12.743   6.857  15.141  0.2466  0.1633  0.0477
 1721W        W17338  15.316   8.550   3.434  0.0866 -0.0130 -0.2120
 1722W        W17339  10.697  15.558  11.772 -0.1249 -0.0969  0.2826
 1723W        W17340   4.949  10.876   6.256 -0.0834 -0.1377 -0.0670
 1724W        W17341   9.218  17.761  10.772 -0.2792  0.1031  0.0880
 1725W        W17342   4.050   1.066  11.310 -0.0879 -0.1415 -0.2029
 1726W        W17343  15.308   8.684   2.602 -0.0990 -0.1641  0.0053
 1727W        W17344   7.881  18.258  15.229  0.0561 -0.0968  0.0790
 1728W        W17345  12.207   5.607  15.119 -0.2158 -0.2181 -0.1718
 1729W        W17346  10.898   4.661   2.089  0.2432 -0.2302  0.4204
 1730W        W17347   3.087  15.119  15.557  0.2549  0.2735  0.0189
 1731W        W17348   9.836   6.246   4.656 -0.0697  0.0966 -0.0038
 1732W        W17349  13.682  12.002   0.405  0.1883 -0.1010  0.1538
 1733W        W17350   8.209  16.872  12.528 -0.0850  0.2666 -0.1286
 1734W        W17351  14.484   4.019   2.266  0.0953 -0.0519 -0.0988
 1735W        W17352   2.801  14.835   3.612 -0.2502 -0.1806  0.0038
 1736W        W17353   0.391  18.355  15.531  0.1204  0.2769  0.1428
 1737W        W17354  11.315   3.331  13.408  0.3352  0.1782  0.0542
 1738W        W17355   3.935  13.681   0.475  0.3099 -0.2470 -0.0580
 1739W        W17356   7.923   7.954  12.103 -0.1448  0.0592  0.3054
 1740W        W17357  14.136   4.544  13.464 -0.0385  0.0638 -0.0783
 1741W        W17358   1.226  15.535  11.303  0.1721  0.1586  0.1634
 1742W        W17359   3.670   5.387  15.368  0.1161 -0.0815  0.2486
 1743W        W17360   4.796  11.546   3.367  0.0184 -0.0911 -0.0399
 1744W        W17361  10.945   6.860   0.326  0.1574  0.1691 -0.0918
 1745W        W17362  16.263   6.566   4.459 -0.3952  0.2134 -0.1622
 1746W        W17363   5.498   5.979  15.795  0.0975  0.0530 -0.2795
 1747W        W17364  16.175   9.133   0.309 -0.1985 -0.1480  0.1982
 1748W        W17365   3.874   8.932  12.809 -0.0282 -0.0267  0.0463
 1749W        W17366   3.727   6.387   1.497 -0.0059  0.0285  0.2364
 1750W        W17367   8.567   6.000   4.293 -0.0748 -0.0756 -0.1530
 1751W        W17368  15.668   3.824  12.139 -0.2314 -0.0070  0.1420
 1752W        W17369  10.706   4.657   0.091 -0.2932 -0.0006  0.2065
 1753W        W17370   7.122   0.172   1.562  0.0175 -0.1172  0.0995
 1754W        W17371  13.941  16.266  14.787  0.1151 -0.2696  0.0392
 1755W        W17372  12.840  15.403   4.756  0.2991  0.1266 -0.1195
 1756W        W17373   1.624   3.707   1.338 -0.1004 -0.1344 -0.1221
 1757W        W17374   7.098   5.921   0.560  0.2263 -0.0726  0.0433
 1758W        W17375   5.151   8.069   1.855 -0.1385  0.1043 -0.0236
 1759W        W17376  12.042   4.904   2.263  0.2570 -0.2683 -0.2890
 1760W        W17377   2.675  13.464   0.931 -0.0625 -0.1489 -0.1331
 1761W        W17378  13.408  15.264  15.879  0.1443  0.2113  0.0075
 1762W        W17379   9.099  15.977   3.365 -0.3221  0.0170 -0.0185
 1763W        W17380   4.346  16.154  13.346 -0.4059  0.1808  0.0991
 1764W        W17381   0.844   2.891   4.124 -0.0916 -0.0630 -0.2826
 1765W        W17382  12.546  10.640  13.867 -0.0506 -0.2779 -0.0598
 1766W        W17383  17.848   4.353   1.733  0.1203 -0.1160 -0.0950
 1767W        W17384  12.992   4.893   3.684 -0.2770 -0.0579 -0.1102
 1768W        W17385  13.900   6.095  13.265  0.0175 -0.0039  0.2865
 1769W        W17386   2.355   9.693   1.632  0.2533  0.0691 -0.0615
 1770W        W17387   1.165   2.104   3.571  0.0934  0.0270 -0.0223
 1771W        W17388  12.617  14.054   1.777  0.2602  0.0258 -0.1451
 1772W        W17389   7.696   3.761   0.130  0.0171  0.2880  0.2164
 1773W        W17390   0.661   6.271  14.813 -0.1928 -0.1510 -0.3585
 1774W        W17391  17.469  10.891  15.438  0.0887  0.0984 -0.0072
 1775W        W17392  17.648   8.390   0.531 -0.2677  0.1351  0.2270
 1776W        W17393   2.794  12.262   1.657  0.0357 -0.0241 -0.0374
 1777W        W17394   0.604   4.842   2.176 -0.0945  0.1985 -0.0898
 1778W        W17395   4.168   9.256  13.172 -0.1785 -0.0544 -0.0897
 1779W        W17396   4.101   5.081  12.913  0.2163  0.1540  0.0077
 1780W        W17397  14.434   8.501  11.889 -0.0630 -0.0292  0.6342
 1781W        W17398  13.308   6.282  15.455 -0.0420  0.0273  0.0684
 1782W        W17399  12.403   2.419   0.029 -0.2127  0.2168 -0.2527
 1783W        W17400  13.134   2.976   3.838  0.2332 -0.0078  0.3065
 1784W        W17401  17.468  15.779   0.684 -0.1581  0.1199  0.2492
 1785W        W17402  14.192   3.896  10.465  0.1525 -0.0514  0.1571
 1786W        W17403  10.639  12.531   2.689 -0.0688  0.3309  0.1755
 1787W        W17404  13.997   3.716   3.992  0.0827  0.2239 -0.1839
 1788W        W17405   6.300   8.033  13.897 -0.2383  0.1236  0.1857
 1789W        W17406  18.116   7.634  13.874 -0.0975  0.0201  0.0951
 1790W        W17407   5.329  16.754   4.353 -0.1317 -0.0793  0.2719
 1791W        W17408   2.228   4.082  13.682 -0.2319  0.1598 -0.0511
 1792W        W17409   3.117  14.042   5.441 -0.0927 -0.1033  0.2175
 1793W        W17410   6.015   4.211  10.714  0.0517  0.2758 -0.0015
 1794W        W17411   5.696   2.188   1.706  0.2223  0.0134 -0.2107
 1795W        W17412  13.303   5.430   2.453 -0.0693  0.0041  0.3053
 1796W        W17413  15.295   8.093   3.379  0.3326  0.0654 -0.2593
 1797W        W17414  11.842   4.945  11.010 -0.1170 -0.2635  0.3245
 1798W        W17415   7.105  11.982   0.410  0.3663  0.0639 -0.1103
 1799W        W17416  13.601  14.205   0.433  0.2705 -0.2099 -0.0222
 1800W        W17417   0.062  11.412   1.456 -0.0677  0.4371 -0.0196
 1801W        W17418   1.577   9.232  10.942 -0.1575 -0.0584 -0.0624
 1802W        W17419   1.272   9.901   0.052 -0.1109 -0.0873 -0.0938
 1803W        W17420   2.908  11.093  11.645  0.1131  0.0320  0.3082
 1804W        W17421   6.678  14.551   0.034 -0.1625  0.0427  0.1156
 1805W        W17422  17.193   8.097  15.390  0.2827 -0.2174  0.0208
 1806W        W17423  18.161   1.570   0.861  0.3097 -0.4339  0.0611
 1807W        W17424  14.507   0.337  10.295  0.0970  0.3965  0.2538
 1808W        W17425   7.654  17.848  11.767 -0.0353 -0.2978  0.1169
 1809W        W17426   7.567   9.676   4.337  0.0778 -0.0879 -0.2204
 1810W        W17427  14.894   8.580   0.742 -0.0878 -0.1831 -0.0387
 1811W        W17428   0.309  16.707   4.599 -0.2804 -0.1513 -0.1404
 1812W        W17429   5.333  11.892   0.853  0.2059 -0.0827  0.2285
 1813W        W17430   3.412  11.420  13.444 -0.1506  0.0988 -0.1114
 1814W        W17431   3.996  12.542   2.793 -0.1417  0.2394  0.0904
 1815W        W17432  12.455   3.645   0.092 -0.0683 -0.1224  0.1266
 1816W        W17433  11.652  17.101  13.777 -0.3190  0.0292 -0.2339
 1817W        W17434   6.821  17.190  15.490  0.0901 -0.1143  0.3861
 1818W        W17435  17.030  13.648   1.605  0.3141  0.0362  0.0508
 1819W        W17436   0.074  14.659   2.456 -0.6085 -0.2673  0.1925
 1820W        W17437  10.027  14.443   2.693  0.1680 -0.1589 -0.3593
 1821W        W17438  11.885  17.824  12.449  0.2293  0.2349 -0.0213
 1822W        W17439  17.930   7.601  15.095  0.0842 -0.3712 -0.0842
 1823W        W17440   4.402   1.398   6.213 -0.2136  0.0609 -0.0538
 1824W        W17441   9.362   5.627   5.202 -0.1566  0.2952 -0.3241
 1825W        W17442   9.824   3.159  14.497  0.0547 -0.2855 -0.1995
 1826W        W17443  14.151   1.848  12.164 -0.2155  0.5238 -0.0909
 1827W        W17444   5.670  14.148   4.273  0.1290 -0.0871 -0.0738
 1828W        W17445   9.411  10.002   3.112 -0.2173 -0.1257 -0.2999
 1829W        W17446  15.819   8.924  16.101 -0.0905 -0.1585  0.0517
 1830W        W17447  14.645   8.512   3.714  0.0708 -0.2899  0.3572
 1831W        W17448   9.084  16.064   0.968 -0.1639 -0.0002  0.0455
 1832W        W17449  14.384  11.436  12.089 -0.2111 -0.0188 -0.2613
 1833W        W17450   0.330  17.602  14.079 -0.2003  0.1831  0.0152
 1834W        W17451   7.992   7.951  15.302  0.0232 -0.0777  0.4594
 1835W        W17452  14.754   5.373  11.110 -0.1625  0.0248 -0.0453
 1836W        W17453   9.463  17.601   3.191 -0.1223  0.2045  0.1152
 1837W        W17454   9.484  13.650  14.095  0.0260  0.1385  0.2165
 1838W        W17455   5.370  13.683  14.665 -0.1335 -0.0920  0.0867
 1839W        W17456   7.728  15.389  13.236  0.2156 -0.3117 -0.0802
 1840W        W17457  12.585   4.237   2.110  0.0346  0.0921  0.0841
 1841W        W17458   8.490   5.581   2.579 -0.1939 -0.0952 -0.1006
 1842W        W17459  10.111  10.121  11.903  0.1056  0.2464  0.0112
 1843W        W17460   8.120  13.735  12.582 -0.0634 -0.0726  0.0254
 1844W        W17461   0.338   0.041  12.264 -0.2904  0.2147 -0.0646
 1845W        W17462   8.709  16.746  13.400 -0.1894  0.1702 -0.0653
 1846W        W17463  17.330   9.894  13.771 -0.1357 -0.1006  0.1520
 1847W        W17464  13.039  11.934  14.125 -0.3209 -0.0403  0.3003
 1848W        W17465   9.977   8.143  15.395  0.1195  0.1089 -0.1343
 1849W        W17466  10.809   5.336  11.980 -0.1976 -0.0149  0.0834
 1850W        W17467  16.616   5.335   4.247  0.1139 -0.0228  0.0514
 1851W        W17468   0.312   8.762   1.788  0.1203  0.1910  0.3493
 1852W        W17469  10.151   7.437  13.366 -0.0343  0.0196  0.2330
 1853W        W17470   4.608   0.395  15.299 -0.0394  0.0199  0.0414
 1854W        W17471   9.902  14.174   5.951 -0.0984  0.1887  0.0727
 1855W        W17472   7.680  17.252   4.768 -0.0812  0.2378 -0.1167
 1856W        W17473   0.089   1.332   4.377 -0.1540  0.1439 -0.1110
 1857W        W17474   5.668  10.836   3.412  0.1186 -0.2749 -0.0928
 1858W        W17475  11.663  12.487   2.765 -0.0928  0.2186  0.1281
 1859W        W17476  13.316  15.985   4.251 -0.1563  0.4653  0.2116
 1860W        W17477   7.097  18.173  15.621 -0.1860  0.3670 -0.0461
 1861W        W17478   3.260  17.773  15.123  0.0190  0.1446  0.0214
 1862W        W17479  17.967   8.666  15.687 -0.0085  0.0474 -0.0469
 1863W        W17480  14.352  16.556  12.484 -0.0275  0.1146  0.1127
 1864W        W17481   4.596  11.442   4.346 -0.0530 -0.0406 -0.0100
 1865W        W17482   9.927   5.854  13.005  0.0072  0.0604 -0.0944
 1866W        W17483   4.296   4.252  10.970 -0.0113 -0.0364  0.1791
 1867W        W17484   2.143   4.244   1.309 -0.2668 -0.0021  0.2047
 1868W        W17485  12.396   0.605   2.390  0.0120  0.3251 -0.0563
 1869W        W17486  11.430   7.142   1.848  0.2546 -0.1616 -0.0986
 1870W        W17487   9.883   0.055   1.123  0.2056  0.0763  0.0869
 1871W        W17488  12.581   4.080   4.324  0.0694  0.2722 -0.0753
 1872W        W17489   1.088  11.048  12.998 -0.1936 -0.0293 -0.2303
 1873W        W17490  12.990   0.573  15.331  0.1812 -0.2296 -0.4547
 1874W        W17491   9.661   9.200  12.860  0.0558 -0.1401 -0.0677
 1875W        W17492  17.564   1.311   5.376  0.2643 -0.1995 -0.0384
 1876W        W17493   5.941   2.581  14.977  0.0297 -0.1910 -0.2101
 1877W        W17494  15.689   0.544   5.504  0.2309  0.0799 -0.1105
 1878W        W17495   6.922   3.529  15.053 -0.0343  0.2100  0.2770
 1879W        W17496  18.097  17.606  15.730 -0.1924 -0.0143  0.2730
 1880W        W17497   5.361  16.770   5.388  0.0340 -0.2062 -0.1358
 1881W        W17498  16.565   3.826   5.755 -0.0827 -0.0858  0.0913
 1882W        W17499   5.366  17.502   1.513  0.0105  0.1039 -0.1265
 1883W        W17500   1.135  13.354   3.690  0.0804 -0.1571  0.2099
 1884W        W17501   6.573  18.289   5.721 -0.0748  0.1365  0.1093
 1885W        W17502  13.399   3.822  13.696  0.1509 -0.4363 -0.4254
 1886W        W17503   6.821  11.369   2.900  0.0072  0.1751  0.0102
 1887W        W17504   6.102  15.554  12.352 -0.0094  0.1038 -0.0082
 1888W        W17505   8.800  13.957   5.581 -0.1151  0.1154  0.1182
 1889W        W17506   2.583   1.161  16.046 -0.3059 -0.2065 -0.2482
 1890W        W17507  14.810  14.731   0.279  0.1197 -0.0459  0.0611
 1891W        W17508  10.552   4.434   4.073 -0.1414 -0.1090  0.2609
 1892W        W17509  16.863   3.110  12.387 -0.3155 -0.0687 -0.2411
 1893W        W17510  17.803  11.031   0.329 -0.0084 -0.0180  0.2348
 1894W        W17511   9.259   6.492  13.390 -0.1204 -0.1542 -0.2801
 1895W        W17512  15.350  11.723   2.397  0.5302 -0.0730  0.0054
 1896W        W17513  11.042   4.525  12.023 -0.1065  0.0216  0.0578
 1897W        W17514   3.165   6.299  15.957 -0.3404 -0.3224  0.1597
 1898W        W17515   6.045   1.934   2.966  0.0094 -0.0665 -0.0821
 1899W        W17516   7.056  12.287  15.144  0.0014 -0.1439 -0.0462
 1900W        W17517   0.306  10.764   0.252 -0.0587 -0.1029  0.1487
 1901W        W17518   7.902  16.897  14.985 -0.0771  0.0955 -0.1609
 1902W        W17519  11.612  14.688  16.093  0.2612 -0.0418 -0.1615
 1903W        W17520   8.051   5.656   1.407 -0.0772  0.4118  0.1511
 1904W        W17521  16.166  17.322   2.983 -0.1652  0.0894 -0.1171
 1905W        W17522  14.352  15.915   5.962  0.0034  0.1288  0.1441
 1906W        W17523   9.390   8.036  11.612  0.0988 -0.1287  0.1008
 1907W        W17524   2.738   6.966   2.527 -0.1830 -0.0313 -0.1370
 1908W        W17525   2.544   3.009   0.134  0.0874  0.0605 -0.1580
 1909W        W17526   4.486   9.857   1.476  0.1121  0.1394  0.0390
 1910W        W17527   7.804   6.229   0.605  0.0471 -0.0652 -0.0639
 1911W        W17528  13.041  12.610   5.198  0.3813 -0.1342  0.3334
 1912W        W17529   9.010   1.252  13.461  0.0292 -0.1720  0.0761
 1913W        W17530  12.811   3.516   2.518 -0.0834 -0.4582  0.2611
 1914W        W17531  14.963   9.374   2.494  0.1370 -0.0290 -0.0086
 1915W        W17532   6.700  17.323   3.000 -0.1558 -0.0950 -0.0942
 1916W        W17533   5.532   8.039  11.386 -0.1006 -0.1616  0.2065
 1917W        W17534  16.807   4.027   3.767  0.0343 -0.1442  0.3544
 1918W        W17535   3.447   6.164   5.007  0.1740  0.3009  0.2295
 1919W        W17536  11.424   1.313  13.437 -0.0790  0.1940 -0.0595
 1920W        W17537   6.213  14.430  15.991  0.1439  0.1491 -0.0551
 1921W        W17538  10.411   9.096  12.939 -0.1523 -0.1001 -0.0657
 1922W        W17539  14.503   7.100   3.284  0.0658  0.1041  0.0984
 1923W        W17540  12.068   8.828  15.432  0.0518 -0.0052 -0.1592
 1924W        W17541   9.378   1.238  14.693  0.3378  0.0526  0.0305
 1925W        W17542  15.481  17.896   1.199 -0.1399  0.3327 -0.1940
 1926W        W17543  18.040   7.274   3.110 -0.0112  0.0203  0.5133
 1927W        W17544   7.915  15.083   5.808  0.2426 -0.0955 -0.0512
 1928W        W17545  11.863  17.275   4.937  0.0506 -0.1498  0.0495
 1929W        W17546  10.007  13.439  13.324  0.0181 -0.0995  0.1716
 1930W        W17547  11.066  12.569  10.690  0.1456 -0.0220  0.0364
 1931W        W17548   3.535  11.026  12.623 -0.1267 -0.0753  0.2786
 1932W        W17549   2.648   6.466   4.756  0.0744 -0.0470 -0.2099
 1933W        W17550  18.439  12.772  11.918  0.1254  0.1657 -0.1488
 1934W        W17551  18.375   2.632  13.836  0.1425  0.1168 -0.2190
 1935W        W17552  18.067  17.846   3.512  0.0587 -0.2301  0.0518
 1936W        W17553  10.794  10.887   2.490  0.2239  0.0541 -0.0379
 1937W        W17554  17.776   1.081  15.842  0.2930 -0.1524 -0.0962
 1938W        W17555  18.252   5.350  12.452  0.5133  0.1483 -0.0218
 1939W        W17556  16.900   2.118   2.681  0.2461  0.0350  0.1137
 1940W        W17557  16.108   1.289   3.536  0.3577  0.1694 -0.2007
 1941W        W17558   0.825  18.157  13.478  0.0272 -0.3704  0.0685
 1942W        W17559   9.947   2.721  14.256 -0.0502 -0.3645  0.5288
 1943W        W17560  17.164  16.709  14.525 -0.1041  0.1363 -0.0110
 1944W        W17561   3.415   8.179  15.464  0.0311  0.0280  0.4007
 1945W        W17562  16.817  17.316   3.725 -0.1492 -0.0036  0.4011
 1946W        W17563   6.358  13.014  13.900  0.0908 -0.1271  0.0328
 1947W        W17564   8.055   5.585  13.692 -0.0933 -0.1506  0.0142
 1948W        W17565   1.410   3.794   5.193 -0.0788  0.1509 -0.1243
 1949W        W17566  11.465   1.116  15.755 -0.1654  0.1556  0.2009
 1950W        W17567  15.759  11.262  13.076 -0.0422 -0.1831  0.2258
 1951W        W17568   1.050  11.444  14.907 -0.1950 -0.0977 -0.0173
 1952W        W17569   5.961   1.180   4.832  0.0784 -0.1842  0.1662
 1953W        W17570   7.056   9.190   0.631 -0.0766  0.3064 -0.3582
 1954W        W17571  17.852  14.046  13.421 -0.0802 -0.0799  0.0530
 1955W        W17572   8.074   3.352   2.084  0.1958  0.0675  0.1029
 1956W        W17573   3.897  15.098   2.557  0.0735  0.2552 -0.0843
 1957W        W17574  17.972   0.145  13.733  0.2594  0.1097 -0.0207
 1958W        W17575  12.243   0.918   2.026 -0.1140 -0.2334  0.0898
 1959W        W17576  15.809   7.989   0.652 -0.1087  0.1821  0.2166
 1960W        W17577   3.131   9.605   9.609 -0.0317  0.0780  0.0202
 1961W        W17578  15.364   5.112   4.759 -0.0990  0.1022  0.0894
 1962W        W17579   3.700   4.032  15.763 -0.3587 -0.3851  0.1774
 1963W        W17580   7.132  18.428   1.093  0.1726  0.0755 -0.3629
 1964W        W17581   2.640   8.310   4.008  0.3122  0.0604  0.1431
 1965W        W17582  11.167  15.934   3.082  0.2159  0.1145  0.2539
 1966W        W17583   1.319   0.180   2.888  0.1306  0.2220  0.0338
 1967W        W17584   9.260  17.189  13.147 -0.3460  0.1035  0.1756
 1968W        W17585  10.248  10.463  14.849 -0.1401  0.0066  0.1998
 1969W        W17586  17.468   2.190  12.824 -0.0849  0.1176  0.2467
 1970W        W17587   4.459  13.373  15.880  0.0236  0.0843  0.0306
 1971W        W17588  16.620  14.856  14.448 -0.2103 -0.0703 -0.0159
 1972W        W17589  16.665   5.262   3.683  0.0538 -0.0285 -0.1500
 1973W        W17590   3.886  16.736   3.302  0.1624  0.0722  0.0618
 1974W        W17591   7.332  11.645   2.204 -0.2202  0.4311 -0.2699
 1975W        W17592  10.681  10.655  15.542 -0.0468  0.1652  0.1407
 1976W        W17593   0.215  16.472  15.801 -0.0707 -0.0658 -0.4244
 1977W        W17594   8.439  15.829  11.545  0.1235  0.2334  0.1077
 1978W        W17595  12.889   5.403  13.030  0.4309  0.2060 -0.1138
 1979W        W17596  11.601   6.881  14.858 -0.2906 -0.0113  0.0089
 1980W        W17597  16.146  12.492   2.014 -0.0725  0.2037  0.0626
 1981W        W17598  15.369  16.329  12.125 -0.2445 -0.3326 -0.1716
 1982W        W17599   8.930  11.436   2.506 -0.2760 -0.1769  0.0638
 1983W        W17600   6.866   5.170  12.732  0.0318  0.0265 -0.1922
 1984W        W17601   6.349   3.408  11.084 -0.1027  0.0056 -0.6459
 1985W        W17602  12.125   1.667  11.863  0.0064 -0.1273  0.0395
 1986W        W17603  17.474  11.136  14.479  0.1327  0.0410  0.0475
 1987W        W17604  14.190   9.429  12.734  0.2598  0.0392  0.2676
 1988W        W17605  14.343   9.535   3.376 -0.1620  0.4184 -0.2124
 1989W        W17606   4.097  15.072  15.130  0.2607  0.1221  0.4768
 1990W        W17607  13.716  18.046   1.427 -0.1802 -0.4314  0.0499
 1991W        W17608  15.780   6.670  11.759 -0.3053  0.2021 -0.1222
 1992W        W17609   8.737   7.089  13.703 -0.1108 -0.4809 -0.1106
 1993W        W17610   9.539  11.656  12.161 -0.3052 -0.2091  0.1929
 1994W        W17611   0.162   3.731  14.911  0.1104 -0.1476 -0.0670
 1995W        W17612  12.165   2.441   2.324 -0.2166  0.1932  0.1546
 1996W        W17613   4.855   7.032   2.389 -0.4313 -0.1714  0.0114
 1997W        W17614  10.768  13.535   2.006 -0.1513 -0.1085 -0.0243
 1998W        W17615  15.435   5.641   0.531  0.0089 -0.1207  0.0614
 1999W        W17616  17.325  16.938   3.450  0.0025 -0.0725  0.2601
 2000W        W17617  11.825  17.832   4.802 -0.0447 -0.0938 -0.0479
 2001W        W17618   6.696   5.900  14.140 -0.0045  0.1287 -0.0477
 2002W        W17619  13.416   5.948   3.339  0.1789  0.1085 -0.2016
 2003W        W17620  17.123  16.298   0.638  0.1123  0.0885 -0.2152
 2004W        W17621  16.915   7.217   0.385  0.0524  0.0032  0.1039
 2005W        W17622   9.621   6.558   9.459 -0.1431 -0.1790  0.0636
 2006W        W17623   0.124  10.295   1.826 -0.2216  0.0107 -0.1529
 2007W        W17624   2.087   8.159  12.146  0.3403 -0.1855 -0.0269
 2008W        W17625   0.234  14.150   5.129  0.3071  0.1311  0.3190
 2009W        W17626  12.017   7.814   4.425 -0.1609 -0.1224  0.3532
 2010W        W17627  12.286  17.644   3.381  0.1697  0.0928  0.1244
 2011W        W17628   3.773   4.059   2.386 -0.1760 -0.0088  0.2996
 2012W        W17629  12.878  15.599   0.951  0.0616  0.0789 -0.1678
 2013W        W17630  11.860  15.218   0.331  0.0129  0.0067  0.0672
 2014W        W17631   0.492   3.441  15.134  0.0220  0.0887 -0.0168
 2015W        W17632   2.365  10.917  10.627 -0.2459  0.0628  0.0216
 2016W        W17633  14.737   7.676  13.452 -0.1155 -0.2126 -0.1751
 2017W        W17634  15.423  12.502   5.448 -0.1616  0.0376  0.1646
 2018W        W17635   0.031   2.515   5.954 -0.2702 -0.0164 -0.3376
 2019W        W17636   1.266  14.029  12.116 -0.1939  0.2008 -0.2655
 2020W        W17637  11.798   9.478   0.628 -0.0212 -0.4457  0.0943
 2021W        W17638   6.709   0.515   1.547 -0.0296 -0.1322  0.4405
 2022W        W17639   1.427  13.048   3.946 -0.1688  0.0399 -0.2533
 2023W        W17640  16.137  11.268   5.248  0.3604  0.2178 -0.2553
 2024W        W17641  14.521   3.472   0.670  0.3281  0.0991 -0.0342
 2025W        W17642   9.934  13.814  10.811  0.1601  0.0510  0.2673
 2026W        W17643  13.661   7.183  15.527  0.2473  0.2375  0.2621
 2027W        W17644  12.429   5.425  12.603 -0.0842 -0.0329  0.1308
 2028W        W17645  17.759  11.390  12.237 -0.1184 -0.1390  0.0696
 2029W        W17646   4.312  16.861  15.503 -0.3202  0.3631  0.1736
 2030W        W17647  13.655   4.846  12.665  0.0778 -0.1757  0.0739
 2031W        W17648  10.714  16.000   3.303 -0.0680  0.0118  0.0542
 2032W        W17649  14.421   0.077  13.350  0.1795  0.0400 -0.2992
 2033W        W17650  11.265  12.269  11.163  0.0108  0.1366 -0.1890
 2034W        W17651   0.934   1.431   4.587  0.0523 -0.0853  0.1381
 2035W        W17652   1.992   6.251  12.475  0.1052  0.0138  0.0862
 2036W        W17653   6.816   1.830   4.954  0.0315 -0.2156 -0.1459
 2037W        W17654  13.582  18.297   0.601  0.2053 -0.0494  0.1425
 2038W        W17655  18.271   9.050  11.801 -0.0935 -0.0025 -0.0483
 2039W        W17656   4.121  13.667   4.529  0.0180 -0.1741 -0.2665
 2040W        W17657  15.101   3.779   0.281  0.1635  0.0195  0.1739
 2041W        W17658   7.541  15.904  14.558  0.3974 -0.1099 -0.1488
 2042W        W17659   1.395  17.076   0.791 -0.1651  0.0410  0.1779
 2043W        W17660   4.329  10.503   0.933  0.1082 -0.0778 -0.0709
 2044W        W17661  13.665   4.248   2.356  0.2152 -0.0141 -0.1606
 2045W        W17662   9.140  18.414   0.960  0.2723  0.3380 -0.0246
 2046W        W17663  15.425   3.660  12.828  0.2608 -0.0239  0.6145
 2047W        W17664   4.933   4.706   0.264  0.3457 -0.2016 -0.1805
 2048W        W17665  14.974  10.789   2.563 -0.1105 -0.2074 -0.4385
 2049W        W17666  11.354   5.704   1.334 -0.0078  0.0451  0.0860
 2050W        W17667   3.832  15.251   5.708 -0.0900 -0.1073  0.2814
 2051W        W17668   5.226  17.920   3.021  0.1696 -0.1939  0.0690
 2052W        W17669  18.440   4.921  15.310  0.1792  0.0062 -0.0001
 2053W        W17670  14.323  17.038   0.793 -0.0487  0.0968  0.1721
 2054W        W17671  18.419   5.187  14.668  0.0529 -0.1148  0.2854
 2055W        W17672   5.107  10.399   9.862  0.0554 -0.1772 -0.0173
 2056W        W17673   4.484   0.551   5.116  0.1734 -0.0173 -0.0102
 2057W        W17674  13.320  16.484   4.514  0.0943  0.1401  0.2511
 2058W        W17675   2.799  13.509   1.825  0.0133  0.1824 -0.0814
 2059W        W17676  14.867   2.567   2.784  0.0731 -0.0667  0.1420
 2060W        W17677  17.862  15.222  13.717 -0.7829  0.0160 -0.3014
 2061W        W17678   8.787   5.563  10.129 -0.2279  0.0459  0.0255
 2062W        W17679   0.067  18.429   2.936 -0.1116 -0.1601 -0.3077
 2063W        W17680  10.521  17.810  16.002 -0.1141 -0.0817 -0.0607
 2064W        W17681  15.522   6.255  11.438  0.4024  0.0009  0.3350
 2065W        W17682   2.173   8.281   2.492 -0.0908  0.1913  0.5096
 2066W        W17683   2.819   3.316  13.353 -0.1005  0.0238  0.1967
 2067W        W17684   2.632   2.061  10.935  0.0777 -0.0171  0.2630
 2068W        W17685  11.931   8.968  11.380 -0.2887  0.0713  0.2038
 2069W        W17686   7.148  13.606  14.232 -0.0254  0.2105 -0.0083
 2070W        W17687  10.100   8.956  15.851 -0.3689 -0.1157 -0.1267
 2071W        W17688   2.813   6.587   3.066  0.0629  0.1317 -0.1058
 2072W        W17689   0.233   3.948  11.337  0.1306  0.2728  0.1264
 2073W        W17690   7.449  11.914  11.251  0.0239  0.0288  0.1093
 2074W        W17691  12.220   9.121   4.519 -0.0468 -0.1881 -0.0902
 2075W        W17692   4.506  12.853  14.912 -0.1358  0.3216  0.2434
 2076W        W17693  11.561   9.689   6.067  0.2014  0.2041 -0.1602
 2077W        W17694   3.144   0.137  11.838 -0.0375  0.3371  0.1718
 2078W        W17695  12.007   5.885   3.826 -0.0710  0.0545  0.2817
 2079W        W17696  12.712   7.506  12.378 -0.0866 -0.2710 -0.1917
 2080W        W17697  17.475   9.967  15.617  0.0220 -0.4713 -0.0477
 2081W        W17698   2.602  14.020  11.744 -0.2520 -0.1729 -0.1385
 2082W        W17699  13.719  12.138  14.851 -0.0793 -0.1238 -0.0843
 2083W        W17700  16.997   9.272   0.531  0.2143  0.0644  0.1449
 2084W        W17701  11.076   5.979  14.312 -0.1674 -0.0269 -0.1718
 2085W        W17702  17.780  18.302  11.425  0.3564 -0.2146 -0.0619
 2086W        W17703   2.571  10.401  15.820 -0.1176 -0.0754  0.1853
 2087W        W17704  14.738   9.153   5.056 -0.1172  0.0523  0.0477
 2088W        W17705   2.227   9.453  13.662 -0.0052 -0.2228  0.1556
 2089W        W17706  12.890   3.032  12.020 -0.0770 -0.2080  0.1191
 2090W        W17707   4.799  15.955  14.803 -0.1226  0.2301  0.1033
 2091W        W17708  14.410  14.622  13.316 -0.1492  0.0092 -0.1373
 2092W        W17709  13.201   6.198  15.961 -0.0513  0.0212  0.3091
 2093W        W17710  10.040  10.483   5.181  0.1010 -0.2022 -0.1812
 2094W        W17711   9.035   1.675   3.205  0.0615  0.2839 -0.2879
 2095W        W17712   3.113   8.919   0.709  0.2432  0.0121 -0.1354
 2096W        W17713  14.985   4.911  12.292 -0.4636 -0.0789 -0.1886
 2097W        W17714   7.755  12.308   4.702  0.4188  0.0549 -0.0478
 2098W        W17715   9.283   9.378   2.372 -0.1885  0.2928  0.2701
 2099W        W17716  13.079   4.534   9.825 -0.0933 -0.3860 -0.2859
 2100W        W17717  14.720  15.564   5.713 -0.0036  0.0601 -0.0051
 2101W        W17718   5.109   5.774  15.518  0.0471 -0.3693 -0.0673
 2102W        W17719   7.742  12.536  13.322  0.4695 -0.0515  0.3110
 2103W        W17720  11.678   3.168  11.975 -0.0408  0.3052 -0.2010
 2104W        W17721   0.508  14.349   2.599 -0.0693 -0.2435 -0.0291
 2105W        W17722  16.560  15.603  11.040  0.0668 -0.1640  0.3460
 2106W        W17723  13.125  18.095  12.838  0.0130 -0.0204 -0.2098
 2107W        W17724  16.666   1.814   1.014  0.2073  0.0042 -0.0115
 2108W        W17725  17.505   8.835  12.197  0.0584  0.0717 -0.1637
 2109W        W17726  18.043  17.660   5.999 -0.0172  0.2383 -0.1659
 2110W        W17727  16.908   5.549   1.197  0.1563 -0.3024 -0.0322
 2111W        W17728  10.260  12.670  13.705 -0.1029  0.0379  0.1418
 2112W        W17729   2.720  11.044  12.132 -0.0745 -0.2542 -0.1155
 2113W        W17730   3.083   2.783   5.894 -0.0871  0.0023 -0.0151
 2114W        W17731   2.000  17.680   4.194 -0.0288  0.5831  0.0159
 2115W        W17732   4.692   3.470   0.370 -0.1256  0.0206 -0.1323
 2116W        W17733   8.358   6.957   3.538 -0.0192 -0.1836  0.0011
 2117W        W17734   8.784  10.093   3.589 -0.4018  0.2200  0.2292
 2118W        W17735   6.744   6.968   1.957  0.0633  0.1468  0.0458
 2119W        W17736  18.268   4.828   0.549  0.1858  0.1378  0.2121
 2120W        W17737  11.343   9.430  13.111  0.2824  0.0190  0.1623
 2121W        W17738   2.165   4.200   2.590 -0.1218  0.1119  0.0382
 2122W        W17739   1.971   7.453  11.683 -0.1007  0.2183 -0.2726
 2123W        W17740   1.948   3.845   0.019  0.3989 -0.0721 -0.0700
 2124W        W17741   0.881  12.153   3.640 -0.4088 -0.0529 -0.0940
 2125W        W17742   8.803   3.013   2.680  0.1468  0.0817  0.0706
 2126W        W17743  10.149   8.591  15.166  0.2192  0.2702  0.0646
 2127W        W17744  17.881   6.291  11.268 -0.1874  0.2453  0.2895
 2128W        W17745  17.210  16.996  13.517 -0.0171 -0.3024 -0.1207
 2129W        W17746  18.211   9.509   0.669 -0.2269  0.1254  0.0438
 2130W        W17747   4.880  12.784  14.582 -0.2702  0.0699  0.0572
 2131W        W17748  16.160  10.309   1.165 -0.0981  0.1056  0.0225
 2132W        W17749  14.171  17.229  14.474 -0.0252 -0.1655  0.1485
 2133W        W17750   0.055  15.558   3.540 -0.1390  0.1283 -0.0493
 2134W        W17751  14.092  18.105  14.293  0.0012 -0.0085  0.2511
 2135W        W17752  18.455   0.744   1.237  0.1934  0.2920 -0.1469
 2136W        W17753   5.165  16.371   1.540 -0.0539 -0.0505 -0.1857
 2137W        W17754   9.702   6.285   2.070  0.0196 -0.1114  0.2165
 2138W        W17755   5.940   3.454   0.302  0.3589 -0.1068  0.1709
 2139W        W17756  14.913  17.689  10.952 -0.0750  0.0444  0.2717
 2140W        W17757   7.307   7.602   0.787  0.1279 -0.3857  0.0709
 2141W        W17758   9.514   4.306  12.636 -0.1060  0.1042  0.1850
 2142W        W17759   6.291  11.287  11.274  0.1044  0.2341 -0.2722
 2143W        W17760   0.296  10.786   2.695  0.2025 -0.1655 -0.1179
 2144W        W17761  15.607  13.607   2.145 -0.0014  0.0476  0.0823
 2145W        W17762   2.242   5.172   2.914 -0.2169 -0.0221 -0.0267
 2146W        W17763   0.860   5.193  13.349  0.0185  0.1394 -0.1292
 2147W        W17764  13.571  13.829   5.211  0.1038 -0.0900 -0.1284
 2148W        W17765   1.652  12.422  15.961 -0.2516 -0.1791  0.1661
 2149W        W17766  11.434  14.356  12.834  0.1759  0.1850  0.1272
 2150W        W17767  15.957  10.739   1.928 -0.2650  0.0843  0.3898
 2151W        W17768  11.268   7.735   3.134  0.0816 -0.0396  0.1632
 2152W        W17769  15.808  17.659   2.808  0.1804 -0.1790  0.0503
 2153W        W17770   1.424  17.327   2.059  0.3821  0.0116  0.1551
 2154W        W17771  12.829   9.503  12.550  0.3345 -0.0455  0.1814
 2155W        W17772  15.740   0.202   1.889 -0.0785 -0.1940 -0.0617
 2156W        W17773  15.935  11.958   3.889  0.0561 -0.0146 -0.2602
 2157W        W17774   4.560   9.498  12.861 -0.1300 -0.1733  0.4277
 2158W        W17775   7.963   0.573   1.017 -0.0729 -0.1529 -0.1194
 2159W        W17776  18.282   0.465   4.708  0.3691  0.3326  0.0560
 2160W        W17777   7.533   9.861   3.252 -0.0494 -0.1702 -0.2252
 2161W        W17778  12.098   3.183  13.059 -0.1670 -0.1168  0.2874
 2162W        W17779   5.052   2.549   4.163 -0.1541 -0.1114 -0.1131
 2163W        W17780  17.656  18.260   3.315  0.1324 -0.3459  0.3017
 2164W        W17781   2.148   9.713  15.971  0.0229  0.0875  0.1298
 2165W        W17782  18.451   8.644   3.208  0.2633  0.0149  0.0795
 2166W        W17783   2.075  15.402   2.135 -0.3963  0.2371  0.0568
 2167W        W17784   4.201   7.857   3.075 -0.0443 -0.1640 -0.0688
 2168W        W17785   1.571  14.984   2.972  0.2547  0.0275  0.0797
 2169W        W17786   7.401   9.392   3.264  0.0508  0.0817  0.1911
 2170W        W17787  14.065  13.056  15.606 -0.0904  0.0795  0.0929
 2171W        W17788  11.359  13.325  10.856 -0.2458  0.1002 -0.0903
 2172W        W17789   4.675   2.587   0.140 -0.0269 -0.1152 -0.2926
 2173W        W17790   4.336  17.652  14.807  0.0789  0.1159 -0.0158
 2174W        W17791  11.566  12.763   4.347 -0.0622  0.0211 -0.1309
 2175W        W17792   5.752   2.943   0.211 -0.0711 -0.2569 -0.0431
 2176W        W17793  11.072   4.075   2.007 -0.0259  0.2054 -0.0671
 2177W        W17794  10.339   2.536   0.506 -0.2913 -0.2255 -0.2075
 2178W        W17795  13.626   3.405   0.477  0.0942  0.1375  0.0544
 2179W        W17796   8.889  13.586  15.359  0.3854 -0.0703 -0.0686
 2180W        W17797  13.229  18.271   1.835  0.0336  0.1130  0.1715
 2181W        W17798   8.568   1.764  11.655 -0.0555 -0.0112 -0.0099
 2182W        W17799   7.950  12.985  12.286 -0.1723  0.0695 -0.0216
 2183W        W17800   0.184   2.828  14.264 -0.0966 -0.0767 -0.2280
 2184W        W17801   9.878   8.868  11.287 -0.2626  0.0239 -0.0134
 2185W        W17802  11.769  10.401   3.581  0.1823 -0.0291  0.0679
 2186W        W17803  16.462   4.179  14.617  0.0797  0.0054 -0.1131
 2187W        W17804  14.426  10.209  13.279  0.1408 -0.2558  0.2389
 2188W        W17805   0.515   4.994  11.372  0.1021 -0.1194 -0.0671
 2189W        W17806  15.504   0.709  15.025 -0.0013 -0.0668  0.0140
 2190W        W17807   8.168   2.578  14.042  0.1127 -0.1715 -0.0634
 2191W        W17808   7.774  18.015  14.009 -0.0211  0.4272 -0.1865
 2192W        W17809   9.579  16.415   4.363  0.3279  0.0131  0.1612
 2193W        W17810  10.572   1.605   2.182 -0.0890  0.2112 -0.0420
 2194W        W17811   5.842   0.974   1.148 -0.5141 -0.2928 -0.0434
 2195W        W17812   4.070   2.853   0.497 -0.4494  0.0786  0.2505
 2196W        W17813   6.741   4.948   5.099 -0.4085  0.2299  0.1376
 2197W        W17814  10.013   8.851  11.742 -0.0156  0.0307 -0.2014
 2198W        W17815  10.693   4.215   2.345 -0.3151  0.0374 -0.4170
 2199W        W17816  16.513  17.131  10.810 -0.0149 -0.2155 -0.5627
 2200W        W17817  15.263  14.942  16.087 -0.2013 -0.0197  0.0417
 2201W        W17818   3.333  10.323  15.172 -0.1164  0.2785 -0.4136
 2202W        W17819  14.753   6.320   1.658 -0.0140 -0.0368 -0.3154
 2203W        W17820  11.168  12.774   2.435 -0.2100  0.0100  0.2523
 2204W        W17821   4.650  17.364  12.767 -0.1329  0.1810  0.2382
 2205W        W17822   0.889  16.753  13.921 -0.0451 -0.1145  0.0131
 2206W        W17823   2.155   5.365  15.117 -0.1422 -0.3945 -0.2183
 2207W        W17824  16.714   6.815   3.416  0.4040 -0.1072  0.0661
 2208W        W17825  18.069  12.908   3.041  0.1757 -0.0352 -0.0223
 2209W        W17826  11.626   9.659  12.024 -0.2833 -0.1333 -0.1898
 2210W        W17827   9.151   1.939  13.983  0.0146  0.0607  0.1727
 2211W        W17828  15.272  13.319   4.936  0.1147 -0.0311 -0.1513
 2212W        W17829   1.850  17.007   0.634 -0.1908  0.1305  0.0903
 2213W        W17830   2.415  10.107   0.794 -0.1476  0.1180 -0.1299
 2214W        W17831  18.153   8.465  10.349  0.1213  0.3525  0.0386
 2215W        W17832   7.130  10.960  11.574  0.0058 -0.1803  0.2323
 2216W        W17833   9.548   5.769  11.454  0.0993  0.2418 -0.0864
 2217W        W17834  17.026  11.183  13.250  0.0428  0.2461  0.2109
 2218W        W17835   7.337  14.276  12.681 -0.0548 -0.2193 -0.0800
 2219W        W17836   7.574   4.969   4.209 -0.0797  0.1594 -0.0087
 2220W        W17837   4.607   7.992   1.860 -0.2549 -0.0483  0.1332
 2221W        W17838   6.876   1.129   2.677 -0.0201 -0.0818  0.0652
 2222W        W17839  15.421  12.007  14.273 -0.2254  0.2107  0.0351
 2223W        W17840   8.789   7.515   2.038 -0.1409  0.2374 -0.1622
 2224W        W17841   4.791   6.569  12.989  0.0906  0.0034  0.0351
 2225W        W17842  10.466   4.693  14.686 -0.2158  0.2242 -0.0376
 2226W        W17843  11.553  16.263   0.082 -0.3851  0.1032  0.0454
 2227W        W17844  13.616   3.978  13.026  0.1454  0.2676  0.3806
 2228W        W17845   6.776   4.123  11.230  0.1134 -0.0622  0.0160
 2229W        W17846  12.853  16.387   4.280 -0.2401 -0.2012  0.1996
 2230W        W17847   8.145   2.662   4.433  0.0505 -0.1964 -0.2375
 2231W        W17848  10.427   4.546  12.892  0.1532  0.0083 -0.0012
 2232W        W17849   5.873  18.239   2.175 -0.1535  0.0615  0.2619
 2233W        W17850   8.858   0.722   5.245  0.1184  0.1220  0.0190
 2234W        W17851   0.569  12.508  11.873 -0.1026 -0.2640  0.0260
 2235W        W17852   8.758  12.413   2.699 -0.1095 -0.0324 -0.1736
 2236W        W17853   1.829   0.365   2.135 -0.0331 -0.0966 -0.0538
 2237W        W17854  14.803  17.800   5.068  0.0983  0.1345  0.1386
 2238W        W17855   7.762  17.478  13.831 -0.0452  0.3268 -0.1390
 2239W        W17856  10.601   5.024   1.731  0.3048  0.0712  0.0549
 2240W        W17857  10.529  16.008  12.222  0.1448  0.2126  0.2675
 2241W        W17858   9.455   6.163   4.996 -0.1907 -0.2405 -0.0945
 2242W        W17859   2.010   9.785   0.353  0.0056  0.5022  0.0064
 2243W        W17860  12.810  10.973  14.233 -0.2308 -0.0760 -0.2652
 2244W        W17861  17.898  10.948   5.223 -0.0588 -0.1615  0.0168
 2245W        W17862  10.548   2.970   1.804 -0.0331 -0.0503 -0.1597
 2246W        W17863   3.815  11.732   0.841 -0.2961  0.2748 -0.1098
 2247W        W17864   4.173   0.940  15.055 -0.2620 -0.0217  0.2546
 2248W        W17865  10.736   2.589   0.147 -0.1936  0.3006  0.1166
 2249W        W17866   0.054  10.885   4.113  0.1144 -0.1489  0.0069
 2250W        W17867   1.300   7.567   0.517  0.2148  0.0910 -0.0479
 2251W        W17868  15.729   8.344  15.008 -0.0390 -0.4387 -0.2733
 2252W        W17869   2.214  13.961   5.900  0.3224 -0.0879 -0.0128
 2253W        W17870  12.424   9.575  16.068  0.2090 -0.0022 -0.0957
 2254W        W17871  18.260   3.044  13.604 -0.0411  0.2370 -0.0146
 2255W        W17872  17.469   9.027   4.016  0.1842  0.3869 -0.1131
 2256W        W17873   6.288   3.613   3.241  0.0562  0.1088  0.0105
 2257W        W17874   7.846   7.222  13.319  0.1425 -0.0915  0.1720
 2258W        W17875  18.197   7.192   1.494 -0.1251  0.0673  0.1369
 2259W        W17876   9.075   9.094  16.138 -0.0999  0.1236  0.3987
 2260W        W17877  10.930   7.363   1.738 -0.2830 -0.0596 -0.0484
 2261W        W17878  12.304   9.980  12.766 -0.4309  0.0268 -0.1965
 2262W        W17879   6.124  12.488   3.508  0.1259 -0.0428  0.1077
 2263W        W17880  10.349   3.651   0.487  0.2410 -0.1033 -0.0621
 2264W        W17881  12.869   1.813  14.331  0.1069 -0.2767  0.3004
 2265W        W17882   0.497   9.514   5.121 -0.3522 -0.1504 -0.1625
 2266W        W17883  15.374   2.227  12.444  0.2861 -0.1746  0.1548
 2267W        W17884   6.802   0.559  14.842 -0.0738  0.2135 -0.0589
 2268W        W17885  11.183   3.755  14.548 -0.0989  0.0814 -0.1294
 2269W        W17886   3.157   3.995  14.797  0.0590 -0.0133 -0.1839
 2270W        W17887   3.040  11.354   3.927 -0.2568  0.1609 -0.3175
 2271W        W17888   0.640  10.705  12.634  0.0614 -0.2237 -0.2541
 2272W        W17889  10.447  17.119   2.180 -0.1938  0.0356 -0.0225
 2273W        W17890   1.593  14.280   3.054  0.0178 -0.1457  0.1800
 2274W        W17891  15.007  12.217  10.749  0.1069  0.0923 -0.0238
 2275W        W17892  16.824  15.722   4.163 -0.0004  0.0039 -0.2430
 2276W        W17893   2.320  13.120   2.472  0.2260  0.1714 -0.0617
 2277W        W17894   7.929  16.743   2.882  0.3237 -0.2398  0.1051
 2278W        W17895  18.107   2.692   1.722  0.2887 -0.2261 -0.2130
 2279W        W17896  10.348  11.079  15.515 -0.1460 -0.0733  0.0699
 2280W        W17897  10.396  10.566  13.558  0.1329  0.1762  0.1710
 2281W        W17898  14.252  16.324   0.042  0.0767  0.2423  0.0747
 2282W        W17899  10.196   7.067  15.316 -0.0985 -0.0471 -0.2531
 2283W        W17900  12.587  15.754  11.984 -0.1611  0.0057  0.0055
 2284W        W17901  10.059   4.141   4.150  0.1182  0.4319  0.1182
 2285W        W17902  11.824  11.470  13.518  0.1327  0.2880 -0.0061
 2286W        W17903   7.416  11.370  11.928  0.1510  0.1333  0.1629
 2287W        W17904   8.292  10.226  10.889 -0.2272 -0.2926 -0.3847
 2288W        W17905  11.711  10.859   0.827  0.2826  0.2160 -0.0383
 2289W        W17906   3.280   2.818   1.932 -0.1438  0.2936  0.0807
 2290W        W17907   2.709  15.003   2.933 -0.1313 -0.2850  0.0716
 2291W        W17908   9.745   1.840   1.506 -0.0947 -0.2025  0.0889
 2292W        W17909  12.043   9.525   2.513 -0.0186  0.0043  0.0623
 2293W        W17910  16.514  10.644   5.821 -0.1232  0.0118  0.2091
 2294W        W17911   7.965   5.966  10.154  0.0784  0.0663  0.1213
 2295W        W17912  15.343   4.647   4.648 -0.0545  0.4153 -0.3166
 2296W        W17913   3.109   5.768   2.190  0.1326  0.4149 -0.2914
 2297W        W17914   6.338  13.442  15.350 -0.0244 -0.2986 -0.0437
 2298W        W17915  16.517   1.014   5.073 -0.1429  0.0001 -0.1383
 2299W        W17916  12.089   7.753   3.399  0.0534  0.1878 -0.3093
 2300W        W17917   4.114  14.722  15.483  0.3982 -0.0657  0.0519
 2301W        W17918  16.150  16.543   0.520  0.0830  0.3310  0.2197
 2302W        W17919  17.750  18.126  13.162  0.1662 -0.0357  0.0107
 2303W        W17920  15.682  15.327  14.759 -0.0686 -0.0573  0.2522
 2304W        W17921  13.235  10.659  14.358 -0.1003  0.2976 -0.1671
 2305W        W17922  14.686   6.822  13.162 -0.2721  0.0591 -0.4230
 2306W        W17923  11.262   1.233  10.761  0.2032 -0.1724  0.0045
 2307W        W17924  17.438   2.342   6.361 -0.2302  0.0306  0.0331
 2308W        W17925   7.583  18.145   0.564  0.3178 -0.0369 -0.1218
 2309W        W17926  16.279   9.168  12.840  0.0251 -0.4780  0.0278
 2310W        W17927   2.430   8.428   0.245 -0.1617 -0.2813  0.1068
 2311W        W17928   4.134  11.403   0.465  0.0373  0.3246  0.2160
 2312W        W17929  15.967   4.225  12.270  0.1700  0.0193 -0.1734
 2313W        W17930  13.295  17.277  15.499  0.0557  0.0119 -0.1539
 2314W        W17931  17.429   3.616  14.110 -0.2157 -0.2498  0.3395
 2315W        W17932   4.759   1.519  12.926  0.0016  0.2917  0.0503
 2316W        W17933   9.832   3.533  14.105  0.0357  0.1221 -0.1229
 2317W        W17934   3.954   0.515  12.163 -0.1514 -0.1044 -0.0713
 2318W        W17935  16.407  11.927  11.123  0.0306  0.4783  0.0078
 2319W        W17936  11.967  15.416  16.012 -0.1029 -0.0387  0.0395
 2320W        W17937   4.413  16.073   1.159 -0.2446  0.2072  0.1623
 2321W        W17938   9.345  11.828   0.722 -0.0700  0.3024 -0.0132
 2322W        W17939  17.905  17.037   3.066  0.0883 -0.0666  0.0976
 2323W        W17940   7.277  17.357  13.855  0.0204 -0.1460 -0.2842
 2324W        W17941  12.395  13.650   0.696 -0.0044 -0.0761 -0.0290
 2325W        W17942  13.400   9.956   4.266 -0.3622 -0.1886 -0.3098
 2326W        W17943  10.002   2.737   2.701  0.0290  0.1882  0.0537
 2327W        W17944  18.192  10.227   4.227 -0.0439  0.0060  0.0910
 2328W        W17945  13.720   4.652   4.992 -0.1465  0.0653  0.1504
 2329W        W17946  10.484  13.658   6.480  0.2339  0.2914 -0.0248
 2330W        W17947  14.140  12.545   1.834 -0.0019 -0.0467  0.4276
 2331W        W17948  12.202  14.878   1.343 -0.2264  0.2020 -0.0064
 2332W        W17949  12.722  15.494  15.828 -0.0034  0.0069  0.2129
 2333W        W17950   5.574  14.678  12.803 -0.2512  0.1006  0.0897
 2334W        W17951   7.077   9.400  15.483  0.5472 -0.0231  0.4029
 2335W        W17952   4.172  10.279  16.006  0.0346 -0.4043 -0.1451
 2336W        W17953   2.258   1.952  15.429 -0.0551 -0.0455  0.0771
 2337W        W17954  11.599   1.338  11.204 -0.1042 -0.0254 -0.2084
 2338W        W17955   1.035   6.623  15.060  0.1208  0.3258  0.4372
 2339W        W17956  17.678  10.112  12.718  0.2283 -0.0281  0.0635
 2340W        W17957  10.935  10.977  11.780 -0.1272  0.1724  0.1157
 2341W        W17958   0.467  12.860   0.656  0.1144 -0.2135  0.1840
 2342W        W17959   2.083  11.434   2.227  0.3223  0.1736 -0.1128
 2343W        W17960  16.649  10.901  12.007  0.0878  0.3098 -0.0316
 2344W        W17961   5.452  12.107   6.361  0.0287  0.1966  0.0480
 2345W        W17962  16.176   1.672   1.225 -0.3655  0.6069  0.0463
 2346W        W17963   5.260  16.376   4.700 -0.1665  0.3621  0.0535
 2347W        W17964  14.148  10.622  13.233 -0.0033 -0.2301 -0.2249
 2348W        W17965   1.020   4.059   5.348  0.1045  0.1889  0.1282
 2349W        W17966   0.677  14.664   3.039  0.0189 -0.2504  0.0385
 2350W        W17967  15.849   2.450  13.469 -0.0232  0.0643 -0.0705
 2351W        W17968   3.899   6.377  11.039  0.3488  0.2165 -0.2160
 2352W        W17969   8.165   8.020   2.411  0.0808 -0.0565  0.0410
 2353W        W17970   9.131   5.476  11.399 -0.1792 -0.0796  0.0635
 2354W        W17971   5.648   1.304  12.910 -0.0386  0.1665  0.0676
 2355W        W17972  10.436  15.526  15.243  0.3395 -0.0087 -0.0961
 2356W        W17973   6.904   5.626  15.757 -0.2288  0.0635  0.2359
 2357W        W17974   1.025  13.654   2.142 -0.1161  0.3685  0.1313
 2358W        W17975  15.899   9.325   3.546 -0.0903  0.2113 -0.0621
 2359W        W17976   2.650  11.038  13.855  0.1984 -0.0359  0.1858
 2360W        W17977   0.269  10.936   5.142  0.2425 -0.0738  0.0568
 2361W        W17978  10.623  17.232   6.052 -0.0377 -0.2677  0.2697
 2362W        W17979  11.934  18.110   5.275 -0.3181 -0.0956  0.0254
 2363W        W17980  15.694  12.104  14.664 -0.3416  0.0549  0.1026
 2364W        W17981   4.013  17.906  15.531 -0.2534  0.1893  0.1166
 2365W        W17982  12.797   4.674   1.988 -0.1711  0.0947 -0.0382
 2366W        W17983  16.676   7.246   1.313  0.2139 -0.0591 -0.0804
 2367W        W17984   9.046   4.385   2.366  0.3587 -0.1500  0.0359
 2368W        W17985  13.905   8.245   0.337 -0.0167  0.3024  0.0877
 2369W        W17986   6.974  16.582  14.259 -0.1708 -0.0048 -0.2655
 2370W        W17987   2.390  13.865   0.495 -0.1668 -0.2670 -0.0931
 2371W        W17988  11.483  10.663  16.032 -0.1827 -0.0401 -0.0563
 2372W        W17989  17.110   1.526   0.887 -0.1446 -0.0173  0.2140
 2373W        W17990   3.125  18.025   3.364  0.1233  0.1808 -0.1038
 2374W        W17991   5.804  17.937   5.002 -0.1506 -0.1803 -0.1489
 2375W        W17992  13.580   2.682   4.731 -0.1674 -0.1491 -0.1383
 2376W        W17993   4.141  10.332  14.545 -0.0538  0.0489  0.1033
 2377W        W17994   0.918   3.959  12.277  0.3893  0.3129 -0.0542
 2378W        W17995   5.677   4.600  10.492  0.1945  0.0732  0.2133
 2379W        W17996   3.857   6.284  12.177 -0.0995  0.0137 -0.1818
 2380W        W17997  13.453   5.663  15.246  0.0956  0.0407  0.1207
 2381W        W17998  17.769   7.793  16.055 -0.1791 -0.2137 -0.0688
 2382W        W17999  14.664   4.028  12.371  0.1593  0.0737  0.0805
 2383W        W18000  16.317  16.458  11.384  0.2549 -0.0814  0.0326
 2384W        W18001   2.790   7.756  15.844 -0.0186 -0.0944  0.5978
 2385W        W18002   3.152  16.489  15.699  0.0193 -0.2488 -0.3967
 2386W        W18003   1.725   0.518   1.662 -0.2789 -0.1276 -0.1601
 2387W        W18004   8.601  15.954   1.068 -0.0458  0.0327  0.1124
 2388W        W18005   8.763   7.288  11.112  0.0493  0.2661 -0.1717
 2389W        W18006  14.555   7.251   3.737  0.1943 -0.0346  0.1109
 2390W        W18007   6.908  14.899   2.141 -0.0813  0.0768  0.1189
 2391W        W18008  14.424  13.686   1.740  0.1178 -0.1382 -0.1695
 2392W        W18009  12.403   0.204  14.023  0.0464 -0.1646 -0.1887
 2393W        W18010   2.351   0.912   4.202  0.1424 -0.2938 -0.1209
 2394W        W18011   6.297  13.230  14.373 -0.0422  0.1333  0.2653
 2395W        W18012   0.554  15.820   0.853 -0.2702 -0.1434  0.1249
 2396W        W18013   5.132  10.543   0.109  0.3400  0.0107  0.1663
 2397W        W18014  11.290   9.953  12.352  0.2987  0.2886  0.1100
 2398W        W18015   7.091   1.963   0.662  0.4918 -0.0978  0.0074
 2399W        W18016   0.339  12.333   0.381 -0.1051  0.0625  0.0671
 2400W        W18017  14.517   4.714  10.499  0.3074  0.1872  0.1866
 2401W        W18018  11.206  11.970  13.712  0.1003  0.1362 -0.2097
 2402W        W18019  16.731   4.853   5.045 -0.1336  0.4466  0.1262
 2403W        W18020  13.420  18.074  10.797  0.3547  0.0134 -0.0691
 2404W        W18021   6.333  13.764  12.041  0.0603 -0.2912  0.0894
 2405W        W18022   1.031  14.169   5.918  0.0157 -0.0835  0.3082
 2406W        W18023   8.734   7.653  13.827 -0.2238 -0.1864 -0.3224
 2407W        W18024   3.342   1.333  16.017  0.1657  0.1318 -0.0855
 2408W        W18025  10.714   9.132  15.907  0.1042 -0.1911 -0.2637
 2409W        W18026   2.983  14.993  12.856 -0.1316 -0.1898 -0.2648
 2410W        W18027   1.303  16.257   4.601 -0.1862 -0.0849  0.0454
 2411W        W18028   8.054   2.392  15.738 -0.0388  0.1201  0.0799
 2412W        W18029  14.974   1.257  15.338  0.4141  0.2441 -0.2016
 2413W        W18030  18.156  17.462  14.797  0.0232  0.0527  0.2168
 2414W        W18031  10.145   4.796   4.192 -0.4192  0.2894 -0.1001
 2415W        W18032   6.563   0.478   2.303  0.2146 -0.3240 -0.2982
 2416W        W18033  14.608   4.742  13.268 -0.0816  0.0268  0.0242
 2417W        W18034   2.647  10.417   4.652 -0.0929  0.0491  0.3207
 2418W        W18035   0.517   7.060   0.350 -0.2000 -0.0964  0.2047
 2419W        W18036  11.635   6.787  14.297  0.2617  0.0887  0.2639
 2420W        W18037  15.536  12.917  11.009  0.1076 -0.1642  0.0484
 2421W        W18038   3.160   0.487  14.829 -0.0673 -0.1177 -0.0197
 2422W        W18039  11.560  18.432   3.890 -0.1584  0.1831 -0.2136
 2423W        W18040  11.826  14.391  15.305 -0.2173 -0.2603 -0.1477
 2424W        W18041   0.052   7.726  12.401  0.0067 -0.0567  0.1567
 2425W        W18042   4.001  16.557  11.849 -0.3298  0.1159 -0.0048
 2426W        W18043   1.141   9.013   1.164 -0.0291  0.4508 -0.1662
 2427W        W18044  14.778   1.768  14.051 -0.1476 -0.1726 -0.1854
 2428W        W18045   6.527   7.405  12.318 -0.0673 -0.3283  0.0524
 2429W        W18046   9.128  14.551   0.734 -0.0786 -0.1142 -0.3132
 2430W        W18047  15.499  16.195  14.771 -0.1419 -0.2135  0.1278
 2431W        W18048   5.025   5.501  10.655 -0.1372  0.1100 -0.0506
 2432W        W18049  18.367  12.912  12.396  0.2054  0.1808  0.3177
 2433W        W18050   7.515  14.162   5.922 -0.1568 -0.2897  0.3422
 2434W        W18051  15.540   3.772  10.885 -0.2985  0.2464 -0.1274
 2435W        W18052  11.654   8.221   0.052  0.0353  0.2611 -0.0205
 2436W        W18053  13.512  11.746  15.205  0.1187  0.0366  0.0267
 2437W        W18054  11.567  13.798  16.070 -0.2570 -0.0828  0.0715
 2438W        W18055  13.440  11.590   5.201  0.1743  0.0209  0.1060
 2439W        W18056   5.674   9.105   5.863 -0.2270  0.0228 -0.2080
 2440W        W18057   0.868   5.306   0.654 -0.1773 -0.1440  0.0826
 2441W        W18058   8.878  10.613   3.260 -0.1134 -0.1224 -0.0300
 2442W        W18059  16.913   5.766  14.158 -0.0687  0.0603 -0.0365
 2443W        W18060   4.501   2.768   4.882  0.0039  0.1420 -0.2364
 2444W        W18061   2.733   7.232  15.672 -0.0358 -0.1482  0.0439
 2445W        W18062   3.402   2.564  12.651 -0.0768 -0.1825 -0.0091
 2446W        W18063  16.694  16.828  14.285  0.0306  0.0104  0.2311
 2447W        W18064   1.760  14.336  15.967  0.0102  0.1949 -0.2247
 2448W        W18065  10.237  10.583   4.245  0.0969  0.0733  0.0296
 2449W        W18066   8.484  13.132  12.089 -0.0207  0.2664  0.2652
 2450W        W18067   6.973  16.537   0.405 -0.4111 -0.1454  0.0297
 2451W        W18068   6.237   7.460  14.539 -0.1387 -0.0752 -0.2270
 2452W        W18069   9.558  17.820  13.881  0.4864  0.3114 -0.3089
 2453W        W18070   3.731   0.220  13.990 -0.4891 -0.1652 -0.4246
 2454W        W18071  16.117   2.121   4.009  0.1664  0.1015 -0.2455
 2455W        W18072  10.496  11.888   1.700  0.2390 -0.2151  0.2657
 2456W        W18073   2.312   9.810  12.225  0.1128  0.0956  0.0083
 2457W        W18074   3.764   9.304  11.778 -0.2885  0.0441 -0.0884
 2458W        W18075  15.472   4.691  14.291 -0.0901 -0.5890  0.2725
 2459W        W18076   5.487  13.698  13.113  0.0633  0.1684 -0.1505
 2460W        W18077  14.257   9.967   1.658 -0.0449  0.1523 -0.0546
 2461W        W18078  13.590  11.832   4.694 -0.1697 -0.3646 -0.0523
 2462W        W18079   3.836   2.633   3.050 -0.1076  0.1782  0.0194
 2463W        W18080   2.600   1.104   5.960 -0.1404 -0.1255  0.3376
 2464W        W18081  11.932  14.003   1.060 -0.1063 -0.0102  0.1028
 2465W        W18082  17.509   5.615   4.889  0.1021  0.2750 -0.1182
 2466W        W18083   4.215  15.258   2.900  0.0152 -0.3609 -0.0398
 2467W        W18084  16.225  10.056  12.641  0.1261 -0.2427 -0.2129
 2468W        W18085   9.282  15.253   5.340  0.2305 -0.3240  0.1452
 2469W        W18086  18.338  12.269  14.690 -0.0672 -0.0088 -0.1634
 2470W        W18087   8.457  13.589  12.041  0.0259  0.0442 -0.0520
 2471W        W18088   6.784   6.335   0.791 -0.0910  0.1583 -0.3448
 2472W        W18089  12.688  17.430  12.206  0.1195 -0.0032  0.3059
 2473W        W18090   3.006   5.719  15.968 -0.3064  0.0556  0.1059
 2474W        W18091   5.903   8.628  14.631  0.3279  0.0622 -0.0078
 2475W        W18092  10.254  12.139  13.739 -0.3529  0.1974  0.0289
 2476W        W18093   6.730  15.468   4.409  0.2122 -0.0450 -0.2191
 2477W        W18094   7.251  11.990   0.904 -0.0825  0.1480  0.0097
 2478W        W18095  13.829  17.393   3.063  0.2146 -0.1845  0.4854
 2479W        W18096   2.029  10.004  11.814 -0.2243 -0.0528 -0.0067
 2480W        W18097  13.327  18.070   5.853  0.2352 -0.0022 -0.1276
 2481W        W18098  16.792  16.326  14.115 -0.1258 -0.0294  0.0493
 2482W        W18099  15.108   4.316   3.034 -0.2470  0.3229  0.1822
 2483W        W18100  16.508  12.894   0.753 -0.1963 -0.0051  0.1080
 2484W        W18101  15.112   5.906   0.089 -0.0006  0.1119  0.0548
 2485W        W18102  14.080   3.106   2.566  0.1945  0.3952 -0.0650
 2486W        W18103  17.499  12.690   3.656  0.2926 -0.0224 -0.1220
 2487W        W18104   2.454   6.196  12.075 -0.4278 -0.1540 -0.0389
 2488W        W18105   9.400   7.419  12.430  0.2135  0.0258 -0.2553
 2489W        W18106  12.709   5.844  15.209 -0.1888  0.0478 -0.1824
 2490W        W18107   8.337   0.052   3.457  0.0542 -0.2480  0.0539
 2491W        W18108  11.043  18.267  12.789 -0.0617  0.0323  0.2113
 2492W        W18109  16.953   3.177   2.132 -0.0159  0.1289 -0.1002
 2493W        W18110   9.394  16.159   0.310 -0.0638  0.2757 -0.5435
 2494W        W18111  14.685  18.016  14.523  0.1548  0.0124  0.2449
 2495W        W18112  16.862   2.306   1.141  0.1845 -0.0406 -0.0296
 2496W        W18113  14.890  15.332   3.861  0.0693  0.4780 -0.3875
 2497W        W18114   2.456   4.789   2.636  0.1207 -0.1435 -0.1559
 2498W        W18115   7.657   8.482   0.298  0.0319 -0.2515  0.3169
 2499W        W18116   5.747   3.444   2.303 -0.3194  0.0415  0.0906
 2500W        W18117  12.028  16.320  11.667 -0.2243 -0.0750 -0.3339
 2501W        W18118  14.147  10.389  15.096  0.1641 -0.1947  0.2026
 2502W        W18119   7.372  17.350   0.875  0.0692  0.2982 -0.1908
 2503W        W18120   4.106  11.537  11.900  0.1106  0.0579 -0.2455
 2504W        W18121  11.898  14.490   2.526  0.2652 -0.1481  0.2190
 2505W        W18122  14.767   8.706  12.255 -0.0163  0.1859  0.3023
 2506W        W18123   8.301   8.439   1.890 -0.0650  0.2283  0.0793
 2507W        W18124  14.002  10.601   0.522 -0.0054 -0.1767 -0.0413
 2508W        W18125   9.111  16.918  16.040 -0.2167  0.2422  0.1185
 2509W        W18126   8.076  13.108   1.260  0.2295 -0.0598  0.1080
 2510W        W18127  11.917  13.595   4.827  0.0159  0.3327  0.0004
 2511W        W18128  14.802  12.390  15.618  0.2555  0.4453 -0.0765
 2512W        W18129   5.379  15.097   1.359  0.0343 -0.0158 -0.1393
 2513W        W18130   1.557   9.529   4.283  0.3698  0.1606  0.1669
 2514W        W18131   1.388   1.857   4.872  0.2834 -0.3543 -0.0656
 2515W        W18132  15.934   2.617   3.927 -0.1884 -0.1207 -0.3221
 2516W        W18133  12.429   2.200   0.942  0.0178  0.0698  0.1539
 2517W        W18134   2.483   3.634   0.135  0.0199  0.0381 -0.0168
 2518W        W18135   0.303  15.426  15.845 -0.2599  0.3385 -0.0645
 2519W        W18136  14.577   8.648  10.575 -0.0825  0.0566  0.1441
 2520W        W18137   9.365   7.814   0.658  0.1267 -0.1052  0.2129
 2521W        W18138  13.636   7.439  12.476 -0.0162  0.2173  0.3653
 2522W        W18139  13.807  12.691  12.281  0.2321  0.1799 -0.1046
 2523W        W18140   4.559  15.987  13.924 -0.0901  0.1113  0.0203
 2524W        W18141   1.531   8.636   1.183 -0.3492  0.2368  0.0910
 2525W        W18142  11.923   7.295   0.175 -0.3825  0.0612 -0.0088
 2526W        W18143  13.226  17.230   5.493  0.1377 -0.2008 -0.2452
 2527W        W18144  14.325  17.098   2.627  0.1074 -0.3593 -0.1043
 2528W        W18145  10.697  16.417  14.116 -0.0877 -0.1715 -0.0558
 2529W        W18146   6.816   0.996  10.067 -0.2195  0.1016  0.0259
 2530W        W18147   2.431   8.672  12.996 -0.0288  0.1539 -0.0409
 2531W        W18148  12.089   0.040  13.474  0.1743  0.0505  0.0677
 2532W        W18149  16.433  12.901   2.495  0.1526  0.3060 -0.0538
 2533W        W18150  15.439  16.362   5.330  0.2828  0.0658  0.3127
 2534W        W18151  12.308  17.667   4.656 -0.3194 -0.0818 -0.2664
 2535W        W18152   8.413   8.452   3.135 -0.0744  0.0613 -0.0223
 2536W        W18153   9.611  10.828  12.314 -0.0196 -0.2462 -0.0131
 2537W        W18154   1.920  15.538   0.749 -0.1317  0.2506 -0.0551
 2538W        W18155  12.469   4.381   2.768  0.2974  0.0135  0.3205
 2539W        W18156   7.193   1.617  14.948  0.1181 -0.2365 -0.0037
 2540W        W18157  16.773   6.211   0.216 -0.2982  0.1471 -0.0100
 2541W        W18158  14.820  16.202  16.104  0.1796  0.0130 -0.2120
 2542W        W18159  13.405   4.073  11.123 -0.0471 -0.0082  0.0694
 2543W        W18160  17.199   4.120   1.669 -0.0969 -0.2501  0.1692
 2544W        W18161   6.422  17.584  12.734  0.2759 -0.3341  0.2997
 2545W        W18162  14.035   4.851  13.920  0.2160  0.2101  0.2302
 2546W        W18163  11.278  13.466  15.697  0.1491  0.0791  0.0757
 2547W        W18164  17.458   6.655  11.793 -0.1436  0.0410  0.1952
 2548W        W18165   3.911  15.384  13.747  0.0015  0.3024 -0.2311
 2549W        W18166  18.038   9.280  13.293  0.5118 -0.4113  0.2023
 2550W        W18167  18.445  15.067   0.190  0.2680  0.3428 -0.1748
 2551W        W18168  17.848  12.995  15.209 -0.0458 -0.3052  0.1467
 2552W        W18169  16.745  17.000   0.512  0.2330 -0.2568  0.1087
 2553W        W18170   7.253   1.577  12.929 -0.0460 -0.0013  0.0513
 2554W        W18171   6.862  17.190   5.066 -0.0849 -0.1227 -0.1701
 2555W        W18172  11.240   9.129  15.924 -0.0238 -0.0621  0.1766
 2556W        W18173  16.755  14.126   5.665  0.0955  0.0945  0.0227
 2557W        W18174  14.891   1.448   5.440 -0.3647 -0.0359  0.1271
 2558W        W18175   5.187   9.173  15.677  0.0740 -0.0158  0.2314
 2559W        W18176  17.068  11.668  12.482 -0.0848  0.1822 -0.3261
 2560W        W18177   1.393   8.243  13.665 -0.2416 -0.3098  0.1123
 2561W        W18178  13.981   4.953  15.156 -0.0133  0.1170  0.0860
 2562W        W18179   2.137  13.856   3.528  0.1276 -0.1541  0.0940
 2563W        W18180  17.236   4.107   4.004  0.2859 -0.2090  0.0146
 2564W        W18181   5.665  12.589  11.406 -0.2252  0.1711 -0.0060
 2565W        W18182  10.600   3.239  11.331  0.2712 -0.1248  0.2691
 2566W        W18183   6.478  15.435   0.810  0.0553  0.2755  0.1020
 2567W        W18184   4.765  15.300   0.721 -0.0242 -0.3005  0.0891
 2568W        W18185   7.982  17.262   2.872 -0.2009  0.0725  0.0659
 2569W        W18186  14.832  17.944   4.536  0.4251 -0.2248 -0.0313
 2570W        W18187   3.262  11.795   0.057  0.2262 -0.0826 -0.0703
 2571W        W18188   7.493  14.028  15.834  0.0175  0.1511  0.2532
 2572W        W18189  17.306   1.919  13.559  0.2388 -0.0555 -0.0165
 2573W        W18190  10.683  14.595   6.122  0.0480  0.1550  0.1305
 2574W        W18191  14.671  16.314   2.356 -0.1322 -0.0755  0.0860
 2575W        W18192   6.569   8.948  14.228 -0.1003 -0.2901 -0.1466
 2576W        W18193  15.302   6.090   3.374  0.2049 -0.1736  0.2299
 2577W        W18194  16.091   6.805  10.963  0.0185  0.2843  0.0152
 2578W        W18195   1.909   1.471  11.924  0.1435 -0.2868 -0.1949
 2579W        W18196   5.497  17.647  13.275 -0.2715  0.1505 -0.0639
 2580W        W18197  17.040   5.590  15.899  0.1187 -0.2921 -0.1457
 2581W        W18198   3.535   9.713   1.257  0.2807 -0.1406  0.1642
 2582W        W18199  16.103   6.088  14.280  0.1565 -0.0253  0.0510
 2583W        W18200   9.018   8.743  12.909 -0.0873 -0.3193 -0.2163
 2584W        W18201   8.355   6.968  13.411 -0.1199 -0.0816  0.0330
 2585W        W18202   3.701  12.065  14.592 -0.2694 -0.0774  0.2336
 2586W        W18203   3.994   4.272   0.663  0.1653  0.1062  0.1605
 2587W        W18204  13.253  11.431  16.010  0.1469 -0.0045  0.0294
 2588W        W18205  10.486  17.593  15.391  0.0149  0.0163  0.0776
 2589W        W18206   2.791   3.719  10.822 -0.0270 -0.1577  0.1550
 2590W        W18207  16.594  12.488   0.511  0.1166 -0.0258  0.1592
 2591W        W18208  10.917   0.199  16.013 -0.6286  0.5357  0.2426
 2592W        W18209   3.166  11.701   4.902 -0.0196 -0.0983  0.0008
 2593W        W18210  15.413  11.550  11.846 -0.1519  0.1010  0.1660
 2594W        W18211  14.176   7.567   1.212 -0.3688  0.0794 -0.1997
 2595W        W18212  11.049   6.095  12.240 -0.0990  0.1105 -0.1291
 2596W        W18213  14.542  13.792   6.125 -0.0662  0.1771 -0.0900
 2597W        W18214   0.053  17.837   2.113 -0.2434 -0.1699 -0.0402
 2598W        W18215  13.381   0.084   4.463  0.1797 -0.2882 -0.1028
 2599W        W18216   6.580   1.263  10.497 -0.1020  0.0778 -0.2812
 2600W        W18217   8.728  10.122  11.628 -0.1039  0.1559  0.2465
 2601W        W18218  16.157   7.462  14.553 -0.0805 -0.1973  0.1842
 2602W        W18219  10.597   2.906  14.178 -0.3493 -0.0383  0.2120
 2603W        W18220  10.157   8.902   0.629  0.2432 -0.1287 -0.1835
 2604W        W18221  18.256   7.240  15.252  0.1004 -0.2492 -0.2686
 2605W        W18222  16.666   1.140   3.467  0.0848  0.0060  0.1971
 2606W        W18223   6.930  13.107  11.373 -0.0710 -0.3743  0.0071
 2607W        W18224  10.235  11.518  14.197  0.0755 -0.1564 -0.1991
 2608W        W18225  12.097   6.483   2.565  0.1390 -0.3372 -0.2895
 2609W        W18226  10.291   0.979   4.419 -0.0502 -0.0507  0.3508
 2610W        W18227   1.154   2.071   5.311 -0.1619 -0.0415 -0.1110
 2611W        W18228  13.828   0.660   0.323  0.1945 -0.0080 -0.0395
 2612W        W18229   6.270   6.211   1.489  0.1071 -0.0764 -0.0397
 2613W        W18230  12.071  11.131  12.502  0.1253  0.1485 -0.2725
 2614W        W18231   2.410   9.671  12.688  0.1795 -0.1373 -0.2616
 2615W        W18232   9.258  15.535  15.168  0.0375 -0.5034 -0.0801
 2616W        W18233   9.138  10.861  10.612  0.0277 -0.4914  0.1742
 2617W        W18234   9.294  11.162  12.534  0.1014  0.2770  0.1647
 2618W        W18235  11.386  10.609  11.843 -0.0228  0.0006  0.0816
 2619W        W18236  18.101   1.310  11.277  0.2983  0.1565  0.1518
 2620W        W18237   1.323   0.592  13.023  0.0299 -0.0195 -0.0102
 2621W        W18238  14.654   3.547  14.239  0.3251 -0.0349  0.2003
 2622W        W18239   3.317   1.173  14.726 -0.0426 -0.3057 -0.0601
 2623W        W18240  12.821  14.237  11.417  0.1029  0.0024 -0.1877
 2624W        W18241  12.386   0.237  12.591 -0.0780 -0.1602  0.0875
 2625W        W18242   3.453   4.396  15.019  0.4510  0.1447 -0.1428
 2626W        W18243  11.307   4.129   0.760  0.0550  0.1301 -0.1176
 2627W        W18244  11.735  15.964   1.900 -0.0412 -0.2111 -0.0603
 2628W        W18245  17.879  10.233   2.560 -0.0597 -0.1951 -0.1384
 2629W        W18246   0.635  16.243   0.016 -0.0184  0.1008 -0.0249
 2630W        W18247   5.762   4.302   1.177 -0.1432  0.0232 -0.2847
 2631W        W18248   0.825  14.878  12.519 -0.0678  0.2360  0.0709
 2632W        W18249  10.401   4.619  13.381  0.1072  0.2145  0.0942
 2633W        W18250   5.399  14.582  14.643  0.2421 -0.1265 -0.1272
 2634W        W18251  14.276  15.480   0.481  0.0043  0.1239 -0.0814
 2635W        W18252  12.205   7.447  12.418  0.0363 -0.0873  0.2259
 2636W        W18253  10.194   9.272  13.359  0.0817  0.4309 -0.2227
 2637W        W18254   3.995   4.614  13.050  0.1027 -0.0891  0.2128
 2638W        W18255  15.477  11.538   2.955 -0.2278 -0.1269  0.0549
 2639W        W18256   7.052  18.275  12.833  0.0956 -0.3374  0.1289
 2640W        W18257  10.058  11.804   3.746 -0.2517 -0.0675  0.0111
 2641W        W18258   3.512  17.028   4.764 -0.2781  0.1779  0.3009
 2642W        W18259  17.851  14.749  14.785  0.0467  0.1060  0.0712
 2643W        W18260  17.732  18.084  12.693  0.4300 -0.1200  0.0662
 2644W        W18261  10.670   0.809   1.620  0.2543  0.0037 -0.3752
 2645W        W18262  14.557   3.431   3.003  0.2355 -0.2785  0.3471
 2646W        W18263   6.635   9.614  13.695 -0.0519 -0.0258  0.1115
 2647W        W18264  15.927  14.934   2.749  0.0712 -0.1852 -0.0897
 2648W        W18265  14.446   0.622  12.033  0.0033 -0.4113 -0.2494
 2649W        W18266   1.175   4.102   0.652 -0.0625  0.1065 -0.0634
 2650W        W18267   6.477   0.574   4.572 -0.2233  0.1085  0.1682
 2651W        W18268  14.493  16.157  12.204  0.1818 -0.0092  0.0722
 2652W        W18269   4.695  18.197   0.330 -0.2267  0.0317  0.2895
 2653W        W18270  11.098  10.916  14.818 -0.1106 -0.1914  0.0742
 2654W        W18271  17.552  10.496   5.041 -0.0680  0.0680 -0.1885
 2655W        W18272   9.665   3.650   2.850 -0.3952  0.0527  0.1059
 2656W        W18273   8.250   3.912  15.095  0.0165  0.0987 -0.1334
 2657W        W18274  14.007  11.186   2.307 -0.3209  0.1099 -0.1626
 2658W        W18275  15.912  15.781   2.831  0.0864  0.0916  0.0003
 2659W        W18276   1.792   0.590   5.851 -0.4180 -0.1274  0.1517
 2660W        W18277  10.556  16.302  15.891  0.0292  0.0037 -0.2903
 2661W        W18278  14.160   8.699   1.882  0.0662  0.0337  0.2631
 2662W        W18279  10.121   0.851   1.527  0.0520  0.1571 -0.1290
 2663W        W18280   9.678  14.218   3.574 -0.2299  0.0793  0.1685
 2664W        W18281  11.461  11.312  14.361 -0.2277 -0.0002  0.0397
 2665W        W18282  15.920  13.292   1.878 -0.2775 -0.1674 -0.1825
 2666W        W18283  14.770   1.785   4.985  0.1048  0.1493  0.1129
 2667W        W18284   5.355   0.047   2.288  0.1127  0.0122 -0.0696
 2668W        W18285  16.873  12.313   1.998 -0.0809 -0.0882 -0.0414
 2669W        W18286  12.246   8.820   0.439 -0.0088  0.0384  0.1397
 2670W        W18287   7.946   9.546  13.637  0.1335  0.1238 -0.2311
 2671W        W18288  12.953   9.146  14.766 -0.2237 -0.1988  0.3611
 2672W        W18289   3.396   4.881   4.210  0.0557  0.1810  0.1612
 2673W        W18290   3.147  13.863  14.143  0.0633  0.3069 -0.3514
 2674W        W18291  16.460  13.401  14.408 -0.2322  0.2914 -0.0251
 2675W        W18292   6.033  14.091  12.273 -0.1690 -0.4672 -0.0540
 2676W        W18293   9.135   6.647  12.908  0.1126 -0.0345  0.1658
 2677W        W18294  10.485   6.341  14.852 -0.0819 -0.1916 -0.1440
 2678W        W18295  17.328   4.701   3.057 -0.1638 -0.2069 -0.1171
 2679W        W18296  15.793  15.013  12.140 -0.1112  0.2369 -0.1839
 2680W        W18297   8.916  16.487  12.011 -0.1764  0.1934  0.1428
 2681W        W18298  14.832  14.917  15.829 -0.2251  0.1903 -0.2032
 2682W        W18299  16.778  15.246  11.422  0.0423  0.5091  0.2335
 2683W        W18300   1.351   6.402   1.714 -0.0120  0.0313 -0.2577
 2684W        W18301   7.603  13.801  11.921  0.2290  0.0663  0.1899
 2685W        W18302  16.587   2.636  14.668 -0.1063  0.0619 -0.0800
 2686W        W18303  13.343  13.840   4.778 -0.1097 -0.0124 -0.1617
 2687W        W18304  10.950  10.937   1.657  0.2937  0.0452  0.1474
 2688W        W18305   5.625   1.992  14.082  0.1775  0.1966  0.0889
 2689W        W18306   4.793  10.164  13.516  0.0280 -0.0909  0.3678
 2690W        W18307   1.779  11.869  12.042 -0.2070  0.2187  0.1105
 2691W        W18308   6.325  16.530   2.205 -0.1119 -0.3744 -0.2287
 2692W        W18309   4.216  13.333   0.336  0.0969  0.0583 -0.0394
 2693W        W18310   2.338   4.914  15.953 -0.0597 -0.0442 -0.2160
 2694W        W18311  10.991  12.798   0.673  0.0693 -0.1073 -0.2433
 2695W        W18312   0.145   4.832  15.798  0.2160  0.0119 -0.1119
 2696W        W18313   6.188   6.111  14.169  0.1622 -0.1470 -0.1060
 2697W        W18314   0.860   7.361   4.984  0.1996  0.0162  0.1118
 2698W        W18315   5.943  15.900   1.226  0.1438  0.2534  0.1443
 2699W        W18316  15.621  17.524   4.411  0.0367  0.3314 -0.2981
 2700W        W18317  12.004  17.674  13.126 -0.1611 -0.2222  0.0482
 2701W        W18318   8.806   0.127   3.361  0.0803  0.1759 -0.0556
 2702W        W18319  10.516  10.160   3.336  0.0852 -0.1137  0.1190
 2703W        W18320   9.856  11.956   4.183 -0.0241  0.0117 -0.2587
 2704W        W18321  18.415  10.903   2.313 -0.1502 -0.1908  0.0832
 2705W        W18322  16.854   0.471   1.757  0.4287  0.0022 -0.1201
 2706W        W18323  17.646   2.077  15.557 -0.0321  0.0248 -0.3233
 2707W        W18324  13.020   2.786   4.721  0.0401 -0.0928 -0.1209
 2708W        W18325   6.009   3.717  10.790  0.3224 -0.0302 -0.0009
 2709W        W18326   9.798  11.955   2.545  0.0698  0.1633  0.0051
 2710W        W18327  12.796  15.143   4.329 -0.2350 -0.0063  0.0585
 2711W        W18328   0.955   3.575   5.217  0.1402 -0.2079  0.2188
 2712W        W18329  10.755  17.420   1.330  0.1666  0.0632 -0.0936
 2713W        W18330   6.728   3.044  11.468 -0.3678  0.1798  0.3740
 2714W        W18331   5.297   4.604  11.919 -0.0628 -0.2504  0.2723
 2715W        W18332  15.002   9.697   0.609 -0.0935  0.0576  0.0174
 2716W        W18333  17.904   5.151   5.055  0.0162  0.0424  0.0692
 2717W        W18334  14.957   0.902   3.930  0.2003 -0.1497 -0.0809
 2718W        W18335  15.908  14.860   0.317  0.2409  0.0101 -0.2584
 2719W        W18336   0.773  12.040   1.248  0.0265  0.1202  0.0064
 2720W        W18337  17.721  10.455  15.322 -0.0178 -0.0030 -0.2743
 2721W        W18338   2.200   6.804   2.389  0.1727  0.1461  0.0870
 2722W        W18339  12.373  14.282   2.593  0.0172  0.1662  0.0196
 2723W        W18340  16.295   5.189   0.666  0.0259 -0.0985  0.1059
 2724W        W18341   3.702   4.390  12.727 -0.4302  0.1736  0.1036
 2725W        W18342  13.082  11.612   5.591 -0.0191  0.0713 -0.2132
 2726W        W18343  10.133   0.897  15.879 -0.5045 -0.2216 -0.2687
 2727W        W18344  10.836   0.407   4.641 -0.0804 -0.0951  0.0417
 2728W        W18345   6.822   8.827   5.011 -0.2648 -0.2487  0.1792
 2729W        W18346   2.668  15.762  14.206  0.1199 -0.2284  0.0492
 2730W        W18347  14.809  17.566   3.934  0.0472  0.0242  0.0594
 2731W        W18348  17.584   6.339   1.560  0.0177 -0.1570  0.0985
 2732W        W18349  17.527   4.398  15.326  0.0236 -0.1303  0.3815
 2733W        W18350  18.141   4.801   1.880 -0.0832 -0.2629 -0.1449
 2734W        W18351   7.690  13.912  15.332 -0.1620  0.0764 -0.2868
 2735W        W18352   1.585  16.493   5.348 -0.2365 -0.0691 -0.0195
 2736W        W18353   6.392   0.614  11.454 -0.1115  0.1809 -0.1258
 2737W        W18354   7.701   6.100  15.819 -0.2368  0.2174 -0.1800
 2738W        W18355   2.044  17.539   1.291  0.0072 -0.1332 -0.2075
 2739W        W18356  11.159   9.615  11.034  0.0265 -0.2502 -0.2013
 2740W        W18357   3.976  10.471   2.086  0.0709  0.3825  0.3036
 2741W        W18358   7.746  10.812   1.253  0.0552  0.0078 -0.3177
 2742W        W18359   5.722  17.348   0.187 -0.2086  0.0907 -0.1295
 2743W        W18360   8.444  13.681   3.445 -0.0652  0.1053  0.1687
 2744W        W18361  10.776   2.937   2.377 -0.0388 -0.1662  0.0488
 2745W        W18362  11.857   3.161  14.921 -0.0006 -0.2906  0.1049
 2746W        W18363  12.548   3.809   3.868  0.1256 -0.1478  0.1645
 2747W        W18364  16.377   4.662   1.403 -0.0754 -0.5104 -0.2464
 2748W        W18365  11.407  17.138  11.668 -0.2018 -0.0452 -0.2090
 2749W        W18366   3.537   3.904  12.626  0.0019 -0.1274  0.2173
 2750W        W18367  13.637  17.571   1.075 -0.1512 -0.1506 -0.1115
 2751W        W18368   6.007  11.310  13.961  0.0074 -0.0099 -0.1282
 2752W        W18369  14.603   4.380   0.432 -0.2138 -0.1557  0.3020
 2753W        W18370  14.334  14.832   3.300 -0.2017  0.0323 -0.0012
 2754W        W18371  16.078  16.535   2.630  0.4922 -0.1098  0.0067
 2755W        W18372   7.411   8.721  15.092  0.1576  0.1369  0.3139
 2756W        W18373  18.350   8.276  12.389 -0.0088  0.2302 -0.1568
 2757W        W18374   0.447   5.501  11.583 -0.1429 -0.1631 -0.0114
 2758W        W18375   2.892  17.094   3.337  0.0905  0.1020 -0.0982
 2759W        W18376  16.517  10.610   4.739 -0.0363 -0.3665  0.1749
 2760W        W18377  14.466   1.529   4.716  0.0957 -0.0071 -0.2090
 2761W        W18378  13.579   0.867   6.318  0.0009  0.1048  0.1136
 2762W        W18379   2.693  11.342   5.702 -0.0018 -0.3893  0.0640
 2763W        W18380  14.099   2.347   3.868 -0.0729 -0.1124  0.0533
 2764W        W18381   5.590  13.185   5.196 -0.0879  0.2176 -0.3089
 2765W        W18382   9.311  10.386  14.884 -0.0992  0.1188  0.2807
 2766W        W18383   0.928  14.324  16.135  0.1089  0.0073  0.1463
 2767W        W18384  10.291   4.057  11.364  0.0399 -0.0468 -0.2191
 2768W        W18385   8.829   7.574  16.014  0.2705 -0.1251  0.0420
 2769W        W18386   7.638   0.135  13.346  0.0268  0.0085 -0.1629
 2770W        W18387   9.380  16.552  14.016 -0.0480  0.2030  0.0838
 2771W        W18388   9.207   5.623  12.344  0.1149  0.2154  0.0889
 2772W        W18389  13.950   5.008   4.686  0.0467 -0.1317 -0.1109
 2773W        W18390  17.692  11.390   4.720  0.1643  0.3985 -0.0650
 2774W        W18391  17.524   8.529   3.217 -0.2441 -0.0406  0.1119
 2775W        W18392   3.238  12.898  11.792 -0.1014  0.0798  0.1523
 2776W        W18393   3.416   0.465   5.021  0.2940  0.2568 -0.3885
 2777W        W18394   3.835  14.189   4.875 -0.0338 -0.3233  0.2858
 2778W        W18395  17.072   8.115   1.842  0.0526  0.0860  0.1279
 2779W        W18396   1.035  10.002  10.739 -0.3945  0.1174  0.2010
 2780W        W18397   4.840  13.033   1.821 -0.1191 -0.5462  0.1032
 2781W        W18398   3.553  10.184   2.388  0.0875 -0.1958 -0.0538
 2782W        W18399   3.154   5.671   2.701  0.0437  0.2139 -0.3588
 2783W        W18400   5.744  18.292  13.053  0.0447 -0.3427 -0.2400
 2784W        W18401   4.342   5.939  13.372 -0.2723  0.1957 -0.2630
 2785W        W18402   8.979   4.423   2.923  0.1135 -0.0252  0.1131
 2786W        W18403   9.334  17.366  11.005 -0.1695 -0.1318 -0.0251
 2787W        W18404  11.402  12.755   0.365 -0.2891 -0.0071  0.0434
 2788W        W18405   6.118   4.615   2.582 -0.3135 -0.0649  0.0771
 2789W        W18406  18.147  15.142   5.889 -0.1426 -0.0386 -0.0865
 2790W        W18407  10.100   8.255   1.315  0.1596 -0.0470 -0.0892
 2791W        W18408   0.103  10.402   1.010  0.0421  0.3003 -0.3417
 2792W        W18409   8.054   6.408   1.975  0.1170 -0.1535 -0.1304
 2793W        W18410   9.528   6.289  13.814  0.0056  0.2337  0.0762
 2794W        W18411  12.008   9.435   5.948 -0.0360 -0.0689  0.2306
 2795W        W18412   4.025  15.539   3.321  0.1848  0.0198 -0.0835
 2796W        W18413  13.585   9.763  14.745 -0.1109 -0.0866 -0.3569
 2797W        W18414  17.071  10.097   4.924 -0.2672  0.1599 -0.0809
 2798W        W18415  12.323   6.282  14.408  0.1538  0.1260 -0.1668
 2799W        W18416  17.644   5.517   0.458 -0.1127 -0.0789  0.1408
 2800W        W18417   8.088   4.087   3.954  0.0279 -0.2492 -0.2043
 2801W        W18418   5.200  16.716  12.941  0.1219  0.0124 -0.1765
 2802W        W18419  11.792  15.393   3.680  0.1763 -0.0131  0.1949
 2803W        W18420  11.652   4.973  14.381  0.1542 -0.2793  0.0463
 2804W        W18421  17.251  11.927   0.317  0.1564 -0.3482  0.1765
 2805W        W18422   5.932  18.237  12.113 -0.3486 -0.1267 -0.1007
 2806W        W18423  15.823  15.385  12.903 -0.0375 -0.0946  0.0846
 2807W        W18424   5.622   3.863   4.449 -0.0201  0.1511 -0.2192
 2808W        W18425   6.094  13.809   0.980 -0.1508 -0.2817 -0.2325
 2809W        W18426   0.615  10.778  15.311 -0.0609 -0.5507  0.0141
 2810W        W18427  13.902  13.522  15.933  0.1041 -0.2820  0.0424
 2811W        W18428  13.515   9.543   3.275  0.7725 -0.0017 -0.4070
 2812W        W18429   8.016  18.072   4.503 -0.1219 -0.0245 -0.0240
 2813W        W18430   7.985   6.640  12.544  0.0101 -0.1035  0.0799
 2814W        W18431  11.629  14.388  14.470  0.0083  0.0328 -0.1958
 2815W        W18432  14.325   8.345   4.731  0.1441  0.0688 -0.0806
 2816W        W18433  15.777  16.147   2.392 -0.1622 -0.0446  0.0220
 2817W        W18434   9.060   6.855   2.888 -0.2202 -0.0813  0.0178
 2818W        W18435  15.420  15.471  13.220 -0.1098  0.0363 -0.0460
 2819W        W18436   9.223   9.515  12.824 -0.0246  0.0808  0.1477
 2820W        W18437  12.643  17.641  14.336  0.1271 -0.2499 -0.3867
 2821W        W18438  17.362  14.628  12.020  0.2629  0.0159  0.2306
 2822W        W18439  10.616  10.795  15.018 -0.2342 -0.0285 -0.2718
 2823W        W18440   8.995   3.668  14.240 -0.0937  0.0333 -0.1765
 2824W        W18441   5.120   1.529   2.179 -0.2494  0.1732  0.0771
 2825W        W18442   3.292  13.669   3.358 -0.5999 -0.0731 -0.1976
 2826W        W18443   0.393   9.858   2.909  0.3637 -0.1712  0.0681
 2827W        W18444   9.418  11.132  15.757  0.0733  0.1300  0.3664
 2828W        W18445   5.287   1.714  15.205 -0.0699  0.0688  0.3815
 2829W        W18446   0.529   0.451   1.463  0.0396 -0.1611 -0.0740
 2830W        W18447   5.374  16.567   3.898 -0.1205 -0.2589 -0.2324
 2831W        W18448  14.331  17.362  14.008 -0.3367  0.2655  0.0877
 2832W        W18449  13.922  13.491  12.015  0.2756 -0.0155 -0.3589
 2833W        W18450   3.283   3.300   3.563  0.1177 -0.1076  0.1683
 2834W        W18451   9.016   6.349  11.145 -0.1542  0.3014 -0.0889
 2835W        W18452   9.546   1.023  14.253 -0.0337  0.0230 -0.4481
 2836W        W18453  12.842   8.246   1.511  0.0424 -0.5154 -0.2118
 2837W        W18454  11.581  17.609  12.844 -0.2224  0.0115  0.2624
 2838W        W18455  15.016  15.669   0.401  0.2404 -0.0971  0.0171
 2839W        W18456  14.171  11.102   0.558  0.2074  0.1949  0.1700
 2840W        W18457   3.614   8.097   3.816 -0.2492 -0.1069 -0.0931
 2841W        W18458   7.543   2.475  15.218  0.0886  0.2415 -0.1051
 2842W        W18459   1.797  15.090   2.472  0.0885 -0.0970 -0.0437
 2843W        W18460   7.076   5.662  11.151 -0.2022 -0.1061  0.1498
 2844W        W18461   1.402   1.437   3.174  0.2839 -0.1156  0.2397
 2845W        W18462  12.126   3.897   3.473  0.1201  0.1222  0.0929
 2846W        W18463  17.747  15.949   4.601  0.0772  0.2064 -0.3163
 2847W        W18464  11.555   7.403  11.600  0.3934  0.1041  0.1086
 2848W        W18465   6.406   2.142   0.198 -0.2393  0.0316  0.1474
 2849W        W18466  13.661   7.859   2.898  0.1582  0.0033 -0.1978
 2850W        W18467   1.824   0.620  13.209 -0.1657  0.1754 -0.1102
 2851W        W18468   4.753   7.235  14.574 -0.1685  0.3898  0.1745
 2852W        W18469   8.947   0.683  15.029 -0.5818  0.3693  0.0813
 2853W        W18470   7.649  16.341   3.774  0.0265 -0.1532  0.0645
 2854W        W18471  12.108  17.878   2.475  0.0126 -0.0352  0.0860
 2855W        W18472  15.676   4.925   2.656 -0.0229  0.0752 -0.2071
 2856W        W18473   7.588   7.808   2.630 -0.3287 -0.2339 -0.0635
 2857W        W18474   9.149  10.996  11.517  0.1026 -0.1655 -0.3391
 2858W        W18475  14.880  14.257   1.269 -0.0502 -0.3248 -0.1451
 2859W        W18476   8.909  16.093   4.776 -0.1484  0.0684  0.2040
 2860W        W18477  17.210   3.726  11.954 -0.0628  0.2134  0.1919
 2861W        W18478  13.985   7.278   2.124  0.0572 -0.2053 -0.0468
 2862W        W18479   7.830   5.430   0.425 -0.0325 -0.2668 -0.2255
 2863W        W18480  12.857   5.514  15.884  0.1853  0.3185  0.0980
 2864W        W18481  13.888  12.506   0.030  0.3154  0.3150  0.1113
 2865W        W18482  16.742  17.490  11.755  0.1810 -0.2461 -0.2102
 2866W        W18483  11.755  10.328   0.822  0.0419  0.1013  0.0208
 2867W        W18484   5.991   2.828   1.216  0.0688 -0.2528  0.1587
 2868W        W18485   8.334   7.195   1.491 -0.1712  0.0927  0.0316
 2869W        W18486  17.004  16.184  11.895  0.1514 -0.0905  0.3973
 2870W        W18487   6.771  18.175  11.483  0.2939  0.0547  0.0415
 2871W        W18488  10.039   0.190   5.070  0.1598 -0.0822  0.2549
 2872W        W18489   9.332   1.131   4.359  0.2037  0.1435  0.2482
 2873W        W18490  14.210   0.975   1.880 -0.1285  0.0630 -0.3193
 2874W        W18491   6.663  11.202   1.947  0.1986  0.1480 -0.0188
 2875W        W18492   6.451  15.300   2.910 -0.0281 -0.0500 -0.2282
 2876W        W18493   6.243   5.748   1.872  0.1671  0.1130  0.2741
 2877W        W18494   6.456  12.254   3.946 -0.1069 -0.4007 -0.0271
 2878W        W18495  10.214  15.787   5.769  0.0612  0.0048  0.0111
 2879W        W18496   8.842   7.026   4.871 -0.1321 -0.1432  0.1601
 2880W        W18497   9.086   3.466   3.596 -0.0070 -0.1533 -0.0905
 2881W        W18498  18.416   8.592   4.157 -0.0740  0.1203  0.1505
 2882W        W18499  13.644  15.380   5.534  0.2066 -0.1673 -0.1935
 2883W        W18500   4.867   0.417   4.767  0.2118 -0.1058 -0.0531
 2884W        W18501  14.166  12.158  15.230  0.0827 -0.2607 -0.1716
 2885W        W18502   9.462  14.242   2.826  0.1935  0.0765  0.1002
 2886W        W18503   3.412   6.084  10.992 -0.2298 -0.1999  0.0053
 2887W        W18504  18.072   4.443   3.236  0.2271  0.0863  0.1097
 2888W        W18505   8.929  12.339  11.154 -0.2092  0.0377 -0.1155
 2889W        W18506  10.059  14.848  13.472  0.5690 -0.1707  0.2246
 2890W        W18507   6.557  11.391   3.779 -0.0569  0.1098  0.0381
 2891W        W18508   7.472   0.483  14.955  0.2324  0.0194 -0.1271
 2892W        W18509   0.507   9.250  12.146 -0.2753  0.2826 -0.2424
 2893W        W18510  15.918  11.202  11.229  0.3942  0.2962  0.1201
 2894W        W18511  12.202   2.458  14.742 -0.1080  0.1961  0.0088
 2895W        W18512   8.007  14.182  13.934  0.0291 -0.0714  0.0258
 2896W        W18513   9.406   4.314   1.652  0.1837  0.2105 -0.0299
 2897W        W18514  12.044   1.539  12.702  0.1686  0.1866  0.1430
 2898W        W18515   0.376  17.834  15.699  0.2949  0.0640 -0.1730
 2899W        W18516   8.317  18.122   0.142 -0.1736  0.3018  0.0832
 2900W        W18517   4.728   9.364  12.424 -0.1559 -0.1139  0.1955
 2901W        W18518  14.539  11.521   0.567  0.0507  0.1005 -0.1996
 2902W        W18519  14.611   7.226  14.391 -0.1112 -0.0563  0.0816
 2903W        W18520  15.075   1.431  12.480  0.0662 -0.2260  0.0751
 2904W        W18521  16.930  16.706  12.600  0.2540  0.2289 -0.2104
 2905W        W18522  12.927   0.176   0.345  0.1554 -0.1232  0.1105
 2906W        W18523   3.879   4.452   2.654  0.0238  0.1071 -0.3758
 2907W        W18524   5.877   5.208   1.216  0.1375  0.0647 -0.0314
 2908W        W18525  11.804  16.338  15.350 -0.1984 -0.2128 -0.1101
 2909W        W18526  12.343   5.076  11.789  0.1080  0.1698 -0.3542
 2910W        W18527   9.151  14.687   4.409 -0.5263 -0.0642  0.0160
 2911W        W18528   0.194   9.703   3.327  0.3878 -0.0317 -0.1832
 2912W        W18529  10.373  15.525  12.164 -0.1996 -0.2574 -0.1950
 2913W        W18530  16.950   2.560  11.374  0.0917 -0.0211  0.0323
 2914W        W18531   2.755  15.873   5.982 -0.0716 -0.4103  0.1037
 2915W        W18532  16.843  14.038  10.181 -0.1282  0.1737 -0.0520
 2916W        W18533  17.100   0.962   5.389  0.1044 -0.1598 -0.2760
 2917W        W18534   8.550   5.268   3.634  0.3848  0.0444 -0.0327
 2918W        W18535  13.527  15.923   2.873  0.0580  0.1020  0.0899
 2919W        W18536   5.079   5.198   0.625 -0.2754  0.0463 -0.2812
 2920W        W18537   1.987   5.747  14.263 -0.0135  0.1600  0.3868
 2921W        W18538   2.248   3.326   3.521  0.1626 -0.2483  0.0789
 2922W        W18539  14.209   8.535  14.030 -0.3979  0.1872  0.1171
 2923W        W18540   4.213  16.963   0.353 -0.0224 -0.0749  0.0330
 2924W        W18541   6.588   7.610   5.106  0.0327 -0.0562 -0.0594
 2925W        W18542   1.195   0.144   0.831  0.3520  0.4072  0.0375
 2926W        W18543   6.503  13.397   1.865 -0.4588 -0.2179  0.0858
 2927W        W18544  15.435  18.327   2.111  0.2033  0.1823 -0.1873
 2928W        W18545  16.360   8.228  15.869  0.2612 -0.0764  0.1472
 2929W        W18546   8.411   2.245  15.359  0.0460 -0.1266  0.0151
 2930W        W18547   9.476   4.885  13.989 -0.3199 -0.1299 -0.1163
 2931W        W18548   3.228   9.950   2.729 -0.1433  0.0106 -0.0842
 2932W        W18549   6.952   0.563  11.024 -0.0046 -0.1130 -0.1413
 2933W        W18550  11.493   6.038  14.628  0.1230  0.0671 -0.0230
 2934W        W18551  12.768  14.929  12.476  0.1697 -0.3781 -0.0265
 2935W        W18552   2.751  14.516   1.090  0.1384 -0.4225  0.0677
 2936W        W18553  10.956  18.206  14.220  0.0170  0.0865 -0.1524
 2937W        W18554  10.781  12.232  13.593 -0.3617  0.0011  0.2956
 2938W        W18555   2.237   0.072   2.314  0.1216 -0.0981  0.1278
 2939W        W18556  12.268  10.402  13.360 -0.1042 -0.1471  0.4480
 2940W        W18557  17.267  12.771   1.428  0.1946  0.0055  0.1652
 2941W        W18558   2.900   0.155   5.907  0.0277 -0.1005 -0.1667
 2942W        W18559  15.919   5.029   5.942  0.2569 -0.1347  0.1076
 2943W        W18560   4.079   7.735  13.035 -0.3718 -0.0340  0.2282
 2944W        W18561  11.190   0.392  13.597 -0.1165 -0.4018  0.2696
 2945W        W18562   7.193   2.257  11.192  0.2151 -0.3438  0.1752
 2946W        W18563   3.647   9.758  15.207  0.1232 -0.2054  0.0899
 2947W        W18564  12.557  10.963  12.470 -0.1127 -0.0638 -0.0141
 2948W        W18565  18.257  16.041   1.893 -0.0809 -0.0141 -0.2044
 2949W        W18566   1.239   0.943   0.441 -0.0746  0.1536  0.3464
 2950W        W18567   9.403  10.773   5.570 -0.1697 -0.1149 -0.1616
 2951W        W18568   2.336   2.289   2.331  0.0959  0.0713 -0.2326
 2952W        W18569  18.429   8.455   0.857  0.5564  0.1941 -0.0084
 2953W        W18570  16.276  12.368  12.461  0.3490  0.1049  0.0537
 2954W        W18571  12.123  11.820   2.955 -0.0356 -0.2801 -0.0071
 2955W        W18572  16.663  17.959   3.173 -0.2592  0.4588 -0.2139
 2956W        W18573  13.167  15.405   3.422 -0.1184 -0.2779 -0.1392
 2957W        W18574  13.196   8.612   1.612  0.1903 -0.1302  0.0028
 2958W        W18575  14.204  16.430  13.472 -0.1577  0.0650 -0.3676
 2959W        W18576  13.450   2.077   1.700 -0.0989 -0.2180 -0.0404
 2960W        W18577  17.929  15.454  12.926  0.4845 -0.0880 -0.1077
 2961W        W18578   7.601  17.007   0.534  0.0287 -0.1753 -0.1371
 2962W        W18579   7.313   5.783   3.635  0.1471  0.1405 -0.0540
 2963W        W18580   5.253   5.762   2.892  0.1403 -0.0910 -0.2599
 2964W        W18581  10.821  17.864   3.508  0.2600  0.0138 -0.0785
 2965W        W18582  15.557   4.304   3.786 -0.0132 -0.0658 -0.3092
 2966W        W18583   7.448   1.991   5.546 -0.3093 -0.2803  0.0517
 2967W        W18584   5.295  16.289   5.215 -0.0615 -0.1289 -0.1548
 2968W        W18585   3.979  10.434   3.167 -0.1960 -0.0083  0.4163
 2969W        W18586   9.847   8.417   4.767 -0.0391 -0.2242 -0.0411
 2970W        W18587   8.788  17.884  13.434 -0.1306 -0.2340  0.5442
 2971W        W18588   6.938   3.225   4.296  0.5109 -0.2877 -0.0482
 2972W        W18589   2.347   2.682  15.508  0.0929  0.0430 -0.0428
 2973W        W18590   6.653  13.395  12.088  0.0108  0.3793 -0.0891
 2974W        W18591   3.272   0.407  14.055 -0.1773 -0.0148  0.0439
 2975W        W18592  11.059  16.409   3.208 -0.2793 -0.2070  0.0769
 2976W        W18593   0.410   4.870  14.610 -0.1697  0.2498 -0.2333
 2977W        W18594   8.844  11.966  11.472  0.0746  0.1846  0.3046
 2978W        W18595   7.903  13.686  13.035  0.0475 -0.2949  0.0069
 2979W        W18596  14.746   6.170  15.918  0.3820  0.2131 -0.6478
 2980W        W18597  18.375   5.124   5.159  0.2525 -0.0987 -0.2326
 2981W        W18598   2.100   8.974  13.776  0.1286 -0.0435 -0.0178
 2982W        W18599  18.143  17.710   0.442 -0.0968 -0.2578 -0.0908
 2983W        W18600   2.377  13.287  13.407  0.0651  0.1488  0.1682
 2984W        W18601   0.926  17.724  13.691  0.1521 -0.1898  0.3575
 2985W        W18602   4.769   6.574   3.326  0.4400 -0.1565  0.0179
 2986W        W18603   3.960  14.323   0.127 -0.0276 -0.1660 -0.0728
 2987W        W18604   1.968   1.256   5.158 -0.3238 -0.0254 -0.0463
 2988W        W18605  15.975   2.614   0.186 -0.1641 -0.0464  0.1631
 2989W        W18606   4.292  12.329   4.600  0.0887 -0.0486 -0.2487
 2990W        W18607   3.963   8.052   2.655 -0.4250  0.0251 -0.0378
 2991W        W18608   0.505   0.110  13.499  0.0338 -0.2672  0.0429
 2992W        W18609   7.612   3.247  15.608 -0.0740 -0.3030 -0.1723
 2993W        W18610   4.513  13.724   0.195  0.0748  0.1737 -0.0970
 2994W        W18611   3.852  12.093   0.509 -0.2636 -0.1241 -0.0008
 2995W        W18612  12.684   1.016  15.919  0.4632  0.1712 -0.1856
 2996W        W18613   0.436   5.095   2.626  0.1562 -0.1911  0.1872
 2997W        W18614   4.637   5.125  12.926 -0.1875  0.1378 -0.4140
 2998W        W18615  12.601  10.593   0.344 -0.0892  0.3328 -0.0462
 2999W        W18616   3.108   7.940  15.053  0.0585  0.2007  0.0788
 3000W        W18617  12.819  14.428  15.600  0.1279  0.2311  0.0820
 3001W        W18618   8.718   0.501   2.996 -0.0535 -0.3682  0.0981
 3002W        W18619   3.115   4.918  15.871  0.0032 -0.1273  0.0637
 3003W        W18620  17.749   9.049   4.493  0.0099  0.1084 -0.1103
 3004W        W18621   4.069   6.119  10.130  0.2950 -0.0710 -0.1812
 3005W        W18622   6.708  15.762  11.766 -0.3117  0.1833 -0.2129
 3006W        W18623  12.275  12.335   1.082  0.0718  0.3375  0.0588
 3007W        W18624   9.000   8.878  11.731 -0.0807 -0.4108 -0.0737
 3008W        W18625   4.750  13.048   3.292 -0.1877  0.0803  0.4156
 3009W        W18626   7.279   4.812  15.310  0.3727  0.1608  0.2395
 3010W        W18627   8.313   5.166   2.871 -0.5182 -0.0022 -0.0600
 3011W        W18628   1.811   5.567   3.912  0.0676  0.2297  0.1391
 3012W        W18629   6.231   6.497  11.982 -0.0048  0.0857 -0.0940
 3013W        W18630   0.588   3.451  13.147 -0.2105  0.1563  0.2153
 3014W        W18631  17.020   0.676   1.313  0.0109  0.0301 -0.0001
 3015W        W18632   1.796   7.129  12.422 -0.1824  0.1218  0.0778
 3016W        W18633  12.170  14.143  13.596  0.0002 -0.0012  0.2097
 3017W        W18634   3.806   0.783  13.897  0.3393  0.3241 -0.4246
 3018W        W18635   6.450   0.583   3.691  0.0479  0.1183  0.1187
 3019W        W18636  12.353  16.749   0.117  0.1808  0.1125 -0.0231
 3020W        W18637  11.786  15.189  14.780 -0.2341  0.0701  0.0648
 3021W        W18638  12.844   9.851   3.608 -0.0991 -0.1353  0.5165
 3022W        W18639  12.130   1.945  14.787  0.1368  0.0310  0.0706
 3023W        W18640  10.657  12.047   3.634  0.1469 -0.0466 -0.1638
 3024W        W18641   1.229  10.381  16.021  0.1847  0.1935  0.2276
 3025W        W18642   7.546   7.328   3.374  0.1814  0.0979 -0.0108
 3026W        W18643   5.529  15.016   4.651  0.2260 -0.0430 -0.1484
 3027W        W18644   3.992   3.228   2.928  0.3431 -0.1920  0.2789
 3028W        W18645  10.716   9.840  11.122  0.1472 -0.0730 -0.1356
 3029W        W18646   0.026   8.729  10.160 -0.3354  0.0112  0.2152
 3030W        W18647  13.375   8.438   3.554 -0.0455  0.0048  0.0005
 3031W        W18648   2.284   5.663   4.625 -0.0283 -0.1276 -0.0421
 3032W        W18649   5.007  14.550   5.387  0.1671 -0.1238 -0.0053
 3033W        W18650  15.321  12.124   3.139 -0.2117 -0.1274 -0.0518
 3034W        W18651  14.970  14.322   0.535  0.0895 -0.0686 -0.1310
 3035W        W18652   7.067  13.159  11.872  0.0000  0.2046  0.0120
 3036W        W18653  13.610   4.477  10.943  0.1553  0.1429 -0.1057
 3037W        W18654  16.739  13.474  12.663 -0.2144 -0.3599 -0.1134
 3038W        W18655   4.380  12.825   3.545 -0.2808 -0.4752  0.0800
 3039W        W18656  10.602   3.008  15.047 -0.0025  0.0736  0.0282
 3040W        W18657   4.469  13.311  11.333 -0.3017  0.1741  0.0869
 3041W        W18658   1.993  17.336   0.281  0.0582 -0.4746  0.1109
 3042W        W18659  12.794   5.141   4.165  0.0931 -0.3441  0.3523
 3043W        W18660   9.471  15.670   1.663 -0.2222 -0.1122  0.2239
 3044W        W18661   7.422  18.415  11.980 -0.1858  0.4020 -0.0648
 3045W        W18662   2.931  14.581   3.183 -0.2400  0.0224 -0.0552
 3046W        W18663   9.019  12.839   5.786 -0.1823 -0.0865 -0.1363
 3047W        W18664   4.622   9.119   0.403 -0.2126 -0.0053 -0.0964
 3048W        W18665   3.140   2.892   0.145  0.0489  0.0803  0.1845
 3049W        W18666  17.725   4.866  13.672  0.0569  0.3013 -0.3492
 3050W        W18667   6.414   7.264  15.586 -0.1345  0.0244  0.2858
 3051W        W18668   4.899   4.616   1.374 -0.0649 -0.0966  0.1999
 3052W        W18669   6.027  17.518   5.390  0.0602 -0.1376 -0.1329
 3053W        W18670   0.162   9.033   5.565  0.0240 -0.2444 -0.1424
 3054W        W18671  15.524  10.358   5.280  0.1790  0.0043  0.2812
 3055W        W18672   7.374  14.125   4.539  0.3237  0.1351 -0.2600
 3056W        W18673  10.087   9.750   3.640 -0.1906 -0.0610  0.2762
 3057W        W18674   8.563   7.670  12.725  0.2757 -0.0253 -0.1618
 3058W        W18675  10.378  11.082   3.477  0.2134  0.2199  0.1496
 3059W        W18676   7.259   6.764   0.083 -0.2171 -0.2591 -0.1340
 3060W        W18677   0.032  16.521  14.516 -0.0702 -0.2856 -0.3036
 3061W        W18678  16.402   4.576   0.365 -0.2934  0.1696  0.3716
 3062W        W18679   1.907   9.129   5.197  0.2354  0.1154 -0.0273
 3063W        W18680  17.594  11.288  15.728 -0.0330  0.0114 -0.0044
 3064W        W18681  18.206  13.293   4.015 -0.0805 -0.0325 -0.1160
 3065W        W18682  17.845   7.628   5.060  0.0180  0.3742  0.1766
 3066W        W18683   7.815   8.376  15.141 -0.2603  0.0054 -0.0851
 3067W        W18684   3.465  15.326  13.552 -0.0463  0.3027  0.2129
 3068W        W18685  16.283  11.401  15.150 -0.2919  0.2347  0.0807
 3069W        W18686  16.698   7.198  13.267  0.1169 -0.3343 -0.0456
 3070W        W18687   2.598  13.008   4.970 -0.1713 -0.0339 -0.0618
 3071W        W18688  16.827   0.369  14.227 -0.1652  0.1841 -0.0106
 3072W        W18689  14.191  14.586   2.151  0.1589  0.0025  0.0184
 3073W        W18690  10.534  10.311   5.061  0.1743  0.2439  0.0474
 3074W        W18691  14.870   9.945  14.602  0.2153  0.1853 -0.2419
 3075W        W18692   4.030  13.522  16.015 -0.4279 -0.0014  0.2552
 3076W        W18693  14.238   1.019   5.311 -0.0422 -0.5838  0.0803
 3077W        W18694  14.771   5.798  14.039 -0.0057 -0.1772  0.0964
 3078W        W18695  14.265  18.220  12.987  0.0098  0.3058  0.3770
 3079W        W18696   2.514   8.579   2.694  0.2053  0.2288 -0.2517
 3080W        W18697  10.515   5.329  14.696  0.0462 -0.1192  0.1603
 3081W        W18698  16.282  11.104   1.687 -0.1113  0.0561 -0.1950
 3082W        W18699   3.871  16.180   5.078  0.2737  0.2085 -0.2576
 3083W        W18700  16.790  10.805  14.120  0.1503  0.1575  0.1454
 3084W        W18701   6.069   4.673  15.678 -0.1722  0.0825  0.0574
 3085W        W18702   3.039   4.735  13.712 -0.2239 -0.1482 -0.1106
 3086W        W18703  13.913   1.032  14.195  0.2722 -0.2621 -0.0224
 3087W        W18704   9.252   3.177  15.285 -0.0893 -0.0903  0.0666
 3088W        W18705  14.836   4.042  11.478 -0.2807  0.0882  0.0753
 3089W        W18706  13.251   7.572   4.204  0.0927  0.1355 -0.0269
 3090W        W18707  10.207  16.196  13.547  0.4418  0.1468  0.1370
 3091W        W18708   1.491   7.464   5.564  0.0794 -0.3287 -0.1012
 3092W        W18709  16.170   7.922  11.697 -0.3976 -0.2017  0.3448
 3093W        W18710   0.810  10.646  11.050  0.0249  0.1744  0.0511
 3094W        W18711   1.569   5.873   0.580  0.0297  0.2085 -0.0552
 3095W        W18712   8.095  17.753   2.389  0.1300  0.1068  0.0171
 3096W        W18713   9.552   5.398  11.108  0.0795  0.0191 -0.2922
 3097W        W18714   0.236  11.779   0.332  0.2612 -0.2737 -0.1686
 3098W        W18715  11.396   4.850  11.213 -0.0150 -0.1734  0.3360
 3099W        W18716  10.118  13.489   2.577  0.1393  0.0883  0.4584
 3100W        W18717  15.297  15.619  14.870  0.3929  0.0690 -0.1067
 3101W        W18718  10.304   0.611   4.835  0.2374  0.3360 -0.0342
 3102W        W18719   5.681   2.983  15.880  0.2601 -0.1504  0.0922
 3103W        W18720  17.467   1.612   2.626 -0.1844  0.1455 -0.1472
 3104W        W18721  16.229   2.735   4.746 -0.4212  0.1268 -0.1966
 3105W        W18722   7.573   4.523  15.743 -0.1036  0.0369  0.2662
 3106W        W18723   5.101  12.345  15.912  0.3966  0.4034 -0.1157
 3107W        W18724   6.465   5.118   3.487  0.0580 -0.2219  0.1266
 3108W        W18725   7.088  13.613  15.912  0.0863 -0.0538  0.3153
 3109W        W18726  13.224  10.572  13.084 -0.0810  0.0060  0.2342
 3110W        W18727   1.138   2.068  15.806 -0.3388 -0.0044 -0.1955
 3111W        W18728   0.218  18.302  14.685  0.0762  0.0409 -0.0428
 3112W        W18729   8.689   8.295  15.840  0.2137  0.2362  0.3350
 3113W        W18730   3.103  16.605  11.981  0.2894  0.0003  0.0014
 3114W        W18731  13.252   4.521   4.804 -0.3102  0.2656  0.4550
 3115W        W18732  15.600  16.932  11.994 -0.1578 -0.2720 -0.2245
 3116W        W18733  14.588   4.532   5.416 -0.1564  0.5556 -0.2301
 3117W        W18734   2.309   5.092   0.281  0.2989  0.0843 -0.3475
 3118W        W18735   9.252   6.407   2.868 -0.0053  0.0826 -0.0169
 3119W        W18736   9.809   5.666  13.474  0.1847 -0.0282 -0.1108
 3120W        W18737   6.675  11.449  13.773 -0.2055  0.0674 -0.0397
 3121W        W18738  18.046  13.130   5.269 -0.1986  0.0842 -0.0101
 3122W        W18739   7.288  16.385  14.614  0.1328 -0.1638  0.0230
 3123W        W18740   0.147   4.485   0.731  0.2778 -0.0184  0.0636
 3124W        W18741  16.762   7.456  10.877  0.3714  0.0516  0.0100
 3125W        W18742   5.403   8.272   2.870  0.1610 -0.1452 -0.1685
 3126W        W18743  17.744  11.079  13.465  0.3036 -0.0261 -0.2146
 3127W        W18744  10.983  16.866   3.340  0.0082 -0.1486 -0.4100
 3128W        W18745   1.643  17.846   0.163 -0.0816 -0.1000  0.1472
 3129W        W18746   3.731   9.110  12.345 -0.0338 -0.0923  0.0420
 3130W        W18747  12.209  15.466  14.200  0.2001 -0.1655  0.0353
 3131W        W18748   0.011  14.834  12.447 -0.0687 -0.0461  0.0176
 3132W        W18749  11.457   6.902  12.388  0.0689  0.0638  0.2033
 3133W        W18750  13.181   5.529  11.739 -0.0180 -0.1267  0.0324
 3134W        W18751   0.950   1.394  11.745 -0.1997 -0.0522 -0.4439
 3135W        W18752   9.639  17.107   5.240  0.2551 -0.0200 -0.2595
 3136W        W18753   6.670   7.186   3.017  0.1538 -0.1791 -0.0622
 3137W        W18754   2.036  17.489   4.721  0.0911 -0.2820  0.1478
 3138W        W18755  15.640  18.146  10.488 -0.0759  0.0740  0.1423
 3139W        W18756  10.594  15.020   4.116 -0.2585 -0.0122  0.1521
 3140W        W18757   3.869   8.662  15.071 -0.0829  0.2071 -0.0272
 3141W        W18758   3.688   3.664  12.086 -0.1310  0.1052  0.3479
 3142W        W18759  12.615   8.994  12.602 -0.2614  0.0181 -0.4056
 3143W        W18760   1.501   2.416  15.097 -0.1596  0.1245 -0.0174
 3144W        W18761  10.370  12.061  11.455  0.0428  0.1675 -0.0620
 3145W        W18762  13.146   5.220   5.243 -0.0437 -0.0779 -0.3605
 3146W        W18763  13.661  14.956  13.467 -0.1025 -0.5106  0.2673
 3147W        W18764  17.794   4.074   0.292  0.0201 -0.3391 -0.0141
 3148W        W18765   9.504  16.942  14.473 -0.1408  0.0210 -0.1078
 3149W        W18766  10.947  13.551  11.085  0.0853 -0.1119 -0.0324
 3150W        W18767  13.633   4.827  13.566 -0.2088 -0.0900 -0.1740
 3151W        W18768   0.075   3.585   1.094  0.0483  0.1953  0.3853
 3152W        W18769   7.051   9.752   3.463 -0.0360 -0.1650  0.0002
 3153W        W18770  12.492   7.285   4.732 -0.1130 -0.2928  0.3009
 3154W        W18771   9.494   8.530   1.416 -0.1291 -0.0727  0.0095
 3155W        W18772  16.119  10.739   5.033  0.0390 -0.0822  0.1852
 3156W        W18773  15.997  13.054   0.642 -0.0031  0.0210  0.1028
 3157W        W18774   6.442  18.429   4.413  0.2698  0.1367 -0.1235
 3158W        W18775  15.513   9.485  11.341 -0.1584 -0.1477 -0.0256
 3159W        W18776   3.019   5.387  14.706  0.0145  0.0396  0.0681
 3160W        W18777   0.562   5.337  14.269 -0.0423  0.0328  0.0660
 3161W        W18778   8.887   1.913   2.651 -0.1687  0.1257  0.0447
 3162W        W18779   9.117   5.515   3.208  0.2322  0.0772  0.4326
 3163W        W18780   1.699  15.252  11.532  0.0110 -0.0695 -0.4731
 3164W        W18781   4.493  12.298  12.864  0.2014  0.1833  0.1971
 3165W        W18782   6.992   8.220  11.244  0.1297  0.0366  0.1479
 3166W        W18783  16.345  15.975   1.364  0.0836  0.0815 -0.0001
 3167W        W18784   1.984  14.199  13.272  0.2341 -0.1094  0.0915
 3168W        W18785  10.292  17.748   1.397 -0.0328 -0.0673  0.1680
 3169W        W18786  17.033  17.851   4.616 -0.3097  0.1693  0.0076
 3170W        W18787   7.913   6.847   2.766  0.0624 -0.2092  0.2063
 3171W        W18788  15.102   4.377  12.401 -0.3188 -0.2282  0.0945
 3172W        W18789  12.822  15.678   5.257  0.1035  0.2125  0.2281
 3173W        W18790   9.807   2.055  11.813 -0.1641 -0.1390  0.3590
 3174W        W18791   2.986  12.615   1.088  0.2057 -0.0566 -0.0949
 3175W        W18792  13.805   9.249   0.602  0.2043 -0.0761  0.1412
 3176W        W18793   6.491   3.509  13.339  0.0181 -0.2773 -0.1032
 3177W        W18794   6.221   1.631   2.592  0.0956  0.1056 -0.0420
 3178W        W18795  12.023   2.437   3.904  0.0799  0.0998  0.2602
 3179W        W18796  11.590  15.807   1.010  0.1534  0.0899 -0.0521
 3180W        W18797  11.392   7.855   0.359  0.1437  0.0665  0.3277
 3181W        W18798  15.761  11.610  15.225  0.0599 -0.1917  0.0504
 3182W        W18799   4.278  10.019   1.934  0.1270  0.0065  0.0407
 3183W        W18800  16.105   1.042   4.746 -0.1266  0.0350 -0.1443
 3184W        W18801   3.704   7.512  11.921  0.4089  0.1834 -0.1493
 3185W        W18802  10.372  14.739  14.567 -0.1101  0.1627  0.0808
 3186W        W18803   4.553   0.836   1.604  0.1133  0.3140  0.2274
 3187W        W18804  15.343  15.315  15.718  0.2456 -0.2396 -0.2957
 3188W        W18805   0.708  11.357   3.209  0.1288  0.0127 -0.1181
 3189W        W18806  11.895  18.002  11.424 -0.2140 -0.3271 -0.1838
 3190W        W18807   2.467   9.897   2.067  0.0598  0.0346 -0.2167
 3191W        W18808  12.310   2.567   1.420 -0.0492 -0.0463 -0.2420
 3192W        W18809  17.241  17.954  14.442  0.1213 -0.0774  0.1648
 3193W        W18810   9.592   3.957  13.067  0.1022 -0.1534 -0.3336
 3194W        W18811   3.109   2.631   3.975  0.0631  0.0032 -0.0789
 3195W        W18812   6.767  10.781   4.571 -0.0203  0.2464 -0.1954
 3196W        W18813   2.748   2.491   5.164 -0.0467  0.3376 -0.2897
 3197W        W18814  16.349   8.462  11.892  0.2008  0.0474 -0.0449
 3198W        W18815   0.787  15.231   2.202  0.0900 -0.0371 -0.1262
 3199W        W18816  11.947   3.889   5.161  0.1839  0.0361  0.2270
 3200W        W18817  13.720   8.402   3.949 -0.2450 -0.3429 -0.1957
 3201W        W18818  16.481  10.091   2.114  0.1508  0.2389 -0.1947
 3202W        W18819  15.036   8.402  15.786  0.0064 -0.0648 -0.2526
 3203W        W18820   3.414  13.275  12.691  0.0411 -0.0206 -0.2055
 3204W        W18821   5.928  10.585  11.562  0.3214 -0.0978  0.0432
 3205W        W18822   5.843   7.329   2.268 -0.1017 -0.0874  0.0053
 3206W        W18823  15.044  15.035   1.688 -0.5890  0.0512 -0.0820
 3207W        W18824   1.051   9.765  12.834 -0.3297 -0.0745  0.2857
 3208W        W18825   5.936  16.222   2.569  0.2326 -0.0434 -0.2568
 3209W        W18826   4.231  16.385  15.752 -0.0761  0.0350 -0.0172
 3210W        W18827   8.786   3.238   0.075 -0.1650 -0.0128 -0.0069
 3211W        W18828   3.334   7.234   1.646 -0.1981  0.1114  0.0795
 3212W        W18829   5.217   0.108  11.695 -0.4048 -0.0833 -0.0731
 3213W        W18830   1.618   1.764  12.264  0.4397 -0.1347 -0.2786
 3214W        W18831   7.317   6.450   2.234  0.1709  0.0553 -0.0544
 3215W        W18832  11.904   4.119  14.943  0.4899 -0.0635 -0.0903
 3216W        W18833  14.475  15.640   3.743  0.1235 -0.0513  0.1812
 3217W        W18834   5.479  15.308  15.862  0.0796 -0.3923 -0.0925
 3218W        W18835  10.022   5.511  11.345 -0.0132  0.0793 -0.1188
 3219W        W18836   0.589  14.827  15.156 -0.1433  0.0835 -0.1235
 3220W        W18837   3.197   4.210   2.829 -0.1147 -0.2598 -0.0843
 3221W        W18838   5.868  13.896  14.070  0.1082 -0.1342  0.0305
 3222W        W18839  17.459  11.576   2.432  0.2696 -0.1577 -0.0119
 3223W        W18840   6.884  15.087  13.515 -0.0897 -0.3672 -0.1438
 3224W        W18841  11.689  10.024  14.994 -0.1281 -0.1424  0.3255
 3225W        W18842   3.550  18.029  14.710  0.1925  0.0424 -0.0579
 3226W        W18843   7.403  10.568   0.413  0.3169  0.2610 -0.1754
 3227W        W18844   3.258  12.534  11.463  0.0233  0.3397 -0.0014
 3228W        W18845  11.529   8.623   0.324 -0.1001 -0.0190  0.2135
 3229W        W18846   3.368  17.446   5.483 -0.2606 -0.0610 -0.0035
 3230W        W18847  13.707   1.271   3.274  0.0106 -0.1687  0.1280
 3231W        W18848  17.751  12.398  12.896 -0.2577  0.2051  0.3592
 3232W        W18849   6.765  12.558   5.264 -0.2405 -0.0153  0.2261
 3233W        W18850   6.242  12.656  11.728  0.2550 -0.1726 -0.2853
 3234W        W18851  10.029  18.324  12.802 -0.1458  0.1189  0.0124
 3235W        W18852   8.661  18.243  13.035  0.0841 -0.2765 -0.3508
 3236W        W18853  14.327   9.833   1.182  0.1904  0.0729  0.1338
 3237W        W18854   0.208  16.065  12.984 -0.0701  0.2539  0.1066
 3238W        W18855   1.985  11.433  10.777  0.1956 -0.2386 -0.3421
 3239W        W18856   4.696   3.948  11.854 -0.3262 -0.2825 -0.0200
 3240W        W18857   5.020   0.042   3.624  0.2119  0.2423  0.1494
 3241W        W18858   7.977  16.357  12.388  0.0815  0.3114  0.3126
 3242W        W18859   8.182   3.269   0.295 -0.1745  0.0092 -0.0489
 3243W        W18860   2.507  18.416  13.590 -0.1053  0.1338  0.0589
 3244W        W18861   1.639  15.662  14.519 -0.0786 -0.3619 -0.2983
 3245W        W18862   5.116  15.882  13.321  0.1365 -0.0945 -0.1447
 3246W        W18863  17.183   9.410  15.041 -0.0801 -0.0772  0.0036
 3247W        W18864   9.440   6.403  12.568 -0.2053  0.1063  0.0414
 3248W        W18865   7.603   2.520   1.832 -0.2302  0.1025 -0.1298
 3249W        W18866   9.367   3.950  11.574  0.0959  0.0577 -0.1829
 3250W        W18867  17.051  11.293   2.299  0.4565  0.2436 -0.0516
 3251W        W18868  14.154  14.409  11.893 -0.0985 -0.1631  0.0606
 3252W        W18869   6.613  13.180   0.388  0.3264  0.0488 -0.0021
 3253W        W18870   3.491  15.147   0.257 -0.1008 -0.0911 -0.0748
 3254W        W18871  18.202   9.434  11.579 -0.1912 -0.3272 -0.1948
 3255W        W18872   2.765   1.571   0.859  0.0592 -0.1105  0.1809
 3256W        W18873  12.831  13.876  13.817 -0.1393 -0.2724  0.1783
 3257W        W18874   0.564  13.477  14.302 -0.0364 -0.2845  0.2657
 3258W        W18875   9.232   3.872   3.961  0.3361  0.2142  0.0493
 3259W        W18876   7.344   2.005  15.224  0.0714  0.2566  0.2173
 3260W        W18877   6.621  14.573  14.606  0.2258 -0.0107 -0.1372
 3261W        W18878   4.294  16.646  12.503 -0.0918 -0.1209 -0.1711
 3262W        W18879  16.997  17.279   4.628  0.0596  0.0087 -0.3364
 3263W        W18880  12.923   6.357  12.844 -0.1368  0.0055  0.2381
 3264W        W18881  18.016   8.537   2.965  0.2611  0.2580  0.2296
 3265W        W18882   7.103  17.801   1.790  0.2573  0.1350  0.0841
 3266W        W18883   3.448  16.582  13.076 -0.0746 -0.0865  0.0323
 3267W        W18884   9.186  13.849  14.521  0.1236 -0.0944 -0.1634
 3268W        W18885  13.541   8.665   2.059 -0.2079 -0.1821 -0.0196
 3269W        W18886   1.979  18.349  10.682 -0.2656 -0.2443 -0.0668
 3270W        W18887  11.590  17.066   1.575  0.0466 -0.5822  0.1046
 3271W        W18888  13.632   1.391   2.392  0.0830  0.0200  0.4227
 3272W        W18889  17.128  15.769   4.627  0.2054  0.1109 -0.0318
 3273W        W18890   7.183  15.584   1.428 -0.2351 -0.2261  0.0835
 3274W        W18891   4.012   5.067  11.187  0.1387  0.4887 -0.1970
 3275W        W18892   8.666   9.789  15.883  0.4829 -0.1394 -0.3204
 3276W        W18893   8.857   5.251   2.671 -0.0051 -0.0656 -0.0493
 3277W        W18894  15.024   4.667  11.871 -0.1957  0.0396  0.3731
 3278W        W18895   8.359   1.333  14.758  0.0319 -0.1159  0.1542
 3279W        W18896   8.446   0.535   0.676 -0.2537 -0.1014  0.3425
 3280W        W18897  15.340  10.685  11.817 -0.1759  0.0734  0.0690
 3281W        W18898  15.090   9.947   4.645  0.0218  0.0427 -0.0046
 3282W        W18899  14.018   0.547  12.526  0.1491 -0.1192  0.3044
 3283W        W18900   8.275  16.280  13.365  0.2222  0.2773  0.2262
 3284W        W18901  11.496  12.033  11.606 -0.3900  0.3584  0.0465
 3285W        W18902   1.875   9.282  15.053  0.4171  0.1749 -0.1125
 3286W        W18903  18.384  12.807   0.562 -0.1713  0.0761  0.0798
 3287W        W18904  17.229   8.618  15.834 -0.2218  0.2557 -0.4255
 3288W        W18905   1.018  16.672   4.412 -0.3306 -0.2691  0.1925
 3289W        W18906   5.819   8.522   0.787 -0.0101  0.1055 -0.0571
 3290W        W18907  14.280  10.317   2.884 -0.1608 -0.4190 -0.1866
 3291W        W18908  17.440  15.261  13.905  0.0919  0.3895  0.0951
 3292W        W18909   5.668   9.038  14.592 -0.1495  0.3221  0.3108
 3293W        W18910   0.252  11.270   1.013  0.1924  0.0451  0.1676
 3294W        W18911   8.172  11.121   0.258  0.2179 -0.0094 -0.2093
 3295W        W18912  12.021  16.215   0.182 -0.2112 -0.0813 -0.0500
 3296W        W18913  17.459  15.656   3.246  0.1154 -0.1230  0.2465
 3297W        W18914  16.343   4.833  15.965 -0.1069 -0.0858  0.0916
 3298W        W18915   8.842  16.493  12.527 -0.1241  0.3445 -0.1368
 3299W        W18916   5.443   3.935  11.232  0.1999  0.1133 -0.0803
 3300W        W18917  11.697  13.931   3.811 -0.1401  0.0116  0.2518
 3301W        W18918  15.163  14.229   3.149 -0.1483 -0.0699 -0.0558
 3302W        W18919   3.613  17.293   3.983 -0.0418  0.1973  0.3448
 3303W        W18920   7.846   6.032  14.086 -0.2585  0.1734  0.2034
 3304W        W18921  18.446  15.283  13.978  0.2569 -0.1681  0.0137
 3305W        W18922   4.043   3.508   9.833 -0.0893 -0.2505  0.0453
 3306W        W18923   8.531  13.052   2.301 -0.0631 -0.0956  0.1274
 3307W        W18924   6.649   5.884   4.221  0.3192  0.2778  0.1332
 3308W        W18925  11.273   5.551  11.964 -0.2842  0.2066 -0.2380
 3309W        W18926   0.734   6.399  12.694  0.2825  0.1559 -0.0280
 3310W        W18927  16.568   1.298  11.977  0.0793 -0.1767  0.2047
 3311W        W18928   7.770   0.104   2.613  0.0200 -0.0565  0.0793
 3312W        W18929   6.742   7.454  11.823 -0.0338 -0.4934 -0.1053
 3313W        W18930   9.293   7.717   0.089  0.0377  0.3221 -0.0184
 3314W        W18931   1.608  16.031   1.754 -0.0758  0.3307 -0.2295
 3315W        W18932  10.072   7.148   0.691  0.1530  0.1432 -0.0965
 3316W        W18933  11.272   3.248   3.337  0.0580  0.3618 -0.1272
 3317W        W18934   6.939  17.352   3.473  0.0401 -0.3166 -0.2165
 3318W        W18935  14.224   1.507   4.260  0.2281 -0.0090  0.2582
 3319W        W18936   5.433   7.800  10.718 -0.0711  0.1925  0.1086
 3320W        W18937   2.554  16.263  14.407  0.1545  0.0891 -0.1873
 3321W        W18938   4.895  13.861   2.497 -0.2599 -0.2280  0.2649
 3322W        W18939   7.936   1.589  14.675 -0.0698  0.1957 -0.3076
 3323W        W18940  10.093   6.366  11.260  0.1328 -0.0979  0.0145
 3324W        W18941  16.048   4.454   5.205 -0.0195 -0.1567  0.1655
 3325W        W18942   7.709   2.649  14.409 -0.1775  0.2012 -0.1468
 3326W        W18943  12.916   0.123  15.982  0.1121 -0.1597  0.0164
 3327W        W18944  11.141   9.145  15.151  0.1983  0.0306 -0.1076
 3328W        W18945  15.879   9.894   2.813 -0.0736  0.1422 -0.0366
 3329W        W18946  13.554   0.361  14.769 -0.1331 -0.1271  0.0809
 3330W        W18947  13.877  11.872  14.373 -0.1894 -0.0460 -0.0339
 3331W        W18948  10.856   9.157  13.758  0.1179 -0.0306  0.1257
 3332W        W18949  14.997   6.174   0.631  0.1913  0.1326  0.2767
 3333W        W18950  15.274   2.744  12.482 -0.0338 -0.3631 -0.0577
 3334W        W18951   1.394  14.218  13.930 -0.2233 -0.2371 -0.0929
 3335W        W18952   0.646  17.586   6.438  0.1577  0.5060  0.1343
 3336W        W18953   9.099  17.333   0.229 -0.2130  0.0560  0.1044
 3337W        W18954  18.333  15.364   1.894 -0.3838 -0.3359 -0.1738
 3338W        W18955   8.887   2.389  14.933 -0.3306  0.1833 -0.0660
 3339W        W18956  13.176  13.005   5.438 -0.0260  0.0080 -0.1951
 3340W        W18957  11.263  12.006   0.664  0.0815 -0.1974  0.4188
 3341W        W18958   4.403   1.567  12.527  0.0045  0.0751 -0.1505
 3342W        W18959  16.496  16.707   5.113 -0.0128 -0.2667  0.1961
 3343W        W18960   7.160  18.049   3.387  0.0753 -0.0722 -0.2879
 3344W        W18961   6.365   2.895   2.841 -0.1000  0.1846  0.0355
 3345W        W18962   9.114  17.609  13.744 -0.1705 -0.1154 -0.2207
 3346W        W18963   4.659   4.002  13.015  0.0133  0.5522  0.0872
 3347W        W18964  17.294   7.034   2.722  0.0076  0.0887  0.1768
 3348W        W18965  10.126  17.469   0.215 -0.0105  0.1694  0.1054
 3349W        W18966   7.315  15.667  12.541 -0.0083  0.3792 -0.0080
 3350W        W18967  14.549   8.074  15.745 -0.2560  0.0114 -0.1205
 3351W        W18968   9.743   4.092  13.537 -0.0619  0.0740 -0.0303
 3352W        W18969  10.727   8.020  12.863 -0.0157  0.1879  0.0442
 3353W        W18970  13.654   0.158  12.235 -0.4853 -0.2127  0.0663
 3354W        W18971   1.741   4.432  14.852 -0.1706 -0.2895 -0.0676
 3355W        W18972  14.483  15.338  13.009 -0.0630 -0.1803 -0.3523
 3356W        W18973   9.165   2.066   9.878 -0.2965 -0.1016  0.0645
 3357W        W18974   1.631   8.970   1.540  0.0152  0.0394  0.1376
 3358W        W18975   8.323   9.299   0.477  0.1665 -0.0424 -0.2390
 3359W        W18976  18.148  10.800  13.841 -0.1133 -0.0025 -0.3062
 3360W        W18977   3.003   0.390   1.669  0.2753  0.0191 -0.1290
 3361W        W18978  10.833   0.821  11.270 -0.2642  0.0433  0.0713
 3362W        W18979   4.462   5.777  14.815 -0.2360 -0.2502  0.5752
 3363W        W18980   3.209  10.708   5.213  0.0930 -0.4454 -0.0813
 3364W        W18981  14.894   5.124   4.647  0.2191 -0.0022  0.2001
 3365W        W18982   0.509   1.574   2.794  0.0110 -0.1206  0.3292
 3366W        W18983   1.170   7.453  12.681  0.2086  0.3409 -0.0291
 3367W        W18984   8.953  10.793   0.570 -0.1447  0.1463 -0.3414
 3368W        W18985   0.713  10.173   4.032 -0.0073  0.0444 -0.2140
 3369W        W18986   6.558  17.493  12.260 -0.0616 -0.0159  0.2833
 3370W        W18987   9.545  13.857  15.843 -0.0630 -0.2042  0.4058
 3371W        W18988  15.726  12.447   0.393  0.0706  0.2327 -0.0378
 3372W        W18989  11.397  15.838  13.993 -0.0997  0.0643  0.1603
 3373W        W18990  11.233   9.634   2.755  0.1005 -0.0760 -0.0687
 3374W        W18991   7.831   0.254   3.292 -0.1203  0.3052  0.1706
 3375W        W18992  11.933   9.654  13.684  0.3475  0.0582  0.1728
 3376W        W18993  13.580  16.404  13.403 -0.0137  0.0160  0.0134
 3377W        W18994   5.216   4.919   2.299  0.2089  0.0783  0.0132
 3378W        W18995  18.009   0.770  11.116 -0.0163  0.2869  0.1781
 3379W        W18996   5.978  16.994  12.415 -0.1665 -0.0870  0.3762
 3380W        W18997   1.387   4.639   4.697  0.2273 -0.3088  0.1919
 3381W        W18998   0.775   3.477   2.820  0.0867 -0.3257 -0.3393
 3382W        W18999  13.168   3.514  12.717 -0.1930 -0.1098  0.3035
 3383W        W19000  17.511  14.164  15.977 -0.2915 -0.2012  0.2590
 3384W        W19001   1.162  16.907   1.245 -0.1261 -0.0834 -0.1367
 3385W        W19002   8.931   9.581   0.536 -0.0895  0.0955  0.1652
 3386W        W19003   1.334   5.721  13.649  0.0296  0.1048 -0.1562
 3387W        W19004  12.884  12.944   0.368  0.1271 -0.0538  0.1990
 3388W        W19005  16.116  12.349  11.222 -0.1065  0.0328 -0.0873
 3389W        W19006   6.643  14.119   3.193  0.0220 -0.0656  0.1406
 3390W        W19007  15.861   0.980  10.890  0.0936  0.1440 -0.2188
 3391W        W19008  12.932   4.429  14.152 -0.0543  0.3927 -0.0354
 3392W        W19009   2.503   4.024  11.074 -0.0357 -0.2728  0.1106
 3393W        W19010   8.519   0.283   1.977  0.1755 -0.2751  0.1897
 3394W        W19011  14.659  15.846   2.228  0.1181  0.0269 -0.0942
 3395W        W19012  12.151   1.179   0.682 -0.0570 -0.2025 -0.3450
 3396W        W19013  13.523   3.069   3.484  0.0289 -0.0233  0.2068
 3397W        W19014   5.048   4.221  14.217  0.2765  0.1279  0.2451
 3398W        W19015  16.945  13.572   2.120  0.1484 -0.0702 -0.0650
 3399W        W19016   3.430   4.695   5.492 -0.2759  0.0215  0.3017
 3400W        W19017  14.044   1.098   2.449  0.0976 -0.0715 -0.2054
 3401W        W19018  10.146  14.733   5.520  0.3196 -0.1562  0.2198
 3402W        W19019   3.565  16.371  15.181 -0.0099 -0.3556 -0.0683
 3403W        W19020  12.986  14.260  12.497  0.0817 -0.0040 -0.1949
 3404W        W19021   0.943   8.910  12.206 -0.0118 -0.1528  0.0188
 3405W        W19022   6.234  11.939   1.490  0.3112  0.0781 -0.2367
 3406W        W19023   2.852  10.274  12.965 -0.1362  0.2351 -0.1262
 3407W        W19024  13.703   6.575  13.472  0.2011 -0.2048  0.2664
 3408W        W19025   9.210  14.559  15.255  0.3198 -0.0511  0.1686
 3409W        W19026  10.255  16.229   1.951 -0.0753 -0.2338 -0.0534
 3410W        W19027   9.957  12.655   1.057 -0.0384  0.1303 -0.0451
 3411W        W19028  17.961  15.412   1.539 -0.0052 -0.0791 -0.1468
 3412W        W19029   5.303   7.065   0.850  0.1334  0.0762 -0.1636
 3413W        W19030  12.253   3.125   1.153 -0.0794 -0.2124 -0.3251
 3414W        W19031  15.416  10.781   3.804  0.1833  0.3540 -0.4431
 3415W        W19032  14.423  14.921  14.947  0.0094 -0.1091 -0.2202
 3416W        W19033   9.097   9.742   3.434 -0.0224 -0.0427  0.1452
 3417W        W19034  15.240   0.715   4.301  0.0492  0.2514  0.0416
 3418W        W19035  14.495   1.022  14.145 -0.1234 -0.0592  0.1305
 3419W        W19036  11.783   7.408   2.129  0.0552  0.0699 -0.0815
 3420W        W19037  14.965  16.820  13.163 -0.3437 -0.2452  0.1481
 3421W        W19038  12.655   0.982  10.652  0.0899  0.2527 -0.0889
 3422W        W19039  12.228  17.191  10.856 -0.1007  0.2792  0.0845
 3423W        W19040   5.497  10.039  14.699  0.0541  0.1891 -0.0862
 3424W        W19041  13.768   8.549  13.157 -0.0245 -0.0465  0.0834
 3425W        W19042   9.401  11.582   6.149  0.1070  0.2025 -0.1490
 3426W        W19043   8.833   8.431  12.120 -0.2006 -0.1221 -0.1633
 3427W        W19044  14.427  15.122   5.651 -0.0001  0.0735  0.1013
 3428W        W19045  16.267  16.476  13.157 -0.2990  0.2229  0.3084
 3429W        W19046  14.909  15.501  13.549 -0.1184  0.1986 -0.0836
 3430W        W19047   8.959  15.310   2.698 -0.1224 -0.2010  0.0308
 3431W        W19048  14.738   9.910   3.056  0.4696  0.0048  0.0323
 3432W        W19049   5.800  16.505   5.293 -0.1164  0.1304  0.1136
 3433W        W19050  10.352   5.637   2.557 -0.1642 -0.3475  0.1678
 3434W        W19051  18.212  11.576  15.142 -0.0907 -0.0977  0.1148
 3435W        W19052  15.923   1.259   2.685 -0.2271  0.0948  0.0591
 3436W        W19053   4.308   3.505  14.448 -0.2922 -0.1911 -0.1341
 3437W        W19054   6.558  11.268  14.272  0.1059  0.1969 -0.2024
 3438W        W19055   2.980   5.885  10.834 -0.0565  0.2316  0.0873
 3439W        W19056  11.539  11.859   4.479 -0.1451 -0.3699  0.1867
 3440W        W19057  15.977   2.799   0.996 -0.1370  0.0444 -0.1134
 3441W        W19058  12.948  13.662  16.076  0.1885  0.1147 -0.1778
 3442W        W19059   8.302  12.287   5.804 -0.0341 -0.0058 -0.0552
 3443W        W19060   5.370  11.950  13.100  0.1157  0.1317 -0.2383
 3444W        W19061   6.011   5.198   4.746 -0.4766 -0.5824 -0.2796
 3445W        W19062  14.757  16.912   2.484  0.3225 -0.1777 -0.3701
 3446W        W19063   9.573   6.280   3.350 -0.3374  0.2998  0.2614
 3447W        W19064   2.253   8.030   3.547  0.1265 -0.0911  0.3148
 3448W        W19065  10.686   3.417   3.074  0.2479  0.4860 -0.2104
 3449W        W19066  11.916  15.898  11.223  0.2817  0.2705 -0.2327
 3450W        W19067  17.330  14.061  11.810 -0.0021 -0.3652 -0.0143
 3451W        W19068  16.501   6.894   2.951 -0.1226  0.0121 -0.0363
 3452W        W19069  15.704  11.398  16.046 -0.1695 -0.0734  0.2707
 3453W        W19070   8.446   6.652  15.799 -0.1559  0.2503  0.0121
 3454W        W19071  16.232  13.989  13.736 -0.1041 -0.3476 -0.1512
 3455W        W19072   9.703  14.299  14.160  0.2925 -0.2475  0.2880
 3456W        W19073   3.938  17.879   2.791  0.1039  0.0998 -0.2716
 3457W        W19074  15.253   3.355  15.653  0.1243 -0.0291 -0.0672
 3458W        W19075   7.278   4.330  11.293 -0.0324 -0.1541 -0.0843
 3459W        W19076   2.385   1.294   0.391 -0.1201 -0.1529  0.0630
 3460W        W19077  15.782   4.876   1.525  0.1866 -0.2054 -0.0646
 3461W        W19078   8.374  11.954   5.396 -0.0447 -0.0803  0.3383
 3462W        W19079  13.658  13.198  13.147 -0.0465  0.0165  0.2262
 3463W        W19080  15.134  10.423   9.939  0.1348  0.3777 -0.2837
 3464W        W19081   5.634   0.610   3.365 -0.2303 -0.0945 -0.1986
 3465W        W19082   7.720  11.279   4.288 -0.0742  0.0756  0.2043
 3466W        W19083   1.817  17.748   5.979  0.3036 -0.0335 -0.0714
 3467W        W19084  14.522   6.435   0.221 -0.0181 -0.1455 -0.1115
 3468W        W19085  14.936  17.727   3.089 -0.4203 -0.0662  0.0690
 3469W        W19086   0.159   7.579  16.061  0.0264 -0.2231  0.3850
 3470W        W19087   1.276  15.623   1.207  0.0116 -0.0672  0.1150
 3471W        W19088   8.842   5.752  15.645 -0.1274 -0.0683 -0.1540
 3472W        W19089   0.392  14.165  11.129 -0.1123 -0.0303  0.0900
 3473W        W19090  10.153  12.425  14.140  0.0949 -0.3642 -0.2283
 3474W        W19091   4.091   0.952   3.597 -0.0695  0.2436  0.0796
 3475W        W19092  11.374  13.481  13.358  0.0470 -0.1541  0.0604
 3476W        W19093   9.585   0.916   1.502  0.2253  0.2053  0.4072
 3477W        W19094  17.331  14.875  11.191  0.1210  0.1287 -0.1016
 3478W        W19095  15.114  17.284  13.549 -0.3098 -0.1832  0.1202
 3479W        W19096   7.652   6.508  11.255 -0.0968 -0.0957 -0.2808
 3480W        W19097   4.481   8.162   3.358  0.0403  0.0864 -0.1753
 3481W        W19098  14.569   5.874  15.404 -0.1399 -0.1547 -0.0697
 3482W        W19099   1.158   3.693  11.444 -0.0929  0.0031 -0.1023
 3483W        W19100   2.705  13.038  14.352  0.1073  0.2020  0.2800
 3484W        W19101   9.854   9.850   4.109  0.0124 -0.0135  0.3401
 3485W        W19102  14.579  14.032  12.067  0.2953  0.0098  0.1021
 3486W        W19103  10.669  16.632  15.254 -0.3791 -0.0074 -0.0571
 3487W        W19104   9.941   8.130  12.533 -0.0353 -0.2092  0.0822
 3488W        W19105   4.381   8.231   2.846  0.1042  0.0815 -0.1054
 3489W        W19106   4.702  16.825  13.727  0.2310 -0.1015 -0.1334
 3490W        W19107   7.755  17.697   4.259 -0.4221 -0.1177 -0.0711
 3491W        W19108  13.284   8.396  14.294 -0.0855 -0.1828  0.1987
 3492W        W19109  13.394  10.457  13.488  0.0560  0.0050 -0.1135
 3493W        W19110   2.320   4.640  12.433 -0.0009 -0.2979  0.5173
 3494W        W19111  13.125   6.819  11.965 -0.3440 -0.3749 -0.1025
 3495W        W19112  10.800  16.832  14.471 -0.1300 -0.0192 -0.0492
 3496W        W19113  14.501  17.248   2.171 -0.0186 -0.0080  0.2754
 3497W        W19114  11.729  12.212  14.795 -0.0946 -0.1463  0.2435
 3498W        W19115   4.748  14.787  16.064  0.5639  0.2116 -0.0507
 3499W        W19116  12.403   8.516   3.875  0.2895  0.0121  0.0103
 3500W        W19117  16.893  13.767   4.825  0.0814  0.2658  0.2869
 3501W        W19118  16.164   7.206  15.821  0.1975 -0.1584 -0.3651
 3502W        W19119  18.388  14.067   3.820  0.0445 -0.0149  0.0109
 3503W        W19120  14.239   5.567   1.720 -0.0867 -0.1972  0.0702
 3504W        W19121  17.909   2.693  11.640  0.3698  0.0246  0.2742
 3505W        W19122  10.541   5.634  12.876 -0.3494 -0.1265  0.0536
 3506W        W19123   8.565  13.145   3.335 -0.0238 -0.5195  0.0482
 3507W        W19124   1.241  15.953  12.297 -0.0794  0.2275 -0.0330
 3508W        W19125   1.818   4.192  15.780  0.0513  0.1187  0.0677
 3509W        W19126   3.556  10.551   4.366 -0.0281 -0.1252 -0.0394
 3510W        W19127   9.319   9.531   4.336  0.0308 -0.0579  0.1937
 3511W        W19128   4.335   3.047  14.258 -0.2321  0.4490 -0.0887
 3512W        W19129   6.935   2.213  15.066  0.2603 -0.3905 -0.2072
 3513W        W19130  10.013  17.830  16.041  0.0387 -0.2977 -0.1298
 3514W        W19131  12.134   4.928   3.591 -0.0617 -0.0065  0.2733
 3515W        W19132   6.809  14.968   2.915 -0.0201 -0.1307 -0.0604
 3516W        W19133   2.024   6.298  14.880  0.1465 -0.0693 -0.1168
 3517W        W19134  15.456   2.251   4.665  0.1684  0.1356 -0.0592
 3518W        W19135   6.906  15.736   3.039 -0.2922  0.3395  0.0277
 3519W        W19136  10.405   9.819   1.547 -0.2382  0.1092  0.2119
 3520W        W19137   6.644   8.999  12.497 -0.0887 -0.2647  0.1001
 3521W        W19138   6.690   4.214  14.838 -0.1248  0.0445 -0.3111
 3522W        W19139   8.694  15.323  14.082  0.3839  0.2054  0.0885
 3523W        W19140  18.169   3.176   3.564 -0.0928 -0.0070 -0.0617
 3524W        W19141   3.129  14.864   2.198 -0.1222 -0.4675  0.0359
 3525W        W19142  10.709  13.892  12.576 -0.0357 -0.3103  0.3585
 3526W        W19143   6.301  14.299  14.875  0.2840 -0.0583 -0.0424
 3527W        W19144  16.193  11.065   3.153 -0.1967  0.1883  0.2896
 3528W        W19145   0.568   3.958  15.166 -0.0830 -0.1240 -0.2094
 3529W        W19146   1.300   5.853   3.176  0.0612  0.0180 -0.0779
 3530W        W19147  15.046  12.949   1.820  0.2559 -0.0554  0.0992
 3531W        W19148  14.946  17.950   2.610 -0.3152 -0.0226 -0.0014
 3532W        W19149   8.291   8.399  11.246 -0.0250 -0.0283 -0.2657
 3533W        W19150   9.988  15.991   2.790  0.3672 -0.0895 -0.0469
 3534W        W19151   0.245   3.469  14.429  0.0556 -0.0135  0.2117
 3535W        W19152  15.757  11.427   2.529 -0.0400  0.0353 -0.1197
 3536W        W19153   6.556   5.773  11.354 -0.3077 -0.2057 -0.2821
 3537W        W19154   3.963   1.848  12.673 -0.1587  0.1311  0.2071
 3538W        W19155  10.333   1.822  11.499  0.0857 -0.0961 -0.1775
 3539W        W19156  13.652  18.366   5.656  0.0851  0.0897 -0.0212
 3540W        W19157  13.125  17.620   4.001 -0.0006 -0.2802 -0.1507
 3541W        W19158   8.098  10.913   4.834  0.4085 -0.2079  0.0382
 3542W        W19159   7.284   3.810   0.598  0.0491  0.0724 -0.2917
 3543W        W19160   2.596   0.879  11.419  0.0241  0.1812  0.2149
 3544W        W19161   8.095   1.895  15.577 -0.1271 -0.0926 -0.0285
 3545W        W19162  15.700  17.900   4.132  0.3986  0.3995 -0.1828
 3546W        W19163  10.993   4.043   4.087 -0.0641  0.0078 -0.0395
 3547W        W19164   2.251  11.593   3.511  0.1413  0.1198 -0.3665
 3548W        W19165   9.331  15.227   4.432 -0.0885  0.1119 -0.4224
 3549W        W19166   3.647  13.342   3.012  0.2316  0.0563 -0.0980
 3550W        W19167  16.660   4.964  12.511  0.1303  0.1716  0.0283
 3551W        W19168   4.805  10.442   3.452  0.2285  0.1548 -0.0339
 3552W        W19169   0.068  15.537   0.229  0.1838 -0.2339 -0.3198
 3553W        W19170   9.445  14.334  12.280 -0.0934  0.3796  0.1197
 3554W        W19171   4.566   8.118   1.378  0.0365  0.2018 -0.1718
 3555W        W19172  13.989  16.574   1.586 -0.3844 -0.4015  0.0514
 3556W        W19173   0.921  10.156  14.378  0.3149 -0.1795  0.3125
 3557W        W19174   1.328  17.756  14.137  0.2600 -0.1163  0.0001
 3558W        W19175   6.631   4.767   5.568  0.3552  0.1834  0.0222
 3559W        W19176   9.771   8.962   4.956  0.0961 -0.1690  0.0244
 3560W        W19177  13.241   3.497   5.444 -0.0567 -0.0391 -0.0830
 3561W        W19178  12.983  10.645   2.674  0.0518 -0.0363 -0.1145
 3562W        W19179   8.573   2.094   0.628  0.0587 -0.0427 -0.0425
 3563W        W19180   9.616  16.972  13.559 -0.1071  0.3919 -0.0768
 3564W        W19181  12.337  11.182  13.821  0.2448  0.1745 -0.4546
 3565W        W19182   9.740   4.018   2.447 -0.2697 -0.3351 -0.0090
 3566W        W19183  15.468   5.170  13.461  0.2006 -0.0095 -0.1096
 3567W        W19184  17.091   2.897  15.519 -0.1628 -0.1125  0.1020
 3568W        W19185   7.262   4.830  11.396  0.0939  0.2282 -0.0797
 3569W        W19186  16.391   9.345  14.516 -0.1955 -0.0313 -0.0185
 3570W        W19187   5.046  18.325  16.075  0.3537  0.2896  0.1405
 3571W        W19188   4.142  14.773   0.237 -0.3037 -0.0977 -0.0945
 3572W        W19189   8.538  18.327   5.353 -0.1893  0.0720  0.3175
 3573W        W19190  11.755  13.374   1.778  0.4681  0.5456  0.0845
 3574W        W19191  12.704   8.643  13.317  0.2359 -0.0656 -0.1126
 3575W        W19192   0.373   2.745   1.079 -0.3767 -0.0877 -0.1900
 3576W        W19193   7.516   9.395   0.687  0.3237 -0.3104  0.2079
 3577W        W19194  14.913   6.944   2.181  0.3115 -0.1919 -0.0410
 3578W        W19195   2.023   3.574  11.265 -0.1915  0.1875 -0.0421
 3579W        W19196  14.721  16.425  13.345  0.2527 -0.0438  0.2242
 3580W        W19197  10.205  13.111   3.309 -0.1684 -0.0326  0.2584
 3581W        W19198   7.833   6.896   3.622 -0.2977  0.0829  0.0117
 3582W        W19199  16.342  14.763   5.085 -0.3047 -0.1624 -0.2146
 3583W        W19200   5.362  13.386   4.803  0.2796 -0.3460 -0.1957
 3584W        W19201  18.209   5.790  15.634  0.3626 -0.2539  0.2876
 3585W        W19202   4.273  10.052  10.957  0.1017  0.1521  0.1311
 3586W        W19203  13.437  10.466   3.888 -0.2465 -0.1202 -0.1645
 3587W        W19204   9.894  11.334   1.328  0.0055  0.2047  0.0242
 3588W        W19205  16.681   7.398  12.759  0.0840  0.3127 -0.0904
 3589W        W19206  11.179  16.329   0.394  0.0585  0.1029 -0.1549
 3590W        W19207  17.676  12.602   5.834  0.2106  0.2109  0.2389
 3591W        W19208  12.310  16.370  14.247  0.0864 -0.1966 -0.0816
 3592W        W19209   0.140   7.755   2.593  0.2063 -0.2235  0.1862
 3593W        W19210  15.481   0.145   2.861 -0.5838 -0.1830  0.1272
 3594W        W19211  14.396  12.895   4.667  0.3418 -0.2266  0.0311
 3595W        W19212  12.159  12.763  14.175 -0.0189  0.1424  0.3717
 3596W        W19213  10.850   5.141  15.974  0.2063  0.0900 -0.2436
 3597W        W19214  16.186   2.702   2.818  0.1119  0.1907  0.1547
 3598W        W19215  10.831  13.898   3.676 -0.4488  0.3054 -0.1523
 3599W        W19216   9.794   2.762  12.832 -0.2103 -0.3246  0.0587
 3600W        W19217   8.100  16.474  11.874  0.2192  0.0652 -0.1327
 3601W        W19218  17.716   1.669  14.596 -0.3282  0.0349 -0.0559
 3602W        W19219   3.094  14.255   4.937 -0.0357 -0.0677  0.2739
 3603W        W19220   9.883  10.018   2.010 -0.3748 -0.1138  0.0490
 3604W        W19221  15.114   3.089  15.199 -0.2492  0.2406  0.0855
 3605W        W19222  10.580  17.542  12.962 -0.1883  0.1456 -0.0039
 3606W        W19223  10.620   7.301  15.011 -0.1934 -0.0177  0.3149
 3607W        W19224   6.533   1.087  14.001 -0.3402 -0.2874 -0.1960
 3608W        W19225  13.957   0.906  15.517 -0.1228 -0.0050 -0.2076
 3609W        W19226  16.709  12.706   2.943  0.3894  0.6440 -0.3826
 3610W        W19227   1.825  14.070   3.853  0.1993 -0.3046  0.0895
 3611W        W19228   8.049   8.343  11.753  0.1717  0.1508 -0.1167
 3612W        W19229   3.441   5.780   0.885 -0.0168  0.3350 -0.2048
 3613W        W19230  10.085  15.658  14.675  0.1106  0.2047  0.0724
 3614W        W19231   3.014   4.615   2.555  0.3851  0.0597 -0.1090
 3615W        W19232  13.862   3.765   3.473 -0.0510  0.1102  0.0536
 3616W        W19233  12.644   8.028  11.690  0.1145  0.2020  0.0041
 3617W        W19234   5.459   8.241  10.936 -0.3268 -0.0353  0.0809
 3618W        W19235  14.078  14.803  15.326 -0.0613  0.6480 -0.3341
 3619W        W19236  10.055  18.028  14.060 -0.3197  0.2034 -0.1324
 3620W        W19237  11.569  12.540  11.520  0.0972  0.0661  0.1935
 3621W        W19238   1.544   9.457  12.160  0.0983  0.0574  0.0709
 3622W        W19239   8.366  16.665   0.306 -0.1348 -0.0973  0.1023
 3623W        W19240  15.492  10.238  11.521  0.1100 -0.3865 -0.3221
 3624W        W19241   8.608   2.848   4.470  0.0185 -0.3371 -0.0662
 3625W        W19242   0.349  16.203   4.661 -0.1694 -0.1806  0.1209
 3626W        W19243  18.356   1.073   0.370  0.0177  0.1340 -0.1486
 3627W        W19244  13.188   7.548  14.572  0.1175  0.3277 -0.1269
 3628W        W19245  11.402   6.281   3.608 -0.4164 -0.2463  0.0053
 3629W        W19246  13.781   5.479   1.460 -0.0997  0.2181  0.1373
 3630W        W19247  11.096  14.684   1.285  0.0325  0.1861 -0.1003
 3631W        W19248   4.806  17.279   2.802 -0.0065 -0.1531  0.0230
 3632W        W19249   2.254  10.936   1.345  0.0137  0.1657  0.0626
 3633W        W19250  12.639   3.521   5.329 -0.0760  0.0070 -0.1235
 3634W        W19251   1.316   8.495  15.045 -0.0609 -0.0111 -0.2471
 3635W        W19252   6.118   8.242   9.696  0.1302  0.1191 -0.1309
 3636W        W19253  12.492   5.301  14.403  0.3111 -0.1544 -0.0387
 3637W        W19254   2.976  15.182   5.355  0.3157  0.0105  0.2147
 3638W        W19255   5.083  11.539   4.470 -0.0265 -0.1702 -0.2088
 3639W        W19256   4.985  13.539   4.534 -0.0197 -0.0177  0.0842
 3640W        W19257  14.096  10.823  13.905  0.1570  0.0807 -0.0855
 3641W        W19258  11.828  17.628  15.630  0.2076 -0.1541 -0.1136
 3642W        W19259  15.415  17.582   5.620 -0.2892  0.1666  0.0746
 3643W        W19260  15.494  17.643  14.043  0.4686 -0.3270 -0.2943
 3644W        W19261   7.428   3.399  15.107  0.1263  0.0662  0.2247
 3645W        W19262  10.753   0.637   0.123 -0.0439 -0.0681  0.1030
 3646W        W19263  12.817   2.333  12.050  0.1377 -0.0196 -0.1179
 3647W        W19264  11.169   4.346   0.083  0.3390 -0.1633  0.2814
 3648W        W19265  17.125  13.969  13.521  0.0425  0.1863 -0.1477
 3649W        W19266  12.372   1.635  14.335 -0.0955 -0.0394 -0.2788
 3650W        W19267   9.445   2.491   5.389  0.5862 -0.1070  0.0319
 3651W        W19268  12.415   9.672   0.500 -0.4375 -0.2177 -0.1923
 3652W        W19269  15.131   7.686  13.739  0.1113 -0.0279 -0.1453
 3653W        W19270  15.247   6.104  15.711 -0.1103  0.0941 -0.1135
 3654W        W19271  14.666  12.074   1.234 -0.0474 -0.1507 -0.3101
 3655W        W19272  15.959  12.382  15.114  0.0492 -0.0852 -0.3571
 3656W        W19273   2.763   3.120  14.765 -0.2437 -0.2573  0.1009
 3657W        W19274  12.767  13.789  14.557  0.1076  0.6105 -0.1667
 3658W        W19275   8.489   2.993   1.054 -0.1463 -0.0962 -0.1479
 3659W        W19276   6.069   5.038   3.808 -0.1885  0.1037  0.1861
 3660W        W19277  18.014  15.241   3.468 -0.0355  0.0643  0.1737
 3661W        W19278  18.068  16.596   1.295 -0.5265 -0.0798 -0.2105
 3662W        W19279  14.627   7.482   2.965  0.3226 -0.2523  0.0165
 3663W        W19280  14.348   4.921  10.084  0.2323 -0.5590 -0.3362
 3664W        W19281  17.109  17.903  11.807 -0.1398  0.2279 -0.1678
 3665W        W19282   8.541   1.431   1.306 -0.0818 -0.2164 -0.4342
 3666W        W19283  12.037  14.010  12.095 -0.1158 -0.1147  0.0602
 3667W        W19284  16.840   0.326  11.961  0.0670  0.0506 -0.0106
 3668W        W19285   0.167   6.669   0.906  0.0807  0.1954 -0.1061
 3669W        W19286  10.271   1.316   0.540  0.0608  0.0925  0.0833
 3670W        W19287   9.360   5.399   4.254  0.3263 -0.2182  0.1267
 3671W        W19288   1.052  12.289  12.171  0.1627  0.1566  0.2864
 3672W        W19289  10.143  18.148  14.611  0.0899 -0.1971 -0.3085
 3673W        W19290   8.575   9.576   0.972  0.1297  0.1097  0.1458
 3674W        W19291   4.014   8.428  11.679  0.1597 -0.1813  0.2117
 3675W        W19292  11.704   0.174   2.296  0.2587 -0.1707 -0.1946
 3676W        W19293   2.595   1.351  11.597 -0.0350  0.0248  0.0164
 3677W        W19294   5.263  15.911  11.275 -0.2321  0.0485 -0.3263
 3678W        W19295  15.352   0.936  12.985 -0.0091 -0.0453 -0.0525
 3679W        W19296  11.893   7.106  11.128  0.3849 -0.0127 -0.0071
 3680W        W19297   7.604   8.752  11.714  0.0931  0.1315 -0.0781
 3681W        W19298  12.515   2.421  11.335  0.3570  0.2293 -0.0702
 3682W        W19299   8.471   9.563  13.393  0.1020 -0.2232 -0.0491
 3683W        W19300  10.235   2.707   1.482  0.1188 -0.0980  0.1841
 3684W        W19301  18.444   4.477   5.855  0.1416  0.0591 -0.1012
 3685W        W19302  16.782   2.697   4.126 -0.0257  0.2114  0.3089
 3686W        W19303   0.863   1.872   4.945 -0.1189  0.1532 -0.1158
 3687W        W19304  12.187   6.317   1.317 -0.1735 -0.0313  0.2095
 3688W        W19305  17.207  14.473   3.012 -0.0736  0.0267  0.0272
 3689W        W19306   4.591   3.741  15.518  0.1206  0.3141 -0.2939
 3690W        W19307   6.156   5.882   2.974  0.0967 -0.0016 -0.3026
 3691W        W19308  15.983   6.431   1.227  0.0957 -0.2588  0.1385
 3692W        W19309   9.528   6.012   0.707  0.1446  0.4652 -0.0146
 3693W        W19310   7.583   4.161   3.782 -0.0917  0.0109  0.0448
 3694W        W19311  12.401   0.252   4.908 -0.0651 -0.0319  0.1555
 3695W        W19312   1.754  14.607   2.648  0.0552 -0.1217  0.3279
 3696W        W19313   2.042  13.722  12.702 -0.0460  0.4193 -0.0594
 3697W        W19314  17.386   0.466   0.797  0.2921  0.3440  0.2129
 3698W        W19315   1.281   1.054  11.625 -0.2000 -0.2650 -0.0697
 3699W        W19316   0.915   3.780  10.613  0.1051 -0.0301 -0.2471
 3700W        W19317   3.506  18.055   3.008  0.0876  0.2090 -0.0577
 3701W        W19318   5.707   5.855  15.372  0.1411  0.2972  0.1961
 3702W        W19319   0.823  13.428   2.527  0.2291 -0.1105 -0.0928
 3703W        W19320   7.074   9.967  13.603 -0.2318 -0.1459 -0.1706
 3704W        W19321   2.106   3.550  15.756  0.0318 -0.0437  0.1595
 3705W        W19322   4.185  11.598  15.659  0.1648  0.4994 -0.2292
 3706W        W19323   2.497   3.577   3.200 -0.0040  0.2197  0.0843
 3707W        W19324  14.440   0.675  15.799  0.2645  0.0794  0.1339
 3708W        W19325   1.386  17.142  13.658 -0.1060  0.0018 -0.2589
 3709W        W19326  16.904   9.326  14.529  0.1540 -0.0421  0.1060
 3710W        W19327   7.061  16.337   1.642 -0.1329  0.0380 -0.0596
 3711W        W19328  16.355  15.505   1.101 -0.2134  0.2353 -0.0705
 3712W        W19329  13.308  14.242   3.936 -0.2047 -0.4090 -0.0416
 3713W        W19330   9.884   7.074   5.887 -0.1141  0.0587  0.1299
 3714W        W19331   5.019   8.182  12.916 -0.0986 -0.0524 -0.2408
 3715W        W19332   5.779   6.104   1.394  0.0975  0.0671 -0.1632
 3716W        W19333  16.531   6.938  14.740 -0.0198  0.1120 -0.0372
 3717W        W19334   8.046   9.881  14.005 -0.0723 -0.3934  0.1172
 3718W        W19335   9.183   5.290  14.026  0.2869  0.0760 -0.0789
 3719W        W19336   3.758  18.168   1.413  0.0033 -0.1761 -0.1436
 3720W        W19337  10.942  10.385   3.263 -0.1797  0.0926 -0.0612
 3721W        W19338   0.656   6.207   4.309 -0.1580  0.1238 -0.0876
 3722W        W19339  17.357  13.671  15.112 -0.2421  0.1666 -0.2117
 3723W        W19340   6.640   0.148  11.269 -0.0876  0.2331 -0.1776
 3724W        W19341  11.456   2.901  15.413 -0.2232  0.0161  0.2013
 3725W        W19342   7.648   9.662  12.039 -0.1137  0.1863 -0.1147
 3726W        W19343  14.846  12.508   5.467  0.3180 -0.1337 -0.1002
 3727W        W19344   5.882  10.999  13.044 -0.1170 -0.1323  0.1739
 3728W        W19345  14.777   9.687  15.694 -0.0256 -0.1197  0.0359
 3729W        W19346  10.708   2.862   0.654 -0.2153  0.0347 -0.0584
 3730W        W19347  13.888   0.943  13.348 -0.0060 -0.1064  0.2519
 3731W        W19348   1.163   7.682  13.743  0.0470  0.2684 -0.2105
 3732W        W19349  10.687  10.541  16.017  0.2170  0.3315  0.0514
 3733W        W19350  13.205   5.203   0.038  0.0596  0.1154  0.5221
 3734W        W19351   5.154   6.874  13.866  0.0615 -0.2657 -0.2436
 3735W        W19352   4.553  13.022  12.682 -0.1181 -0.1616 -0.4057
 3736W        W19353   5.008  15.937   2.512  0.1681 -0.1659 -0.1046
 3737W        W19354  12.447   0.943  14.411 -0.3502 -0.1889 -0.0416
 3738W        W19355   2.638  14.621   4.066 -0.1515  0.2566 -0.2521
 3739W        W19356   9.220  11.869   3.470 -0.1997  0.1090  0.1842
 3740W        W19357  12.605   4.179   3.472  0.1431  0.0550 -0.2629
 3741W        W19358   6.309  10.974   0.312  0.1404  0.1142 -0.0941
 3742W        W19359  15.512  15.742   2.525  0.1082 -0.0853  0.0953
 3743W        W19360   7.734  12.841  14.617 -0.1900 -0.1346 -0.1589
 3744W        W19361   2.961  15.368   0.334 -0.0723 -0.5426  0.1122
 3745W        W19362   3.108   2.105  11.108  0.1405 -0.1269  0.0532
 3746W        W19363   7.261   3.081  13.170 -0.5760  0.2100  0.2106
 3747W        W19364   0.905   0.761   1.898  0.1913  0.1345  0.2035
 3748W        W19365  16.418  14.778  15.337 -0.3499 -0.0715 -0.2690
 3749W        W19366  16.667  13.917  15.037 -0.0571  0.1418 -0.0491
 3750W        W19367  11.864   6.064   2.171 -0.1074  0.0691  0.2462
 3751W        W19368   4.439   5.621  13.791 -0.3068 -0.1458  0.0281
 3752W        W19369   3.332   2.435   3.209  0.2264  0.2105  0.0395
 3753W        W19370   3.634   9.302   9.644  0.1074  0.3680  0.1856
 3754W        W19371   9.243   7.207   4.582 -0.1732  0.0604 -0.0443
 3755W        W19372   4.451   7.771   0.402  0.0837  0.2153 -0.1176
 3756W        W19373  14.516   3.672  13.228  0.1424  0.0450  0.1621
 3757W        W19374  12.248  11.678   0.425 -0.0967  0.4369 -0.2621
 3758W        W19375   5.912  12.721   4.476  0.0841  0.0098  0.1362
 3759W        W19376  16.988   8.524  13.000 -0.1102  0.0688 -0.0722
 3760W        W19377   0.492  10.727   1.069 -0.0630  0.0394  0.4076
 3761W        W19378   3.766   1.550  13.082 -0.1879 -0.1922  0.0653
 3762W        W19379   6.320   4.961  11.055 -0.2176  0.0316  0.1410
 3763W        W19380   0.119  13.795   2.982  0.1674 -0.1212 -0.0262
 3764W        W19381   1.112  10.324   1.412  0.1630  0.2921 -0.0795
 3765W        W19382  11.450  13.450  13.878 -0.1615  0.1190 -0.1955
 3766W        W19383  17.254  16.541  15.568  0.2013  0.3403 -0.0840
 3767W        W19384   8.998   4.805   4.860  0.1872  0.0967 -0.1484
 3768W        W19385  10.529   3.329   0.938  0.1216 -0.0215  0.0936
 3769W        W19386  14.355   1.415  13.359 -0.3149 -0.1592 -0.0128
 3770W        W19387   4.112  11.022  13.205 -0.0842 -0.0395  0.3582
 3771W        W19388   8.550  11.323  13.771 -0.2797  0.1561 -0.1324
 3772W        W19389   5.933   2.301  11.697 -0.0954  0.1558 -0.1060
 3773W        W19390   6.436  15.189   6.071 -0.0095 -0.1010 -0.2574
 3774W        W19391   1.907  18.029   6.446  0.0275  0.4237  0.1157
 3775W        W19392  11.196  15.207   4.353 -0.2405  0.0572 -0.3307
 3776W        W19393   2.298  15.578   4.189  0.0094  0.3620  0.1202
 3777W        W19394  13.979  14.470  14.880 -0.0571 -0.1982 -0.3534
 3778W        W19395  15.950   4.625  11.937 -0.0217  0.1077 -0.1075
 3779W        W19396   1.313  12.112  13.465 -0.3384  0.1410  0.0747
 3780W        W19397  14.246  12.212  13.477 -0.4383  0.4857  0.0461
 3781W        W19398   7.996  15.812  10.864  0.2578  0.3210 -0.2081
 3782W        W19399   0.122   5.360   3.773 -0.0780  0.2272  0.0513
 3783W        W19400  14.946   2.754  13.426  0.3517  0.0549  0.1064
 3784W        W19401  17.258   9.010   3.126 -0.1131 -0.1314 -0.0563
 3785W        W19402   4.769  15.131   5.944  0.2974  0.0701  0.1394
 3786W        W19403  11.470   8.000  11.531  0.1154  0.0333 -0.0164
 3787W        W19404  18.210  15.673   0.962  0.1545  0.1118  0.1242
 3788W        W19405  11.161  17.376   2.941  0.1082 -0.0707 -0.0860
 3789W        W19406   1.492  18.269  16.054  0.4259  0.0440 -0.0083
 3790W        W19407  12.421   3.410  15.523  0.0656 -0.2376  0.1131
 3791W        W19408   9.615   8.035  14.440 -0.1160  0.0165  0.3328
 3792W        W19409  11.261  11.757   5.564 -0.1446  0.3125 -0.0853
 3793W        W19410   7.072   9.912  15.545  0.2608 -0.0716  0.1979
 3794W        W19411   9.173   4.674   3.456 -0.1748  0.0347 -0.3353
 3795W        W19412   6.040  12.167   4.322 -0.1453  0.0120  0.3269
 3796W        W19413  16.363   7.582  12.164  0.1453 -0.0295 -0.1469
 3797W        W19414  13.495  13.529  15.261  0.1891 -0.1999 -0.1286
 3798W        W19415   5.189   9.694   0.859 -0.3698  0.1726 -0.0765
 3799W        W19416   0.160  10.803   0.713 -0.0235 -0.0088  0.0101
 3800W        W19417  17.658  14.634   5.525  0.1725 -0.0779 -0.2905
 3801W        W19418  13.804  13.021  11.832 -0.1681 -0.0510 -0.0346
 3802W        W19419  12.653  17.360   3.165 -0.2509  0.0217 -0.1983
 3803W        W19420  18.084   4.794  14.178 -0.2206 -0.0145 -0.2668
 3804W        W19421  16.955   9.230  10.697  0.0436  0.0194 -0.0260
 3805W        W19422  16.330   0.090   2.295  0.0945 -0.1724  0.0352
 3806W        W19423  15.573   2.152  14.521 -0.0547  0.0933  0.0270
 3807W        W19424   8.509   0.264  14.073 -0.2203  0.0861 -0.2310
 3808W        W19425   7.046   1.258  10.831  0.0462 -0.0045  0.0862
 3809W        W19426   6.485  14.232  15.354 -0.0927 -0.0009  0.0885
 3810W        W19427  16.358   7.606  10.658 -0.1910  0.0698  0.1422
 3811W        W19428   7.304   0.468  11.825 -0.1334 -0.1586 -0.2049
 3812W        W19429   0.489   2.195   4.830  0.1426 -0.2026  0.1468
 3813W        W19430   8.623   4.621   1.620 -0.1058  0.3470 -0.0050
 3814W        W19431  16.828   7.539   3.936  0.0250  0.0755  0.1724
 3815W        W19432  18.421   5.341   2.465 -0.0500  0.4894  0.2122
 3816W        W19433   9.577   4.782   0.187  0.1073 -0.2576 -0.1196
 3817W        W19434   6.342  16.636   3.520  0.0920  0.4645 -0.2109
 3818W        W19435   2.146   9.173   1.424 -0.2262 -0.4076 -0.0380
 3819W        W19436  11.255  10.923  13.449  0.2923  0.2858 -0.0571
 3820W        W19437  17.088   7.454  11.876 -0.1260 -0.1276 -0.0213
 3821W        W19438  14.614  12.828  11.185 -0.2883  0.1849 -0.1323
 3822W        W19439  14.977   3.311  16.086 -0.0009 -0.1687  0.1747
 3823W        W19440   1.795   9.053   4.115  0.1983 -0.0018  0.1950
 3824W        W19441  17.606   3.487  12.221 -0.0948 -0.0942 -0.0408
 3825W        W19442   0.153  13.736  14.555 -0.2784  0.0705 -0.0404
 3826W        W19443   7.441  15.357  12.162 -0.0601 -0.3055  0.0172
 3827W        W19444   3.071  11.177   0.921 -0.1494  0.1946  0.0851
 3828W        W19445   6.264  11.276   4.124 -0.0915  0.0658 -0.2079
 3829W        W19446   2.779  13.108  11.900 -0.1775 -0.4614 -0.0889
 3830W        W19447   1.788   5.232   3.086  0.2598 -0.0652 -0.2442
 3831W        W19448   0.566  11.597  12.433 -0.1378  0.0015 -0.1476
 3832W        W19449  16.825  13.368  15.484 -0.1465  0.3467 -0.3230
 3833W        W19450   9.607  14.408   4.618 -0.4730 -0.0796  0.2452
 3834W        W19451  17.841  17.527  15.265  0.1169  0.0790  0.1384
 3835W        W19452  13.378   4.364   0.740 -0.1062  0.1432  0.0709
 3836W        W19453   8.641   6.117  15.321  0.0528  0.1787  0.0296
 3837W        W19454   4.596   3.359   2.415  0.1825 -0.1334 -0.1292
 3838W        W19455  14.358   4.980  11.296  0.1145  0.2098 -0.0509
 3839W        W19456  14.214   2.560   4.365 -0.0069  0.0447 -0.0665
 3840W        W19457  11.487  18.296  11.511 -0.5428  0.0292 -0.5422
 3841W        W19458   1.257  15.274   5.164 -0.1354  0.0312 -0.1881
 3842W        W19459   5.443   9.226   4.720 -0.0364  0.1546  0.1353
 3843W        W19460   5.005   9.923   1.598 -0.2227 -0.1054 -0.2665
 3844W        W19461  12.400  15.811   4.861  0.1722 -0.1812  0.2519
 3845W        W19462   5.599   8.066   4.165  0.3063 -0.2050 -0.2860
 3846W        W19463   0.357  10.544  12.222 -0.0197  0.0597  0.2103
 3847W        W19464  12.087  12.750   2.984  0.2474 -0.0409 -0.0071
 3848W        W19465   3.462  12.152   1.042  0.1572 -0.0114 -0.0488
 3849W        W19466  10.413  13.477   0.868  0.3072 -0.2480  0.1759
 3850W        W19467   8.386  14.124  13.604 -0.0008 -0.0830 -0.1428
 3851W        W19468  15.372  10.855   3.297  0.0274 -0.2555  0.0828
 3852W        W19469   7.783   4.136  15.399 -0.0121 -0.0292  0.1502
 3853W        W19470   3.772  16.939   2.822  0.0021  0.1570  0.1946
 3854W        W19471   9.831   6.773  11.443  0.0515 -0.0439  0.1088
 3855W        W19472  12.738   2.747  12.403 -0.0465  0.1690  0.1446
 3856W        W19473   2.586   4.008   5.448 -0.1143 -0.1324 -0.2759
 3857W        W19474   8.474  12.658  12.247  0.1674  0.0293  0.0421
 3858W        W19475   9.344  14.899   5.733 -0.3159 -0.6204  0.3604
 3859W        W19476   2.431   8.490   4.921  0.1033  0.0013  0.0221
 3860W        W19477  12.103  18.044  15.759  0.0997 -0.2079  0.2214
 3861W        W19478  16.911   6.723   0.105  0.2755 -0.1057  0.0968
 3862W        W19479  11.276   0.407  12.141 -0.1037  0.2242  0.0213
 3863W        W19480  16.699  11.885  11.598  0.0168  0.0201 -0.2091
 3864W        W19481   0.649  18.005  14.080  0.2372  0.0510 -0.4774
 3865W        W19482   6.824  15.092   6.380  0.1342 -0.2421 -0.0465
 3866W        W19483   8.861   5.207  13.654  0.0159  0.0052  0.1320
 3867W        W19484   3.810   1.078   2.054  0.1168  0.0506  0.0629
 3868W        W19485   3.522   3.815   5.202  0.2311 -0.0409  0.3802
 3869W        W19486  15.154   7.022  10.936 -0.0863 -0.0163 -0.2515
 3870W        W19487  10.922   2.609  13.697  0.6167  0.2485  0.0411
 3871W        W19488  11.147  15.171  13.991 -0.0099 -0.0275 -0.0236
 3872W        W19489  12.964  10.799   5.409  0.0565  0.2111 -0.2543
 3873W        W19490   1.075  11.645  12.322  0.2272  0.1224  0.3843
 3874W        W19491   1.251   7.434  14.795  0.3711  0.1689  0.1593
 3875W        W19492  11.896  16.642   3.028  0.2833  0.0593  0.4631
 3876W        W19493   7.377  17.275   1.811 -0.3115  0.0505  0.0643
 3877W        W19494   7.962  16.726  14.070 -0.2413  0.1160  0.2080
 3878W        W19495  15.438   5.311  13.981  0.2211 -0.1437 -0.1401
 3879W        W19496  16.139  17.039  12.199 -0.0848  0.0184 -0.1602
 3880W        W19497  10.032   3.745  13.141  0.3577 -0.2165  0.3017
 3881W        W19498   1.793  11.580   4.850  0.2547  0.3714  0.0695
 3882W        W19499  15.379   9.740   4.167 -0.5313  0.0715 -0.0234
 3883W        W19500   1.175  13.352   4.781 -0.0003  0.1613  0.1928
 3884W        W19501  14.976   3.910  13.387 -0.2034  0.1098 -0.0622
 3885W        W19502  16.628  15.056   6.045 -0.0907  0.0130 -0.0334
 3886W        W19503  17.278  17.903   2.535  0.1741 -0.3718  0.2128
 3887W        W19504   8.094  13.938  12.119 -0.0693  0.1573 -0.1761
 3888W        W19505  12.175   6.039  13.241 -0.1028  0.2582  0.0219
 3889W        W19506   4.559   3.748  14.865  0.1285  0.2111  0.2038
 3890W        W19507   1.301   2.617   1.000 -0.2974 -0.2509  0.0993
 3891W        W19508  10.068  12.460   0.590 -0.0494  0.0340  0.0961
 3892W        W19509  12.318  12.780   0.558  0.1115 -0.0129 -0.0154
 3893W        W19510  14.361   1.127   1.067 -0.2143 -0.2354 -0.2156
 3894W        W19511  17.392  15.355   2.713  0.0691  0.1265  0.0024
 3895W        W19512  13.874  12.579   4.551  0.0445 -0.1585 -0.1226
 3896W        W19513   4.212  15.465  15.655  0.1376  0.0370 -0.0087
 3897W        W19514   3.409  14.465  12.164  0.2160 -0.1773 -0.0682
 3898W        W19515  10.034  13.496   6.705  0.1045  0.1807  0.0754
 3899W        W19516   6.007   0.971   3.395 -0.1481  0.1034  0.1192
 3900W        W19517  18.073  11.706  15.658 -0.4191 -0.2525 -0.1229
 3901W        W19518   2.260   7.227  13.640 -0.1246 -0.1559 -0.0538
 3902W        W19519  17.574   7.014   2.272  0.2973 -0.2207  0.2050
 3903W        W19520   7.046   6.382  15.856 -0.0344 -0.1120  0.1319
 3904W        W19521   4.216  11.738   4.671 -0.2688 -0.0214 -0.0773
 3905W        W19522   0.885  13.834   3.532 -0.0583 -0.0240  0.2305
 3906W        W19523   6.113  14.365   4.301  0.0623 -0.2513 -0.0408
 3907W        W19524   3.989  13.155   2.011  0.0682  0.2750 -0.0552
 3908W        W19525   5.141   3.676   4.545  0.0565  0.0496  0.4535
 3909W        W19526  13.183  16.572  11.495 -0.2654 -0.0136 -0.0564
 3910W        W19527   3.157   4.676  15.328  0.1210  0.1810  0.1626
 3911W        W19528   3.741   0.671  12.625  0.3274 -0.1397 -0.0306
 3912W        W19529   9.733   8.488  15.787  0.1642  0.0269 -0.0768
 3913W        W19530   5.142   1.186   5.313 -0.1425 -0.0059 -0.3233
 3914W        W19531   5.062  13.339   2.703  0.1510 -0.0963 -0.2577
 3915W        W19532  17.516   3.170   2.036 -0.2036 -0.1853 -0.0420
 3916W        W19533   5.687   6.449  14.665  0.0644  0.1482 -0.1296
 3917W        W19534   6.009  13.140   4.012 -0.1094 -0.1127  0.5798
 3918W        W19535   5.548  16.958  14.121 -0.0019  0.0755 -0.1132
 3919W        W19536   4.755  15.287  14.054  0.5721  0.2775  0.0281
 3920W        W19537  17.440  10.707  13.942  0.2477 -0.1473  0.0023
 3921W        W19538  11.715  12.012   2.099  0.0361 -0.1951  0.0271
 3922W        W19539  12.185   9.453  11.299 -0.0685  0.0770  0.1238
 3923W        W19540   6.703   9.330   4.773  0.0585 -0.1515  0.1579
 3924W        W19541   8.887   5.884  11.237  0.0136 -0.0377  0.1478
 3925W        W19542  16.261   1.595   6.313  0.3154 -0.2997  0.1365
 3926W        W19543   7.839  11.772   4.343 -0.0962 -0.0122 -0.1029
 3927W        W19544   8.611   4.052   1.578 -0.1783 -0.2752 -0.1406
 3928W        W19545  12.840  15.318   2.150  0.0153  0.1465 -0.0258
 3929W        W19546   3.493  13.097   4.507  0.5159 -0.4275  0.0117
 3930W        W19547   9.332   2.904  15.684 -0.2092 -0.1898  0.0423
 3931W        W19548   5.629   0.592  15.536  0.0272 -0.1764 -0.3107
 3932W        W19549   7.825   6.982   4.071  0.0442 -0.1410 -0.1259
 3933W        W19550   4.750  11.590   0.337  0.1536 -0.3647  0.3056
 3934W        W19551  11.437  14.627  15.590  0.2157 -0.6255  0.0511
 3935W        W19552   0.952  15.978  15.542 -0.1146  0.3916 -0.0912
 3936W        W19553   9.469   2.551  13.239 -0.0332  0.0415 -0.1552
 3937W        W19554  10.048  16.295   4.461  0.0230 -0.2714 -0.0303
 3938W        W19555  11.517   7.755  15.998  0.1189 -0.4111 -0.0683
 3939W        W19556  16.014   5.568  13.314  0.2197  0.0230  0.3828
 3940W        W19557  17.664  16.195   5.172  0.0505  0.2287  0.1077
 3941W        W19558  14.861  18.075  12.470  0.1750 -0.0608 -0.2444
 3942W        W19559   0.561  10.893  13.885  0.0314 -0.1680  0.0919
 3943W        W19560   7.922   2.880   2.267 -0.1314 -0.2388 -0.0413
 3944W        W19561   4.028  16.411   3.660  0.0801 -0.3295  0.0424
 3945W        W19562  15.752  16.289  14.348  0.1167  0.0697 -0.1127
 3946W        W19563  15.254   9.735  13.062 -0.2981  0.2781  0.1579
 3947W        W19564   6.506  13.088  11.659  0.0544  0.3395 -0.3369
 3948W        W19565   4.939   7.672   0.545  0.4196 -0.4222 -0.3963
 3949W        W19566   4.910   5.289  14.282  0.3315 -0.3779 -0.0636
 3950W        W19567  14.875  10.164  15.462  0.2667  0.0492 -0.1975
 3951W        W19568  14.766   2.539  14.516  0.1913  0.1885 -0.1734
 3952W        W19569   3.918   8.653  14.562  0.2378 -0.1081 -0.3388
 3953W        W19570  13.419  17.864   3.166  0.0024 -0.3324  0.1446
 3954W        W19571   7.246   5.469  13.212  0.1619  0.0794  0.2945
 3955W        W19572   4.803   7.289  10.516  0.0582  0.1992  0.0076
 3956W        W19573  13.425  12.575  11.103 -0.1421  0.1407 -0.0563
 3957W        W19574   2.765   6.758   5.805 -0.2301 -0.0256  0.2117
 3958W        W19575  10.638   8.037   4.958  0.0099  0.2554  0.0475
 3959W        W19576  11.664   7.447   4.510 -0.3087  0.0209 -0.3221
 3960W        W19577   8.658   5.375  11.137 -0.1341 -0.1249  0.0401
 3961W        W19578   8.378   3.826  14.014  0.2632 -0.0302  0.0702
 3962W        W19579   3.526   0.766  12.136 -0.1212  0.2536 -0.0770
 3963W        W19580  14.438  14.734   0.889 -0.0915 -0.0101  0.1509
 3964W        W19581  14.578   3.516   5.155 -0.0503 -0.0148  0.3511
 3965W        W19582   2.836  16.863   0.233  0.2420  0.0064  0.2116
 3966W        W19583   2.444   2.143   0.112  0.1812  0.2383 -0.2301
 3967W        W19584  17.504  10.718   5.490  0.1833 -0.2081 -0.1211
 3968W        W19585   8.082   4.470  14.959 -0.2085 -0.1796 -0.0907
 3969W        W19586   2.350   0.384  15.371  0.2401  0.1065 -0.0053
 3970W        W19587  17.835   2.560   3.428 -0.0003 -0.0438 -0.1488
 3971W        W19588   4.269   3.643   1.227  0.0133 -0.1034 -0.0443
 3972W        W19589   9.423   9.674   1.504  0.1202  0.0257 -0.1883
 3973W        W19590   8.783  18.127   4.084  0.1249 -0.0998 -0.1810
 3974W        W19591   9.627   5.521   0.472 -0.3233  0.0726  0.2839
 3975W        W19592   2.062   3.834   3.292  0.2568 -0.1949 -0.0681
 3976W        W19593  14.632   8.177   2.271  0.1386  0.0098 -0.1221
 3977W        W19594  13.041   7.560   3.170 -0.0999 -0.0635 -0.0269
 3978W        W19595  15.528   0.459   4.964  0.6483  0.2060  0.2103
 3979W        W19596   7.099  17.391   2.282 -0.1161  0.2971 -0.2975
 3980W        W19597   4.922  16.486  14.737 -0.0523 -0.3523  0.0123
 3981W        W19598  10.970  16.076  15.081  0.0887  0.0007  0.1300
 3982W        W19599  14.610   6.908   0.013 -0.0640 -0.0636 -0.1248
 3983W        W19600   8.142  13.323   2.574 -0.1769 -0.2418 -0.2632
 3984W        W19601  12.063   5.395   0.564  0.1145  0.1250  0.0426
 3985W        W19602   5.317  10.419   1.656  0.0809  0.0508  0.0534
 3986W        W19603   2.879   1.942   0.556  0.2196 -0.1148 -0.1976
 3987W        W19604   3.905   5.943   1.812 -0.1141 -0.0224 -0.1934
 3988W        W19605  13.556  18.263   2.792 -0.1437 -0.0087 -0.2417
 3989W        W19606   4.035  17.883  14.486 -0.0807 -0.0495 -0.0485
 3990W        W19607   5.637  17.208   3.234  0.4528 -0.0221 -0.0498
 3991W        W19608  15.247   2.831   3.101  0.2121 -0.1510 -0.2519
 3992W        W19609   6.777  16.933  13.490 -0.0110  0.1195 -0.4795
 3993W        W19610   0.912   4.532   5.596  0.3871  0.2931 -0.2342
 3994W        W19611  15.622   8.622  15.458 -0.2624  0.1557  0.0911
 3995W        W19612  15.017   8.735  15.409 -0.1226 -0.0300 -0.2840
 3996W        W19613   2.914  12.393   0.117 -0.0391  0.0695 -0.1177
 3997W        W19614   3.895  18.380  15.811  0.0674  0.4059 -0.1730
 3998W        W19615   6.554  12.088   2.496 -0.1498  0.0991 -0.0143
 3999W        W19616   9.493   8.024  10.835 -0.1176 -0.3185  0.1316
 4000W        W19617   6.206  14.173   4.889  0.3128 -0.0110  0.1687
 4001W        W19618  10.878  10.465  11.752  0.2418 -0.1491 -0.1711
 4002W        W19619   0.798   9.722   3.693  0.1140 -0.1883 -0.2258
 4003W        W19620  16.756  12.309   3.324 -0.1233  0.3099 -0.0293
 4004W        W19621   0.320   7.545   5.065 -0.0593  0.0171  0.1311
 4005W        W19622   4.297  16.269   0.707 -0.4837  0.1027 -0.1263
 4006W        W19623  10.758  13.049   1.094 -0.0628  0.1535 -0.1273
 4007W        W19624   6.125   5.131   2.480  0.0665  0.0067 -0.2738
 4008W        W19625   2.574   1.539  13.502 -0.0746 -0.1404  0.1310
 4009W        W19626  17.158  11.098  14.106 -0.1450  0.0020  0.2462
 4010W        W19627  16.660   8.670   3.668  0.0396  0.1928  0.0611
 4011W        W19628  15.565  16.578  15.580  0.1995  0.2460 -0.2336
 4012W        W19629   4.248  11.948  15.322 -0.1343  0.0019  0.0378
 4013W        W19630   2.434  12.035   3.475  0.4674 -0.3856  0.1749
 4014W        W19631  12.528   5.050   4.587  0.2572  0.0237 -0.1232
 4015W        W19632  15.795   2.915  12.517 -0.2940 -0.0662  0.0446
 4016W        W19633  13.508  12.705  13.247  0.0434  0.1128 -0.1295
 4017W        W19634  17.130   3.707  12.893  0.0018 -0.2509  0.0690
 4018W        W19635   1.450   1.482   0.450  0.2379 -0.1342 -0.1873
 4019W        W19636  18.077   0.075  14.953  0.0794 -0.0041 -0.3116
 4020W        W19637   2.414  16.308   0.504  0.2009 -0.1487 -0.0880
 4021W        W19638   1.817  16.631  15.774  0.1840 -0.1344 -0.0972
 4022W        W19639   0.994  12.533   6.230  0.0552 -0.1239 -0.0868
 4023W        W19640   2.898   2.464   2.568  0.1900 -0.1080 -0.0632
 4024W        W19641   2.599   1.267  12.133  0.1963  0.0876 -0.1174
 4025W        W19642   5.934   5.117  11.572 -0.0038  0.3214 -0.3185
 4026W        W19643   7.037  12.343   1.290  0.0343 -0.1588  0.0391
 4027W        W19644   4.723   0.544   0.519  0.0180  0.0594 -0.1680
 4028W        W19645  12.148   2.222  11.841  0.1326 -0.2514 -0.0018
 4029W        W19646   7.904   9.664  12.557 -0.3149 -0.0421  0.1959
 4030W        W19647   5.188  13.742   3.712  0.0981  0.2276  0.2833
 4031W        W19648   1.698  16.639  11.781  0.0668 -0.2545  0.0182
 4032W        W19649  14.944   8.358  14.560  0.2456 -0.0310 -0.1010
 4033W        W19650   7.676  14.636   2.410  0.1698  0.2594 -0.2456
 4034W        W19651   3.125  14.969   1.219  0.0348 -0.3517 -0.0293
 4035W        W19652  15.789  17.365   1.578  0.1124  0.0151  0.0531
 4036W        W19653   4.768  17.534  12.268 -0.1458  0.1567 -0.0890
 4037W        W19654   6.143  14.866   3.771  0.3780 -0.2373 -0.1277
 4038W        W19655  10.224  13.895  11.320  0.0175 -0.1203  0.3724
 4039W        W19656  10.254  10.075  13.715 -0.0664  0.0317 -0.0536
 4040W        W19657   8.133   2.859   2.980 -0.0399  0.1130 -0.1510
 4041W        W19658   2.981   1.858   1.966 -0.5054  0.1626  0.1473
 4042W        W19659   0.727  16.593  11.767  0.3560 -0.1605 -0.2445
 4043W        W19660   8.089  15.775   5.186  0.2115  0.2407 -0.1426
 4044W        W19661   3.114   3.760  15.675 -0.1241 -0.2085 -0.1112
 4045W        W19662  12.973   2.024   4.701  0.1146  0.0378 -0.0657
 4046W        W19663   5.594   1.032  13.651 -0.3375 -0.2098 -0.1589
 4047W        W19664  13.097   0.634   0.605 -0.1711  0.0712 -0.1962
 4048W        W19665   1.616   1.654  14.387 -0.0003 -0.1636  0.1984
 4049W        W19666   6.536  17.040   3.863 -0.1673 -0.1416  0.0366
 4050W        W19667  12.827   7.213   0.534 -0.0093 -0.0286 -0.1678
 4051W        W19668  16.520  13.876   2.084 -0.2990 -0.4219 -0.5097
 4052W        W19669  16.906   2.682  16.030  0.3052  0.0968  0.2707
 4053W        W19670   0.042  11.206   4.475  0.0110 -0.1015  0.0574
 4054W        W19671   9.621   5.139  12.743 -0.1259 -0.0854  0.0921
 4055W        W19672  17.697  11.035  11.898  0.0115 -0.0625 -0.2176
 4056W        W19673   5.521  16.597  16.012 -0.2553  0.4049 -0.1221
 4057W        W19674  13.398  14.429   1.774  0.2419 -0.2866  0.1620
 4058W        W19675  12.462  10.218   2.650 -0.2057 -0.0544 -0.2443
 4059W        W19676  12.775   4.487   4.575 -0.0480 -0.1034  0.2608
 4060W        W19677  16.289   2.655   5.245  0.3632 -0.0153  0.1556
 4061W        W19678   4.966  15.038   4.508 -0.0108  0.1057  0.1596
 4062W        W19679  11.395  12.913   6.268  0.0396  0.0532 -0.0265
 4063W        W19680  17.878  10.945   2.969 -0.0642  0.2310 -0.0313
 4064W        W19681  11.345  14.757   2.157  0.1560  0.0203  0.0813
 4065W        W19682   6.400  14.224  13.874  0.1020  0.0346  0.4047
 4066W        W19683   9.727  11.232  14.823 -0.3600 -0.0164  0.2937
 4067W        W19684  10.705   6.978   2.383 -0.1364 -0.0002 -0.3500
 4068W        W19685   7.767  15.255   3.846 -0.0097  0.0578  0.0888
 4069W        W19686   3.988  12.406  13.002 -0.1755 -0.0026  0.3037
 4070W        W19687  15.678  18.174  13.777  0.1842 -0.2801 -0.0555
 4071W        W19688  15.866  18.439   4.060  0.1290  0.0207  0.0849
 4072W        W19689   0.682   0.098   0.230 -0.3474 -0.0287  0.0460
 4073W        W19690  13.316   8.354  13.767 -0.0138  0.3775  0.0142
 4074W        W19691   7.105  16.169   5.683 -0.3833  0.0136 -0.0218
 4075W        W19692  16.141  13.848   0.024 -0.1032  0.1830  0.0986
 4076W        W19693   3.069  13.710   2.491  0.1847 -0.3457 -0.1120
 4077W        W19694  18.313   7.851   4.383 -0.3565  0.1146  0.0899
 4078W        W19695  17.047   4.589   5.351  0.1217  0.1989 -0.0785
 4079W        W19696   2.835   7.152   3.045  0.0099 -0.0902 -0.0797
 4080W        W19697   9.711  14.842  15.079 -0.0931 -0.0317  0.0932
 4081W        W19698  12.987   3.933   0.131  0.2182 -0.1759 -0.0753
 4082W        W19699  16.979   2.107   3.357  0.0508 -0.3219  0.2004
 4083W        W19700  17.924   9.111   3.820  0.1669 -0.0196 -0.1741
 4084W        W19701   7.154   5.074   3.581 -0.2647 -0.1346 -0.0449
 4085W        W19702  11.636   0.970   2.663 -0.0783 -0.0550  0.0620
 4086W        W19703   6.865  14.225   3.627 -0.1198  0.0595  0.1183
 4087W        W19704  13.544   6.812   1.786 -0.0932 -0.1243  0.1458
 4088W        W19705  11.907   7.778  11.695  0.1761 -0.1025  0.1316
 4089W        W19706  14.121   4.595   2.337 -0.4145 -0.0488  0.0859
 4090W        W19707   0.542  11.936  14.058 -0.1670 -0.2451 -0.0942
 4091W        W19708  13.427  18.412   2.345 -0.0727  0.0528  0.1038
 4092W        W19709   6.916  12.525   4.068  0.2648  0.2661  0.2073
 4093W        W19710  14.565  10.178  14.996 -0.1161  0.1128 -0.2538
 4094W        W19711   5.303  15.904   1.641  0.1069  0.1394  0.2059
 4095W        W19712   2.105   7.428   4.053 -0.0102  0.2761 -0.1274
 4096W        W19713  10.009  15.103   2.860  0.3246 -0.0745 -0.4781
 4097W        W19714  16.966   7.308   0.878  0.3390 -0.1698 -0.0571
 4098W        W19715   3.395   6.306  11.427 -0.3940  0.2617  0.1691
 4099W        W19716  15.500   2.953   1.666  0.1145  0.1281 -0.3678
 4100W        W19717  14.213   6.973  10.653  0.0091  0.0078 -0.1668
 4101W        W19718   9.873   6.317  12.817  0.1878  0.3058  0.0442
 4102W        W19719  13.316   1.458   5.684  0.2218  0.0516  0.0561
 4103W        W19720  11.265  17.573   0.536 -0.0103 -0.1367  0.0382
 4104W        W19721  11.290   0.077  14.368 -0.1945 -0.0875  0.1038
 4105W        W19722   0.830  13.267  15.119  0.0177  0.2765  0.1493
 4106W        W19723  14.881   9.476  12.732 -0.1792  0.0817 -0.1942
 4107W        W19724   7.970   9.312   2.537  0.1732  0.2349  0.2267
 4108W        W19725  15.036  17.274   5.827 -0.0678 -0.3250 -0.0664
 4109W        W19726   7.669  17.904   3.147  0.1008 -0.0211  0.3706
 4110W        W19727  17.933  10.999  14.727  0.3268 -0.0899 -0.3712
 4111W        W19728   4.979  10.393   4.065  0.3726 -0.0464 -0.0220
 4112W        W19729   3.327  16.186   0.835 -0.1356  0.0601  0.0205
 4113W        W19730  11.281  12.971  11.817  0.1309 -0.1286  0.1206
 4114W        W19731   3.864   7.990  15.442  0.1951  0.0666 -0.0802
 4115W        W19732  17.676   5.390  13.618 -0.2510  0.1653  0.2526
 4116W        W19733   0.015   9.824   2.095 -0.1782 -0.3003 -0.1281
 4117W        W19734  17.474  18.261   3.861 -0.3321  0.2671  0.2826
 4118W        W19735   3.022   9.141   4.706 -0.0821  0.4242  0.0677
 4119W        W19736  15.497  12.468  14.946 -0.0970 -0.3487  0.1561
 4120W        W19737   2.378  10.243   5.899 -0.1887 -0.3032  0.4258
 4121W        W19738  17.496   8.983  13.434 -0.2009 -0.4300 -0.1004
 4122W        W19739   8.115   0.135  11.802 -0.0342  0.2609 -0.3316
 4123W        W19740  13.295  15.352   1.197 -0.2190  0.1176  0.1241
 4124W        W19741   1.388   6.813   4.829  0.0771  0.1643  0.0658
 4125W        W19742  11.756  10.084   1.286 -0.0488  0.2253 -0.1401
 4126W        W19743  17.910  18.269  15.894 -0.1035 -0.0325  0.2067
 4127W        W19744  10.465   2.199   1.196  0.1827  0.1157  0.2680
 4128W        W19745   4.202   7.203   2.656  0.2889 -0.0361 -0.1691
 4129W        W19746  11.505   8.262  14.949  0.4613 -0.0080 -0.3595
 4130W        W19747  12.106  14.098   1.896 -0.2043 -0.0880 -0.0511
 4131W        W19748  17.690   6.815  11.404  0.4363  0.2596  0.1366
 4132W        W19749   4.654   8.878  15.754  0.1266  0.2865  0.2552
 4133W        W19750   0.982   7.167   1.621 -0.1944 -0.5170 -0.2022
 4134W        W19751  13.675  15.009   4.371  0.1980 -0.0656  0.2680
 4135W        W19752   2.358   4.447  15.298 -0.1613 -0.2769 -0.1072
 4136W        W19753   1.984  15.345   0.284 -0.0583 -0.1816 -0.1452
 4137W        W19754   5.449   7.400   1.290 -0.4630 -0.2711  0.1472
 4138W        W19755   1.309  15.303   2.593 -0.2702 -0.1250  0.0634
 4139W        W19756   6.718  12.437   2.888 -0.1933  0.0164  0.1577
 4140W        W19757  14.534  17.565  15.398  0.3305  0.0808  0.0011
 4141W        W19758   9.712  10.200  14.595  0.1447  0.2325  0.3610
 4142W        W19759   7.601   6.137   1.873 -0.0647  0.1065 -0.0629
 4143W        W19760  10.021   8.666  12.444 -0.0002  0.1803  0.2221
 4144W        W19761  14.406   4.342  12.746 -0.0391 -0.2842 -0.5080
 4145W        W19762  15.637   8.633   1.623 -0.1338 -0.0058  0.0536
 4146W        W19763  11.331  18.153  12.049  0.1715  0.0454  0.1220
 4147W        W19764   9.434   2.180  12.295 -0.0887  0.2312  0.3889
 4148W        W19765  15.183  14.627   5.834  0.0360 -0.0618 -0.4329
 4149W        W19766   5.997   9.359  12.975 -0.1808 -0.0904 -0.1032
 4150W        W19767   2.820  16.741   3.730 -0.2774 -0.4510 -0.0685
 4151W        W19768  14.674  15.777  11.869 -0.2914 -0.1541 -0.0435
 4152W        W19769   5.709   4.920   2.325 -0.3453 -0.0420 -0.2200
 4153W        W19770  17.938  14.457  14.361  0.1413 -0.0875 -0.2625
 4154W        W19771   3.566   3.488   0.059  0.1841  0.1471 -0.1802
 4155W        W19772   4.825   4.379  15.198  0.1435 -0.3326  0.0784
 4156W        W19773  18.202  13.836   1.757  0.2810  0.0497  0.2277
 4157W        W19774   3.409   8.710   4.628 -0.1537  0.0384 -0.2431
 4158W        W19775   7.245   4.503   3.387 -0.0651 -0.0829 -0.0891
 4159W        W19776  13.857   9.572   5.140 -0.4298  0.1531  0.0511
 4160W        W19777  14.361  11.596   2.503  0.1279 -0.0956 -0.2898
 4161W        W19778  10.023  18.412   3.387  0.1792 -0.0328 -0.0183
 4162W        W19779   6.930   3.005   0.182  0.3813  0.2887 -0.0471
 4163W        W19780   4.996   1.084   3.252  0.0978  0.1225 -0.1072
 4164W        W19781  16.727  14.319  13.597 -0.1377  0.0006  0.1708
 4165W        W19782   4.831   6.723  14.314  0.0092  0.2082 -0.0216
 4166W        W19783   0.870  14.306  13.356 -0.1094 -0.1494 -0.1681
 4167W        W19784   6.724  12.441  12.070 -0.2291  0.0071  0.0615
 4168W        W19785  13.448  18.259   4.107 -0.0728 -0.2507 -0.0126
 4169W        W19786  17.496   6.051  13.577 -0.1179  0.2304  0.0879
 4170W        W19787  12.252  13.741  14.539  0.0892 -0.0217 -0.1901
 4171W        W19788   3.011   4.264  10.714 -0.1220 -0.0253 -0.0097
 4172W        W19789   2.268  16.499  15.663 -0.2237  0.2036 -0.1573
 4173W        W19790   3.328   5.451   4.086 -0.0922 -0.2282  0.2290
 4174W        W19791  10.535   2.411  13.823 -0.3489 -0.1577  0.1572
 4175W        W19792   0.417   0.921  13.008 -0.2431 -0.1062 -0.2343
 4176W        W19793  12.222  17.575   2.865  0.1851 -0.1837 -0.1968
 4177W        W19794  15.490   3.162  12.879 -0.1661 -0.0668  0.1556
 4178W        W19795   8.930  11.899  14.372 -0.2629 -0.2946  0.2444
 4179W        W19796  11.260   2.803  13.381  0.0036 -0.1325 -0.0004
 4180W        W19797  14.422   8.760  14.436  0.0195 -0.2058 -0.0629
 4181W        W19798   5.566  11.723   3.678  0.0653 -0.0791 -0.0629
 4182W        W19799  16.161  16.838  14.173  0.0069  0.1461 -0.3511
 4183W        W19800   1.156  16.155  15.998  0.0229 -0.0997  0.3869
 4184W        W19801   4.937   0.079   4.091  0.0487 -0.2749 -0.2218
 4185W        W19802   9.528   8.074   2.710  0.0252 -0.0217 -0.1676
 4186W        W19803   0.514   0.788   2.736  0.0127 -0.2044 -0.2380
 4187W        W19804  18.342   2.838   0.266 -0.0601 -0.1699  0.0248
 4188W        W19805   8.705   3.836  12.651  0.5001 -0.3089 -0.1250
 4189W        W19806   2.231   3.993  15.603  0.2522 -0.1731  0.0342
 4190W        W19807   0.542   3.663   2.333 -0.1796  0.0700  0.2643
 4191W        W19808   5.485  12.444   4.445  0.1727  0.0351 -0.3323
 4192W        W19809   6.320   9.454  15.166  0.2341  0.3240 -0.3098
 4193W        W19810  15.596  17.900   2.344  0.0096  0.1209 -0.0864
 4194W        W19811   6.292   7.592   4.704  0.3360  0.0921  0.1401
 4195W        W19812   4.803  10.032  10.348 -0.0924 -0.1196 -0.1482
 4196W        W19813  12.846   6.436  11.985 -0.0144  0.1399 -0.0982
 4197W        W19814  12.822  16.894  12.116  0.0466  0.1788  0.1068
 4198W        W19815   5.653   0.701   5.911 -0.3912  0.1344  0.0453
 4199W        W19816  13.666   1.723   0.493  0.0149  0.0982  0.2205
 4200W        W19817   2.096  13.628   5.557  0.3259 -0.3140  0.1126
 4201W        W19818   8.785   3.398   1.320  0.1617  0.0599  0.2369
 4202W        W19819   9.877  15.695  13.586 -0.1068 -0.3861  0.0066
 4203W        W19820  15.171   9.058  10.193 -0.4383  0.1760 -0.4546
 4204W        W19821  11.817  17.464   1.810  0.0853 -0.4259  0.1463
 4205W        W19822   6.540  12.295   1.351  0.1106 -0.3507  0.0308
 4206W        W19823   1.398   0.053   5.861  0.1722 -0.1518  0.2111
 4207W        W19824  13.229  16.134   1.565  0.0258 -0.1533  0.1854
 4208W        W19825  10.484   8.030  10.688 -0.1881  0.0903 -0.0420
 4209W        W19826  12.822   2.995   0.654 -0.0898  0.1171  0.0758
 4210W        W19827   6.625   7.131   5.403  0.0908  0.4676 -0.1026
 4211W        W19828   9.224   1.611   0.265 -0.1695  0.1134  0.3276
 4212W        W19829  10.868  15.258  15.222 -0.1011  0.0545  0.1019
 4213W        W19830   9.647   6.853   4.530  0.3675  0.0049 -0.0323
 4214W        W19831   4.697   2.638   3.037  0.1140  0.2276 -0.1475
 4215W        W19832   4.478   9.582   4.009  0.0979 -0.1015  0.2790
 4216W        W19833   0.258   3.422  15.833 -0.2722 -0.0138  0.1341
 4217W        W19834  11.784   6.581   1.275 -0.0575  0.1068 -0.0425
 4218W        W19835   5.418  12.966  15.943 -0.2361  0.2575 -0.1460
 4219W        W19836  10.383   3.487   3.667  0.0897 -0.0255  0.2290
 4220W        W19837  12.730   2.041  13.671  0.2279  0.1108  0.1052
 4221W        W19838  16.707  17.882   3.745  0.1219  0.3592  0.4776
 4222W        W19839   1.947   5.353  14.659 -0.0721  0.0573  0.0945
 4223W        W19840  12.255  17.126   4.672 -0.3678 -0.0157 -0.0253
 4224W        W19841  13.423  17.460   3.562 -0.0008  0.4260 -0.0900
 4225W        W19842   3.407  10.469   1.559  0.0429  0.0400  0.0135
 4226W        W19843   8.140  15.371   2.186  0.1650  0.3159  0.0078
 4227W        W19844  12.670  12.364  14.913  0.0796  0.0520 -0.1143
 4228W        W19845  14.407  15.507  13.565 -0.1599 -0.1123 -0.2014
 4229W        W19846   2.916   8.255  15.415  0.2128  0.1449  0.0343
 4230W        W19847   1.836   6.901   1.319  0.2820  0.0774 -0.2515
 4231W        W19848  10.253   8.101   3.132  0.2693 -0.0508 -0.1084
 4232W        W19849   3.135   0.491  12.629 -0.0358 -0.2906 -0.0168
 4233W        W19850  14.266   5.308  16.066 -0.1399 -0.0987 -0.0591
 4234W        W19851  10.921   3.172  13.781  0.0587 -0.1581  0.0080
 4235W        W19852  10.297  11.726  12.767  0.0101  0.2909  0.3563
 4236W        W19853  12.612   9.407  11.594  0.2059  0.2332 -0.1278
 4237W        W19854  17.860   6.684  14.233 -0.0940  0.1112 -0.5678
 4238W        W19855   6.162   0.932   4.482 -0.0556  0.4285  0.2302
 4239W        W19856   6.953  18.339   0.056  0.2493 -0.1094  0.3455
 4240W        W19857  16.542   3.106  11.129 -0.0078  0.0722  0.1062
 4241W        W19858  10.058   7.148  10.581 -0.0475 -0.0377 -0.1746
 4242W        W19859  13.380   4.237   5.172  0.0396 -0.0009  0.1383
 4243W        W19860  15.071   5.468   3.912 -0.2379  0.1875  0.1215
 4244W        W19861  14.416   2.027   2.289 -0.0539  0.0008 -0.0227
 4245W        W19862   6.683  12.718  12.627  0.1556 -0.3042 -0.2046
 4246W        W19863  14.622  13.785  14.115 -0.0238 -0.2923 -0.0797
 4247W        W19864  15.559  12.727  15.844  0.0072  0.4860 -0.4131
 4248W        W19865  14.092   4.718   5.739 -0.0544 -0.3159  0.1658
 4249W        W19866   9.713   0.284   0.167 -0.2456  0.1137 -0.1526
 4250W        W19867  16.070  14.084  12.215 -0.0628 -0.4158 -0.4100
 4251W        W19868   6.777  17.053   4.304 -0.1394  0.0425 -0.2898
 4252W        W19869  14.181  10.732   2.173  0.2435 -0.1298 -0.0953
 4253W        W19870   1.489  16.668   0.489 -0.2589  0.0100 -0.0815
 4254W        W19871   6.069   9.229   3.798 -0.0769 -0.1071  0.2931
 4255W        W19872  13.286   4.528   2.120 -0.0267 -0.0098  0.1069
 4256W        W19873   6.291   0.097  15.823  0.1804 -0.3216  0.1685
 4257W        W19874   1.782  11.034   4.127  0.0624 -0.1092  0.1660
 4258W        W19875  14.607   2.185   9.887 -0.2486 -0.3414 -0.1368
 4259W        W19876  13.024  15.147  11.513  0.1276 -0.0783  0.1493
 4260W        W19877   9.041   3.695  10.820 -0.3571  0.0874 -0.1386
 4261W        W19878  12.673   5.404   0.287  0.0202  0.0559  0.2635
 4262W        W19879  11.687  17.291  14.205  0.2978 -0.4285  0.1281
 4263W        W19880  11.007  13.577  15.168  0.0287 -0.1754 -0.1325
 4264W        W19881   7.868   0.059  10.038 -0.0478  0.0523 -0.0706
 4265W        W19882   4.481   0.183   0.941  0.1034 -0.1855 -0.0949
 4266W        W19883   7.405   0.925   2.017  0.2324  0.0830  0.1809
 4267W        W19884  13.320   9.458   4.433 -0.0945  0.1791  0.0053
 4268W        W19885  15.232  17.265  14.367  0.1163 -0.3475 -0.2175
 4269W        W19886  16.389  15.085   4.657  0.1162 -0.2135  0.2017
 4270W        W19887  16.989   3.124  12.916 -0.3100 -0.1374 -0.0803
 4271W        W19888   0.032   8.334   2.322 -0.2185  0.0609  0.1333
 4272W        W19889   0.512  12.063  12.806  0.3351  0.0311  0.1590
 4273W        W19890   9.953   7.606  12.383  0.1346  0.3495 -0.2866
 4274W        W19891  11.200  12.957  13.541 -0.0541  0.1034  0.0895
 4275W        W19892   8.273  13.092   0.695  0.1038 -0.0690  0.4515
 4276W        W19893   4.713   2.840   2.544  0.0364 -0.1528 -0.3185
 4277W        W19894  16.185  15.667  14.216 -0.3946  0.1677 -0.0832
 4278W        W19895   6.777   6.354  13.404  0.3411  0.0063  0.2634
 4279W        W19896  11.511   9.940  13.161 -0.1981  0.2613  0.0823
 4280W        W19897   1.955   6.219   5.329 -0.0085 -0.2822  0.0002
 4281W        W19898   7.607   1.962  14.744 -0.1426  0.1311  0.2419
 4282W        W19899  18.120   8.184   1.554 -0.0486  0.2002 -0.0327
 4283W        W19900   7.806   9.898  15.708  0.1959 -0.0883  0.3065
 4284W        W19901   3.459   8.564  14.637  0.2252  0.1822 -0.0017
 4285W        W19902   3.390  14.624  14.736 -0.0267 -0.0418  0.1224
 4286W        W19903   8.009  18.265   3.000 -0.2613 -0.1891 -0.3272
 4287W        W19904  11.620  16.678  11.449  0.0162  0.1928 -0.1856
 4288W        W19905   9.859   4.295   1.983  0.0691 -0.1154 -0.1223
 4289W        W19906  16.095   9.203   4.435 -0.1480  0.0512 -0.1689
 4290W        W19907  11.237   2.839   2.587  0.1856 -0.1023 -0.0270
 4291W        W19908   2.257  17.618   5.796 -0.1435 -0.1635 -0.0570
 4292W        W19909   0.834  10.845   2.353 -0.1671 -0.2685 -0.4041
 4293W        W19910  13.052   8.900   9.836  0.3583  0.1818  0.2774
 4294W        W19911   7.496   2.806   4.436 -0.1424 -0.0343  0.2861
 4295W        W19912   6.557   2.036  10.499 -0.2066  0.3318 -0.1279
 4296W        W19913  11.419  12.190  14.309  0.0260  0.1604  0.1521
 4297W        W19914   3.821  14.940   3.387 -0.0539  0.5193 -0.1437
 4298W        W19915  11.547   1.525  14.403  0.1860  0.1693  0.0439
 4299W        W19916  11.297   9.802   4.812 -0.1043  0.2646 -0.1337
 4300W        W19917  17.942   1.155  12.062 -0.4178  0.1324 -0.3360
 4301W        W19918  16.833   5.546   4.809  0.2963 -0.0541 -0.2252
 4302W        W19919   8.925   5.709  13.173  0.0071 -0.3575  0.1732
 4303W        W19920   3.534   3.284   5.333  0.3455  0.0917  0.1843
 4304W        W19921  13.432   9.368   3.810  0.2655 -0.2811  0.1968
 4305W        W19922   8.277   8.666  15.905  0.2236 -0.1062 -0.1655
 4306W        W19923  11.351  15.423  14.381 -0.2310  0.1627 -0.0068
 4307W        W19924  12.153   0.202  13.008 -0.2110  0.3607  0.1989
 4308W        W19925   1.163   4.809   3.080 -0.0292  0.3320  0.2360
 4309W        W19926  17.608   7.608  12.898  0.4083  0.2204  0.2002
 4310W        W19927  10.030  17.001  14.635  0.0351  0.0329 -0.1207
 4311W        W19928   4.158  10.071   2.461 -0.2003 -0.0034 -0.0069
 4312W        W19929   4.268   2.389  13.293  0.2911 -0.1495  0.1135
 4313W        W19930   2.097  10.265  12.260 -0.1493 -0.1316  0.0531
 4314W        W19931   6.199   5.292  16.090  0.1033  0.1143 -0.2079
 4315W        W19932  10.979   5.977   3.755 -0.2434  0.1024  0.1329
 4316W        W19933   9.254  18.128  13.709 -0.1111 -0.0904  0.3526
 4317W        W19934   4.685  14.148  11.864 -0.0517 -0.1075  0.0231
 4318W        W19935  16.535  16.399   2.207 -0.2763 -0.1106  0.0282
 4319W        W19936  10.757  11.690  16.028 -0.0418  0.0796 -0.0760
 4320W        W19937   4.078   6.575   2.958  0.0157 -0.0831 -0.2419
 4321W        W19938   2.873   5.408   5.496 -0.0050  0.1229 -0.2966
 4322W        W19939   8.401   5.684  14.004  0.0061 -0.1879 -0.0131
 4323W        W19940  18.063  10.132  11.922 -0.0768 -0.2366  0.0335
 4324W        W19941   9.850   4.397  13.057  0.0994  0.3979  0.1447
 4325W        W19942   9.045   4.698  15.553 -0.1899  0.2679  0.0523
 4326W        W19943  17.076  14.277  12.189 -0.2808 -0.0113 -0.0152
 4327W        W19944  12.013  17.023  13.422 -0.0085  0.1920 -0.0821
 4328W        W19945   3.353   5.763  12.658  0.3449 -0.1811 -0.0583
 4329W        W19946  18.417  12.727   5.348  0.1984 -0.0300 -0.0360
 4330W        W19947   5.536   8.234   1.027  0.0336  0.0436 -0.0628
 4331W        W19948  13.015   2.305   1.185 -0.3432  0.0710 -0.1877
 4332W        W19949   4.035  12.458  11.031 -0.0689 -0.3371  0.0990
 4333W        W19950   8.872   3.723  13.780  0.0828  0.1608  0.0030
 4334W        W19951  11.006   9.554   0.048  0.1612  0.1798  0.0154
 4335W        W19952   2.661   9.997  14.620  0.1059  0.3685 -0.2389
 4336W        W19953   6.613  14.039  12.901 -0.1248  0.0944  0.0016
 4337W        W19954  11.854   5.610  15.856 -0.1661 -0.0501 -0.1297
 4338W        W19955  16.777   0.099  13.024 -0.0981 -0.1387 -0.0088
 4339W        W19956   2.203   9.367   4.753 -0.0055  0.2634 -0.0668
 4340W        W19957   1.143  13.151  14.073 -0.6000  0.0580 -0.2915
 4341W        W19958  10.587   0.768   3.762 -0.2309 -0.0678  0.2457
 4342W        W19959  13.642   6.404  15.791 -0.1571 -0.0485  0.1547
 4343W        W19960  13.301  12.877   0.146 -0.2176  0.0415 -0.1041
 4344W        W19961  15.281  10.372  10.421 -0.0903  0.1799  0.0598
 4345W        W19962  17.976   5.306  15.591 -0.0385 -0.6672  0.2481
 4346W        W19963   1.631  12.971  16.043  0.0380  0.1993 -0.0838
 4347W        W19964   1.868  17.985  11.505 -0.3053 -0.0902 -0.0188
 4348W        W19965   5.313   5.268  12.638 -0.2301  0.1069  0.2404
 4349W        W19966   6.856   5.122   0.384 -0.4159 -0.1071 -0.1714
 4350W        W19967   1.725  16.572  12.814 -0.0596 -0.2729  0.0096
 4351W        W19968   1.189   5.567  14.987 -0.1669  0.0933 -0.1183
 4352W        W19969   0.961   0.201   3.235 -0.4706  0.0032  0.2343
 4353W        W19970   9.876  15.681  12.986 -0.3754 -0.1889 -0.1000
 4354W        W19971  13.994  14.171   0.851 -0.2998 -0.2800 -0.1996
 4355W        W19972   2.262   5.325   3.855  0.0149 -0.1490 -0.0819
 4356W        W19973  16.025  12.648   2.717  0.0842 -0.1526  0.3835
 4357W        W19974   9.563  17.214  12.719 -0.1235 -0.3387  0.0654
 4358W        W19975  15.885   2.197  12.604  0.0369 -0.1851 -0.4772
 4359W        W19976  14.686  16.906   3.211 -0.1013 -0.2944 -0.3277
 4360W        W19977  18.326  12.852   4.874  0.3032 -0.2918  0.2033
 4361W        W19978  14.397   8.573  15.781 -0.1682  0.0383  0.2098
 4362W        W19979   7.046   1.891   1.492  0.2994 -0.2553 -0.0665
 4363W        W19980  14.421  14.562  16.073 -0.3448 -0.4581 -0.0803
 4364W        W19981  15.231  17.119  11.618 -0.1539 -0.0797 -0.5074
 4365W        W19982   5.983   0.066   0.656  0.3004  0.0428  0.1541
 4366W        W19983   1.942   4.575  11.501  0.0136  0.1596 -0.0201
 4367W        W19984  11.911   3.160   2.852 -0.2392 -0.0525 -0.2502
 4368W        W19985  11.538   0.357   9.991  0.0217  0.3629  0.0069
 4369W        W19986  17.391  16.251  12.376 -0.0417 -0.3232  0.0202
 4370W        W19987  11.799  10.859   0.222  0.0021  0.4337  0.2551
 4371W        W19988   1.658  15.560   4.576 -0.0475  0.4158  0.2504
 4372W        W19989  16.745  18.408   3.586 -0.3337 -0.0741 -0.1733
 4373W        W19990  10.499  13.733  10.303 -0.1811  0.0027  0.1692
 4374W        W19991  11.805  18.140   2.223  0.2164 -0.4088  0.1181
 4375W        W19992  10.313  10.083   3.922  0.1307 -0.0829 -0.3715
 4376W        W19993  15.824   2.525   2.446  0.3197 -0.2028  0.1058
 4377W        W19994  16.588  12.482  16.079  0.0627  0.2208 -0.1813
 4378W        W19995   5.976  13.864  11.326 -0.1033 -0.0679 -0.0392
 4379W        W19996  17.895  12.819  12.183  0.1841  0.1693  0.2890
 4380W        W19997  13.307   9.436  15.022 -0.0426  0.2512 -0.0524
 4381W        W19998  17.641   8.057  15.068 -0.3038  0.0587  0.1455
 4382W        W19999   3.356   2.800   3.536 -0.0108 -0.0609  0.1530
 4383W        W20000  18.193  17.279   5.066 -0.3208 -0.2810 -0.4538
 4384W        W20001  14.708  12.354   0.438 -0.0285 -0.3069  0.2990
 4385W        W20002   6.606  14.456  11.518 -0.2670  0.1163 -0.2731
 4386W        W20003  11.415   9.673   4.155 -0.0841 -0.2415  0.2058
 4387W        W20004  17.078  12.696   3.375  0.1859  0.2373  0.0508
 4388W        W20005   2.136   0.439   5.571 -0.2556 -0.0534 -0.1754
 4389W        W20006  10.227  13.410   0.378 -0.1155 -0.0598  0.1770
 4390W        W20007   2.682  18.018  14.151  0.3047  0.2332  0.2005
 4391W        W20008   0.330  11.560   2.897  0.2214  0.3400 -0.0728
 4392W        W20009   9.551   0.685  16.054  0.4104 -0.1339  0.0137
 4393W        W20010  18.029   7.131   1.001  0.2893  0.0574  0.1241
 4394W        W20011  17.927   8.721   3.423 -0.3228 -0.1900 -0.0249
 4395W        W20012   6.313   4.594   3.581 -0.2298  0.0424  0.2871
 4396W        W20013  16.353   7.188   2.581 -0.2270 -0.2331 -0.2623
 4397W        W20014  12.622  17.374   2.700 -0.0683 -0.0883 -0.0686
 4398W        W20015   8.175   4.158  12.032 -0.1531  0.1149  0.0909
 4399W        W20016  11.655   0.471  14.472  0.0578  0.1186 -0.2089
 4400W        W20017   8.808  17.609  12.382 -0.0627  0.1141  0.3655
 4401W        W20018   2.761  14.198   4.410  0.2279  0.0820  0.1239
 4402W        W20019   7.599   4.042  13.466  0.2965 -0.0091  0.0177
 4403W        W20020   2.772   3.260  11.979  0.0783  0.1184 -0.1730
 4404W        W20021   5.437  16.308  11.996 -0.0798 -0.3592  0.1110
 4405W        W20022  18.186  17.460  11.536 -0.0689  0.4557  0.4200
 4406W        W20023   4.525  16.343  12.140  0.0376 -0.1671 -0.3540
 4407W        W20024  11.561  16.766   1.205  0.0911  0.0747  0.0006
 4408W        W20025  16.310   4.805  14.248  0.0124  0.0299 -0.1394
 4409W        W20026   7.862   7.611  10.605 -0.1210  0.1093 -0.1679
 4410W        W20027  17.232   1.916  15.805  0.2140  0.0200 -0.0664
 4411W        W20028   8.508  15.014   5.477  0.0323 -0.0670  0.1971
 4412W        W20029  17.234  18.288   4.823  0.1401 -0.1225 -0.0583
 4413W        W20030   4.422  11.526  12.263 -0.0115  0.1671  0.0408
 4414W        W20031   1.793  11.799  11.085  0.1276 -0.2191  0.0090
 4415W        W20032  10.194  18.260   2.849 -0.0152  0.1772 -0.4603
 4416W        W20033   3.236  12.636  12.637 -0.2259 -0.0835  0.0568
 4417W        W20034   9.316   8.941  14.342 -0.1314  0.0680 -0.1975
 4418W        W20035  10.941  13.286  13.208 -0.0666 -0.0636 -0.1951
 4419W        W20036   1.700  18.059  13.321 -0.1188  0.1276 -0.1178
 4420W        W20037  12.262   7.406  14.488 -0.0865  0.1388 -0.0989
 4421W        W20038   0.731   8.777   3.707  0.1175 -0.2177 -0.3080
 4422W        W20039  15.326   6.179   2.912 -0.0818 -0.2210 -0.1270
 4423W        W20040   9.228  10.928   3.262 -0.1423 -0.3030 -0.1943
 4424W        W20041  13.488   6.882   4.970 -0.1220 -0.0901 -0.1022
 4425W        W20042  12.056   0.850   0.309 -0.0564  0.2073  0.1529
 4426W        W20043  12.763   5.399   1.336  0.0808 -0.0216 -0.0076
 4427W        W20044   7.580  14.933  13.033  0.0961  0.1660 -0.1218
 4428W        W20045  13.022  12.615   3.444 -0.0309  0.1668 -0.4038
 4429W        W20046   8.565  15.219   2.305  0.1075  0.3960  0.0320
 4430W        W20047  11.680   9.061   4.363  0.1357  0.2452  0.0026
 4431W        W20048   3.360  11.595   3.375  0.1570  0.0584 -0.2231
 4432W        W20049  15.985  12.846  11.309 -0.1037  0.0688  0.0634
 4433W        W20050   5.400   7.364  12.222 -0.2208  0.4043  0.3434
 4434W        W20051  12.628  17.275   0.366  0.0845  0.0197  0.0534
 4435W        W20052   6.544   5.964   0.590 -0.1547 -0.1515  0.4727
 4436W        W20053  18.280  14.624  14.780 -0.2463  0.2528 -0.1575
 4437W        W20054  14.513   8.098   3.017 -0.2183  0.0736 -0.2836
 4438W        W20055   1.413  13.814   2.845  0.0720 -0.0794  0.1343
 4439W        W20056   7.170   8.900   5.577 -0.0838  0.1883  0.1681
 4440W        W20057  13.286  10.505  11.207  0.1697  0.1504  0.0596
 4441W        W20058  17.561   0.556  14.323  0.0974  0.0971 -0.0437
 4442W        W20059   4.546  15.830   0.751  0.1259  0.1181 -0.2550
 4443W        W20060  14.824   5.717  14.973 -0.0746 -0.0425 -0.2591
 4444W        W20061   6.222  13.596   0.085 -0.1363 -0.2505 -0.0816
 4445W        W20062  18.104   6.197   1.373 -0.3020  0.0608 -0.1821
 4446W        W20063   1.235   8.262   4.746  0.1829  0.0467 -0.1634
 4447W        W20064   9.049   6.338  10.653  0.1432  0.0406  0.0865
 4448W        W20065   0.510  17.239   5.686 -0.2022  0.0434  0.4074
 4449W        W20066   2.501   3.657  14.697 -0.2319 -0.0849  0.0684
 4450W        W20067  14.867   0.224   1.075 -0.3362 -0.2540  0.1822
 4451W        W20068  11.360  17.920  13.502 -0.1063 -0.0223 -0.0096
 4452W        W20069   9.393   8.770  13.210  0.2307  0.1070 -0.0168
 4453W        W20070  16.959   1.481  15.396  0.0053 -0.0013 -0.0734
 4454W        W20071  16.187  13.670  14.817  0.1791 -0.2360 -0.0417
 4455W        W20072  10.533  10.603   3.553  0.2756 -0.0776 -0.1490
 4456W        W20073   7.753  15.436  13.756 -0.0198  0.0485 -0.0679
 4457W        W20074  16.500   9.644  13.760  0.1295  0.0399 -0.3662
 4458W        W20075  10.782  15.557  15.602 -0.2036 -0.1196  0.0218
 4459W        W20076  13.701  15.777   1.204 -0.3659  0.1246 -0.0244
 4460W        W20077   1.550   5.804  10.807  0.3304  0.0554 -0.1687
 4461W        W20078   6.241  12.101  10.845  0.1670  0.2283  0.4479
 4462W        W20079   6.338   4.019  15.147  0.4137 -0.0517  0.3886
 4463W        W20080  13.565   3.301  12.941  0.1719  0.2026  0.0076
 4464W        W20081   8.586  14.426   5.561  0.2206  0.0789  0.1002
 4465W        W20082  14.891  13.682  15.354  0.1954 -0.0813  0.1062
 4466W        W20083  11.360   1.657  12.144  0.1851  0.1856  0.2888
 4467W        W20084   5.229   5.395   1.159 -0.0723  0.1485 -0.1394
 4468W        W20085  10.279   2.520  12.640 -0.0811  0.1017 -0.1410
 4469W        W20086   9.534  15.207   6.231  0.1333  0.0149  0.2318
 4470W        W20087   6.142   8.812  11.320 -0.0564 -0.3169  0.2165
 4471W        W20088   3.055   7.265  12.601  0.1438 -0.0401 -0.1242
 4472W        W20089   4.929   7.343   3.840  0.4899  0.2058  0.3808
 4473W        W20090   1.083  18.121  13.939  0.1406 -0.3593 -0.2001
 4474W        W20091  16.629   0.837  11.311  0.0047 -0.1293 -0.3103
 4475W        W20092   6.803  13.692  15.452 -0.0034  0.0930  0.2613
 4476W        W20093   9.242  15.488  14.602 -0.0941  0.1260 -0.0229
 4477W        W20094   4.913   5.275   0.124  0.1332 -0.2759 -0.3573
 4478W        W20095   2.025   3.152   2.675 -0.0928  0.1594  0.0005
 4479W        W20096  11.646  17.496  11.942  0.0354 -0.0073  0.0366
 4480W        W20097   7.766  10.773   0.591 -0.0709  0.1294  0.0595
 4481W        W20098   8.087   2.048  12.554  0.3418  0.2045 -0.2050
 4482W        W20099   5.685  14.830  13.678  0.0553  0.2719  0.0166
 4483W        W20100   2.246   0.660   5.106 -0.2369  0.1078 -0.5279
 4484W        W20101   9.294  14.167   4.297 -0.0280  0.0469 -0.2406
 4485W        W20102   3.140  12.331  14.798 -0.3241 -0.3615  0.1825
 4486W        W20103   5.744   0.924   3.817 -0.2685 -0.1581 -0.0500
 4487W        W20104  11.895   1.874   2.984  0.0873  0.0375 -0.3515
 4488W        W20105  12.531   7.574   3.195  0.0696  0.2478 -0.0754
 4489W        W20106   3.719   3.063  13.650 -0.1883 -0.1227 -0.0777
 4490W        W20107   6.723   6.940  12.590  0.3034 -0.1425 -0.0988
 4491W        W20108   0.612   5.912   1.136 -0.1182  0.1999  0.2571
 4492W        W20109  13.305  15.891  10.920  0.0954 -0.2123 -0.3340
 4493W        W20110   8.123  17.780   2.915  0.1126 -0.1243 -0.0208
 4494W        W20111   8.516  11.895  12.900 -0.0848  0.1792  0.2361
 4495W        W20112  12.182  17.029   1.827  0.0449 -0.1597  0.1443
 4496W        W20113  10.715  13.879   1.507 -0.1589  0.2662  0.1541
 4497W        W20114  10.936   3.812  13.785 -0.3264  0.0336 -0.0355
 4498W        W20115   6.984  11.987   4.157 -0.1719 -0.0515 -0.0973
 4499W        W20116   6.507  14.600   2.947 -0.3203 -0.3465  0.2465
 4500W        W20117  17.186  13.370   3.052 -0.2248  0.2356  0.0235
 4501W        W20118   4.385  12.908   4.057 -0.2367 -0.2507 -0.0245
 4502W        W20119   0.422  15.156   4.600 -0.0228 -0.0546  0.0674
 4503W        W20120  15.956   1.527   3.126 -0.2371  0.3042  0.0516
 4504W        W20121   4.044  13.189  15.615  0.2369 -0.4629 -0.2745
 4505W        W20122  12.377   7.010  15.448 -0.1018 -0.1230  0.2926
 4506W        W20123   7.974   7.069  10.698 -0.1747  0.2458  0.3590
 4507W        W20124   5.474   3.799  16.033  0.1054  0.4250 -0.0164
 4508W        W20125  12.451  10.856  13.423 -0.0050 -0.1598 -0.2107
 4509W        W20126  14.044  14.508   5.083 -0.1595 -0.0774  0.0668
 4510W        W20127  10.930  18.277   5.245 -0.2657 -0.0673 -0.0839
 4511W        W20128   8.077  15.923  14.322 -0.0066 -0.1501  0.0560
 4512W        W20129   3.527   1.673  11.942  0.2628  0.0622  0.1469
 4513W        W20130  11.016  10.917   5.811  0.1800  0.0888  0.3478
 4514W        W20131   0.574  18.348   3.037  0.1349  0.1442  0.2602
 4515W        W20132  15.504   7.109  15.400 -0.0113  0.2725  0.5639
 4516W        W20133   8.626   3.573   1.813  0.1113  0.1213 -0.4736
 4517W        W20134  17.496  12.990  12.788 -0.0064  0.0154 -0.2901
 4518W        W20135  14.157  16.181  11.074  0.2975 -0.1240  0.2470
 4519W        W20136   2.117  14.375   3.029  0.0072  0.3374  0.1071
 4520W        W20137  10.949  15.362  11.369  0.1673  0.2370 -0.1915
 4521W        W20138   8.284  12.100   2.621  0.2401 -0.1067 -0.0608
 4522W        W20139   4.882   7.076   3.422  0.2974 -0.2107  0.1068
 4523W        W20140   3.072  10.857   5.723  0.0561 -0.0109  0.2316
 4524W        W20141  13.894   5.312  15.539  0.1551  0.1838 -0.1160
 4525W        W20142  10.293  14.315  14.160  0.4340  0.2363 -0.4189
 4526W        W20143  18.220  10.969   4.810  0.1819  0.0070  0.2224
 4527W        W20144   0.880   8.889  10.787 -0.0471 -0.1732 -0.4921
 4528W        W20145   7.274  18.003   2.892 -0.2286 -0.1161 -0.0193
 4529W        W20146   4.773   6.852  12.156 -0.1616  0.0634 -0.0946
 4530W        W20147   1.131  12.481   5.765 -0.2115  0.0286  0.0617
 4531W        W20148  12.014  12.938  15.915 -0.1024 -0.0561  0.0418
 4532W        W20149   3.131   9.443   2.710 -0.0306 -0.2876  0.1830
 4533W        W20150   4.474  13.359   4.343  0.4072  0.2392  0.1029
 4534W        W20151   7.083  12.070  12.916 -0.0686 -0.0049 -0.2039
 4535W        W20152  12.392  11.372  12.177 -0.2078  0.1606  0.0018
 4536W        W20153  16.233   3.144  13.794  0.1296  0.2745 -0.3022
 4537W        W20154  18.354   1.626  13.789 -0.0135  0.2871  0.3095
 4538W        W20155   8.273   8.960   2.210  0.2365  0.1942 -0.2630
 4539W        W20156   2.354   2.974  10.749 -0.1958  0.3663 -0.1436
 4540W        W20157   3.956   9.510   3.082  0.2060 -0.1273 -0.1953
 4541W        W20158  10.725   5.415   1.038  0.0767 -0.0130 -0.1371
 4542W        W20159   4.792  10.295  15.482  0.0605  0.2535  0.3915
 4543W        W20160  17.104   8.682  12.418  0.0971 -0.0214  0.0397
 4544W        W20161   8.188  13.376  13.784 -0.0409 -0.0752 -0.0873
 4545W        W20162   5.443   3.441   4.197 -0.4499 -0.0070  0.1586
 4546W        W20163  14.754   2.583  11.937 -0.0050 -0.5120 -0.0262
 4547W        W20164  13.786   6.059  15.402  0.0840 -0.0891  0.0900
 4548W        W20165   0.812  15.451   2.675  0.0509 -0.1661  0.0957
 4549W        W20166  13.190   7.153   1.822  0.0320  0.0788  0.0182
 4550W        W20167  14.280  12.497  15.608  0.0658  0.1249 -0.0919
 4551W        W20168  17.132   3.238   3.404 -0.0890 -0.0136  0.2337
 4552W        W20169  12.174   4.843  15.251  0.0766 -0.0857 -0.3924
 4553W        W20170  17.973  13.770   3.103  0.2277 -0.0482 -0.2291
 4554W        W20171  13.546  10.658   4.911 -0.1892  0.0663  0.1072
 4555W        W20172   7.059   0.580  13.173 -0.1727 -0.0027  0.0487
 4556W        W20173   4.655  16.759   5.320  0.0778  0.1846 -0.1422
 4557W        W20174   0.456  14.538   4.935  0.1797  0.1169  0.0611
 4558W        W20175   4.077   9.110   2.768  0.0946 -0.0594 -0.1500
 4559W        W20176  14.191  14.960   1.347 -0.2159 -0.0029 -0.2010
 4560W        W20177   8.635  11.001   0.037  0.0805  0.0190  0.0178
 4561W        W20178   8.471  15.258   0.119  0.1226  0.0024 -0.3592
 4562W        W20179  18.400   8.505  15.496  0.1934 -0.1205  0.1197
 4563W        W20180  12.667  13.815   5.275 -0.3357  0.0754 -0.1629
 4564W        W20181  17.081   0.034   0.955  0.0075 -0.0524 -0.4275
 4565W        W20182  13.776   5.661   3.118 -0.0850 -0.1448  0.2871
 4566W        W20183  12.785  16.572   3.706  0.2083 -0.3567  0.4975
 4567W        W20184   5.371   5.847  10.204 -0.2744 -0.0813  0.3247
 4568W        W20185  13.731   1.074  11.232  0.2307  0.0535 -0.0697
 4569W        W20186  15.795   1.974   1.173 -0.0509 -0.1593 -0.0257
 4570W        W20187   4.402   0.112   3.872  0.2146  0.1007  0.0827
 4571W        W20188  14.591   0.176  12.871 -0.1172  0.0735  0.1176
 4572W        W20189   8.443  15.816  13.511 -0.0366  0.0322  0.0375
 4573W        W20190  15.608   9.912  12.373  0.2057 -0.3504  0.0206
 4574W        W20191  18.388  10.289  14.885 -0.1714 -0.1826  0.1852
 4575W        W20192  11.087   2.128   1.365 -0.1207  0.0003  0.1689
 4576W        W20193  11.010   3.101  12.298 -0.0526 -0.2095 -0.0327
 4577W        W20194   6.821   2.483   0.394  0.2470 -0.1768 -0.2496
 4578W        W20195   1.261   0.609   0.934  0.2847 -0.1384 -0.0404
 4579W        W20196   8.280   0.240   2.907 -0.0249  0.0330  0.0278
 4580W        W20197   6.921   6.096   2.125  0.3513 -0.1544 -0.0071
 4581W        W20198   4.628  15.974   5.858  0.2549  0.0353  0.1089
 4582W        W20199  12.686  11.710   3.103 -0.2109 -0.0017 -0.1139
 4583W        W20200   6.389  15.738  15.299 -0.2903 -0.3801  0.0853
 4584W        W20201  10.077  15.203  15.051  0.2845  0.1257 -0.1944
 4585W        W20202   9.897   2.433   1.225 -0.3466  0.2701 -0.1180
 4586W        W20203  17.445   2.977  14.874 -0.0326 -0.1371 -0.0134
 4587W        W20204   5.163  10.638  12.116 -0.1735 -0.1809  0.0560
 4588W        W20205  18.278   2.684   5.551  0.1644  0.0654  0.2410
 4589W        W20206  18.440  11.719  14.193  0.3269  0.0812  0.0023
 4590W        W20207  12.405   1.830   4.163  0.1265  0.3427 -0.0137
 4591W        W20208   0.883  17.608   3.835 -0.3922 -0.0699 -0.2498
 4592W        W20209   2.054   1.736  15.874 -0.0280  0.2834 -0.1907
 4593W        W20210   4.597  14.102   0.925 -0.1746 -0.0522  0.0419
 4594W        W20211   2.032   5.641  11.710 -0.2570 -0.2200 -0.2624
 4595W        W20212  14.068  15.540  15.518  0.0935  0.3084 -0.2316
 4596W        W20213  18.384   0.472   0.243  0.3121 -0.1854 -0.1273
 4597W        W20214   6.633   0.031   1.426 -0.4060  0.1856  0.1049
 4598W        W20215   2.836   9.841  15.813  0.3359  0.1020  0.3632
 4599W        W20216  13.702  16.347   5.730  0.0398 -0.2949 -0.1480
 4600W        W20217  15.654  11.687   4.261  0.0810 -0.0422 -0.1223
 4601W        W20218  16.105  13.594   4.607  0.1142  0.0451  0.0684
 4602W        W20219  17.695   1.525   1.856 -0.0573 -0.0510 -0.0290
 4603W        W20220  16.405   0.665   3.561 -0.0205 -0.0073 -0.3036
 4604W        W20221  15.749   7.848  14.284  0.0728 -0.2089  0.4140
 4605W        W20222   8.701  18.059  15.157  0.1497  0.1717  0.3849
 4606W        W20223   4.012  12.905  15.004  0.2125 -0.1951  0.3642
 4607W        W20224  12.055   0.834   4.034  0.1232  0.1392 -0.1982
 4608W        W20225   4.063   0.030   3.396  0.2288 -0.0768 -0.1501
 4609W        W20226   7.093   4.391  12.179 -0.0229 -0.0348  0.0189
 4610W        W20227  14.930   0.299   6.118  0.3147  0.1881 -0.3889
 4611W        W20228  15.612  11.149  11.661  0.3691 -0.0439  0.1659
 4612W        W20229  10.379  12.308   4.878  0.0095 -0.2849 -0.0856
 4613W        W20230  10.973  11.947   4.081 -0.0034 -0.1100 -0.2427
 4614W        W20231  17.615  17.236  13.178  0.0506  0.0242 -0.1085
 4615W        W20232   0.193  12.580   4.061  0.2621 -0.1259  0.2797
 4616W        W20233   5.836  15.912  15.362  0.5068  0.0329  0.0423
 4617W        W20234   2.875   9.026   1.271  0.0248 -0.1629 -0.0540
 4618W        W20235   7.050  11.500   4.194  0.3106  0.0371 -0.0303
 4619W        W20236   4.084  12.897  13.539  0.3495 -0.0808 -0.0492
 4620W        W20237  15.794  10.010  15.455 -0.0504  0.1083  0.0035
 4621W        W20238   7.041   6.943  14.432  0.0839 -0.0899  0.0303
 4622W        W20239  15.143   9.792   5.826  0.1155 -0.2151  0.0702
 4623W        W20240   8.283   5.757  15.137 -0.1976 -0.1103  0.0486
 4624W        W20241   1.742  17.709   2.635 -0.0337 -0.1201  0.2141
 4625W        W20242   4.517  12.303  12.358 -0.0188  0.1900  0.3261
 4626W        W20243   3.292  10.135   4.513  0.1890 -0.2899 -0.0309
 4627W        W20244  11.726  14.377   3.029  0.2609  0.2733 -0.0875
 4628W        W20245   0.577   2.657   2.256 -0.2952 -0.1958 -0.0322
 4629W        W20246   3.665  13.968  16.063  0.0369 -0.3014  0.1552
 4630W        W20247   7.197  16.349  12.825 -0.1639 -0.1317  0.2123
 4631W        W20248   0.135  15.596  13.138 -0.1421 -0.1569  0.2971
 4632W        W20249   7.693  17.101  14.174  0.0965  0.3873 -0.1974
 4633W        W20250   4.175   1.480   1.146  0.0179  0.1149  0.1922
 4634W        W20251  16.549   4.484  15.117  0.2402  0.1611 -0.0456
 4635W        W20252  15.747  12.190   1.742 -0.1979 -0.0883  0.0178
 4636W        W20253   4.916  10.802  13.575 -0.0526 -0.0382 -0.2948
 4637W        W20254   1.886   1.669   0.197  0.2640 -0.2748 -0.0231
 4638W        W20255  18.261   5.854  12.701  0.2660 -0.1053  0.3272
 4639W        W20256   7.148  15.350   2.769  0.0838  0.3873 -0.1323
 4640W        W20257  17.736   4.708   5.846 -0.2116  0.0847  0.1330
 4641W        W20258  13.976   1.365  10.882  0.4070  0.0479  0.0887
 4642W        W20259  14.902  17.936   0.686  0.0712  0.1693  0.1514
 4643W        W20260   3.166   7.511  12.089 -0.1145  0.0930  0.1232
 4644W        W20261   3.271  10.555   3.386  0.2956 -0.2169 -0.5161
 4645W        W20262   2.768  10.541  14.393  0.0234  0.0645  0.1432
 4646W        W20263   2.682   5.157  13.742 -0.1841 -0.1997 -0.0908
 4647W        W20264  15.974   1.390  15.436  0.0846 -0.0621 -0.0851
 4648W        W20265   6.950   8.312  13.397  0.3037 -0.2447  0.1929
 4649W        W20266   6.814  13.827   1.571 -0.1870 -0.2552 -0.1459
 4650W        W20267  12.675  12.249  10.894 -0.1058 -0.1692 -0.1859
 4651W        W20268  15.629   0.601  11.263 -0.2325  0.1707  0.1655
 4652W        W20269   0.246  15.731   4.905 -0.3238  0.0146 -0.0220
 4653W        W20270   4.857  13.257   5.747 -0.1741 -0.1936  0.1896
 4654W        W20271   4.159   8.477  15.476 -0.1422  0.1401  0.1489
 4655W        W20272  14.834   5.340   2.931 -0.1661 -0.1477  0.1490
 4656W        W20273   0.598  17.375  13.711 -0.0780 -0.3418  0.1209
 4657W        W20274   4.003   3.071   5.340  0.4724 -0.2395 -0.1448
 4658W        W20275  10.920   4.965  14.446 -0.0551 -0.0175 -0.0166
 4659W        W20276   4.333   6.717  15.123 -0.2053 -0.2970  0.1810
 4660W        W20277   8.247  14.180  14.804 -0.0919  0.2428 -0.1406
 4661W        W20278   2.343   9.611   0.695 -0.2532  0.0779 -0.0826
 4662W        W20279   8.652  10.670  10.696  0.0119 -0.1890  0.1740
 4663W        W20280   3.881  15.523  15.292 -0.4511 -0.3082  0.0952
 4664W        W20281   3.736  10.344   0.046  0.3836 -0.0090  0.1230
 4665W        W20282   5.230  14.158  14.893 -0.3631 -0.2119 -0.0204
 4666W        W20283  17.925  15.505  10.886 -0.0358  0.1988 -0.0286
 4667W        W20284   1.770   3.070  13.124 -0.1950  0.3497  0.2179
 4668W        W20285   3.415  11.837   0.582 -0.1814  0.2572  0.3455
 4669W        W20286   6.600  10.981   2.432  0.2267 -0.1993  0.0187
 4670W        W20287  17.171   6.341   1.835  0.2219  0.2164  0.2211
 4671W        W20288   7.690  16.920  12.574 -0.2025  0.1117  0.1199
 4672W        W20289   1.244   9.568   2.741 -0.1797  0.0990  0.2463
 4673W        W20290   2.377   4.539   0.152  0.1831  0.1682 -0.1199
 4674W        W20291   8.443   7.874  15.531 -0.2371  0.1129 -0.1921
 4675W        W20292   8.128   8.527  14.407  0.0913 -0.1130  0.0738
 4676W        W20293  14.759   4.186  15.593  0.1952  0.3330  0.1010
 4677W        W20294   6.408   6.297  15.798  0.0053 -0.0339  0.2770
 4678W        W20295   6.985  15.801  13.821  0.3745  0.0141 -0.1388
 4679W        W20296   8.993   7.921  12.488 -0.0277  0.1466  0.0492
 4680W        W20297   6.834   7.020   0.190 -0.1109 -0.1117  0.0115
 4681W        W20298  15.944  16.528  13.853  0.1239 -0.0019 -0.1465
 4682W        W20299  16.738   7.800  15.870 -0.0085 -0.1042  0.2807
 4683W        W20300   1.948  18.350  14.554  0.1821  0.0537  0.0609
 4684W        W20301  13.408  13.463  11.707  0.0921  0.3410 -0.1356
 4685W        W20302   5.819   4.869   5.133 -0.0449  0.0652 -0.1250
 4686W        W20303  12.413   9.184  14.898 -0.1215  0.0065 -0.1568
 4687W        W20304   8.737  13.012   5.182  0.0104 -0.0534  0.4272
 4688W        W20305  12.936  13.308   1.288  0.4220  0.1322  0.0714
 4689W        W20306  14.326   5.718   4.218  0.1607 -0.0206 -0.0803
 4690W        W20307  13.123   7.656  12.695 -0.2738 -0.3708  0.1967
 4691W        W20308  13.388  14.387  12.025 -0.0758  0.4182  0.0540
 4692W        W20309   6.558  16.339  11.949 -0.2510  0.1937  0.0564
 4693W        W20310  14.924  16.241  11.904  0.2074 -0.3180  0.1093
 4694W        W20311  18.406   1.917   4.265 -0.0306  0.0527 -0.2177
 4695W        W20312   3.951   4.517  11.781 -0.3562 -0.0879  0.4667
 4696W        W20313  12.619  11.543  10.418 -0.1241 -0.0458  0.3585
 4697W        W20314  13.162   3.507  14.147 -0.2043  0.2254 -0.3519
 4698W        W20315  17.145   7.712   5.527 -0.1190 -0.3540 -0.1045
 4699W        W20316   5.197  11.039  14.533  0.4220  0.1294  0.0031
 4700W        W20317   9.592   9.917   4.964 -0.4000  0.1567  0.1248
 4701W        W20318  14.777   5.493  14.560 -0.0923  0.3869 -0.0381
 4702W        W20319   7.680   7.347   0.910 -0.0244 -0.1001 -0.1314
 4703W        W20320   1.319  16.586  12.110 -0.0102 -0.0279 -0.0230
 4704W        W20321   6.787  12.810  14.147  0.0672  0.1680 -0.4617
 4705W        W20322  16.383   1.968   0.584 -0.2877  0.0458  0.0258
 4706W        W20323  11.726   9.638  14.560  0.0822 -0.3691 -0.2126
 4707W        W20324  14.058   9.942  12.915  0.1360  0.4840 -0.0872
 4708W        W20325   4.776   3.433  15.157  0.1123 -0.2012  0.1255
 4709W        W20326   5.979   6.861  11.723  0.4990 -0.1564  0.0546
 4710W        W20327  13.570   9.050  11.900  0.0810 -0.1253 -0.2167
 4711W        W20328  13.200  13.075  11.970 -0.2058 -0.0141 -0.1237
 4712W        W20329   8.229  11.676   1.235  0.4903  0.0613 -0.1210
 4713W        W20330   7.128   3.023  11.906 -0.3605  0.0377 -0.1994
 4714W        W20331   8.058  11.305  13.636  0.1720 -0.0695 -0.1741
 4715W        W20332   1.740  10.130   0.761 -0.4459  0.0350  0.2575
 4716W        W20333  13.349   9.184   2.251  0.1540 -0.0066 -0.0719
 4717W        W20334  17.774   0.050  15.399  0.1471  0.1254 -0.0801
 4718W        W20335   4.467   2.696  14.621 -0.1578 -0.2621  0.1631
 4719W        W20336   8.339  13.340  15.554  0.1200 -0.1876 -0.0012
 4720W        W20337  11.939  14.058   4.406  0.0786 -0.1786  0.0673
 4721W        W20338  10.690   8.664  13.669 -0.0688 -0.2372  0.0736
 4722W        W20339   3.263   5.173   0.902 -0.1470 -0.1393  0.0507
 4723W        W20340   3.102   8.299  11.295  0.0115  0.2389  0.1067
 4724W        W20341   2.077  10.309  13.702  0.3222 -0.1275  0.0949
 4725W        W20342   4.213  18.185   1.109 -0.2647 -0.2664 -0.1788
 4726W        W20343  14.480   9.728  13.074 -0.1255  0.1624  0.2694
 4727W        W20344  16.094  16.871   4.180 -0.1193 -0.0120  0.1031
 4728W        W20345  12.890   9.931  15.532 -0.0164 -0.5271  0.2322
 4729W        W20346   3.575  10.929   1.633  0.0397 -0.0458 -0.1701
 4730W        W20347  13.574  12.710   2.395 -0.0156  0.1283 -0.1808
 4731W        W20348   3.805  11.818   1.397  0.0381  0.0352 -0.0757
 4732W        W20349   8.136  14.843   5.165 -0.1025 -0.2236 -0.1053
 4733W        W20350  11.609   5.457  13.486 -0.1385 -0.1969  0.1015
 4734W        W20351   6.302  16.490   2.723  0.1986 -0.2052  0.3849
 4735W        W20352  12.236  16.183   1.296 -0.2670 -0.2306 -0.3995
 4736W        W20353   1.802   4.489  15.358  0.1926  0.0438 -0.2808
 4737W        W20354  17.919   5.590  12.078  0.1537 -0.0167 -0.0452
 4738W        W20355  10.976   6.957  11.065 -0.0111 -0.2489  0.2502
 4739W        W20356  14.901   4.401  12.901  0.2721 -0.0987 -0.0389
 4740W        W20357   7.251  17.646   4.177  0.1104 -0.0869  0.4247
 4741W        W20358  12.767   3.290  15.826 -0.0796  0.0241 -0.1491
 4742W        W20359   9.224   8.113  15.053  0.0761 -0.0388 -0.1961
 4743W        W20360  18.034   0.474  14.653  0.1599 -0.1739  0.0445
 4744W        W20361  16.294   8.974   2.875 -0.2030  0.0915 -0.0767
 4745W        W20362   8.959   7.331  10.647  0.1336  0.1153 -0.0391
 4746W        W20363   3.367   3.420   4.228 -0.0407 -0.1137  0.0818
 4747W        W20364  17.151  16.785  11.760  0.0942  0.2411  0.1336
 4748W        W20365   4.717  16.040  11.769  0.1030 -0.1203 -0.1438
 4749W        W20366   4.628  13.192  13.247  0.0555  0.1104  0.1700
 4750W        W20367   6.493   5.115   4.672 -0.2392 -0.1733  0.1632
 4751W        W20368   0.514   3.291   1.033  0.1501  0.0183 -0.2156
 4752W        W20369  18.273  12.286   3.577  0.1923  0.0130  0.0820
 4753W        W20370   8.238   7.405  15.790  0.1023 -0.0029 -0.0031
 4754W        W20371  18.376  16.752   3.121 -0.2970  0.1409  0.0855
 4755W        W20372   0.408  13.651  12.319 -0.0862 -0.2631  0.0827
 4756W        W20373   2.608  12.121  12.562  0.1176 -0.1582 -0.0948
 4757W        W20374  17.297   7.125   4.303 -0.1046  0.1252  0.4390
 4758W        W20375  10.136   1.195  13.567 -0.0516 -0.1037 -0.3689
 4759W        W20376   7.966   5.634  14.365  0.2855  0.0318  0.2832
 4760W        W20377  18.327   2.614  15.686  0.0719  0.3370 -0.1188
 4761W        W20378  14.794  13.957   3.428  0.5002 -0.2732 -0.2309
 4762W        W20379   1.790   6.509   2.177 -0.0785 -0.0888  0.2832
 4763W        W20380  15.339  15.689  12.798  0.1011 -0.2567 -0.0171
 4764W        W20381   0.952   4.316   0.253  0.1212  0.3283  0.1506
 4765W        W20382   2.661   0.305   2.506  0.0168 -0.1970  0.0703
 4766W        W20383   5.869   4.798  15.192  0.2457  0.0812 -0.1902
 4767W        W20384   4.481  17.863   2.034  0.0111  0.1540 -0.1175
 4768W        W20385  13.892  13.592  13.800 -0.2741  0.4259 -0.0790
 4769W        W20386   4.702  10.757  11.424  0.0573  0.1467 -0.0881
 4770W        W20387  16.186   5.720  13.879 -0.2860 -0.0259 -0.1406
 4771W        W20388  14.594   2.918  15.248  0.0750 -0.1793 -0.2649
 4772W        W20389  12.385   5.808   1.302  0.0467  0.0406 -0.2215
 4773W        W20390  10.792  11.161   5.302  0.5488  0.0794 -0.3934
 4774W        W20391  12.183  13.761   2.579 -0.0462  0.1123  0.1763
 4775W        W20392  14.118   0.602  11.259 -0.0259 -0.0508 -0.0403
 4776W        W20393  17.361   3.913   2.402 -0.0159  0.0626  0.2180
 4777W        W20394   3.796  16.056   2.404 -0.0139  0.1603  0.0719
 4778W        W20395   1.150  12.607  16.139  0.0788 -0.1769  0.0014
 4779W        W20396   1.266   3.321   1.786  0.1496  0.0229  0.1849
 4780W        W20397   5.851  16.517  13.355 -0.5189 -0.0642 -0.1719
 4781W        W20398   7.708   9.837   5.412  0.2930  0.0748  0.0722
 4782W        W20399   4.350  11.943  11.771  0.0762 -0.0204  0.1503
 4783W        W20400  17.114  10.733   2.318  0.3130 -0.1747  0.0117
 4784W        W20401   4.487   7.794  16.024  0.2043  0.2065  0.1441
 4785W        W20402  17.955  17.032  15.121 -0.2380  0.3195 -0.0873
 4786W        W20403   1.548   1.771  11.646 -0.0927  0.2507  0.1569
 4787W        W20404  12.022  18.069   0.544  0.0943 -0.0857  0.2151
 4788W        W20405  17.959  12.911  12.674 -0.0185  0.1758  0.1554
 4789W        W20406   5.098  15.186   6.297 -0.1396  0.1292  0.0197
 4790W        W20407  10.092  15.693   3.199  0.0592  0.0818 -0.2790
 4791W        W20408  16.906   6.716   5.464 -0.0574  0.1300 -0.0698
 4792W        W20409  11.138   7.190   2.233  0.0850  0.3539 -0.0213
 4793W        W20410   4.356   4.596   4.235 -0.0889  0.0891 -0.3106
 4794W        W20411   0.804  11.162   1.074 -0.0021  0.1455 -0.3324
 4795W        W20412  11.081  14.190   1.393  0.1604  0.1157  0.4385
 4796W        W20413   4.378   6.302  14.727 -0.1760  0.1144  0.0609
 4797W        W20414   5.287  15.756  10.780 -0.1206 -0.1667  0.1450
 4798W        W20415   0.447   7.165  13.256 -0.2608 -0.1665  0.2392
 4799W        W20416  16.943  14.757  13.016  0.1838  0.2221 -0.2963
 4800W        W20417   0.335   2.482   2.626 -0.2345  0.2361 -0.1245
 4801W        W20418   3.366  11.261  14.855  0.0262 -0.0936 -0.0736
 4802W        W20419   5.432   5.983  12.036  0.0754  0.1095 -0.0463
 4803W        W20420   6.781  17.813  11.976 -0.3086 -0.0222 -0.1631
 4804W        W20421   8.117   6.171   4.186 -0.0574 -0.1337  0.1755
 4805W        W20422  10.901   4.114  10.608  0.0580 -0.0889  0.2027
 4806W        W20423  14.023   5.627   3.634  0.1375  0.2986  0.0943
 4807W        W20424  16.256  17.341  11.788 -0.3468  0.0024 -0.0559
 4808W        W20425   0.793   6.206   0.318 -0.2915  0.1852  0.3026
 4809W        W20426  17.125   1.120  11.217 -0.2980 -0.3443  0.1945
 4810W        W20427   5.379   2.637  12.412 -0.1605  0.0032 -0.0806
 4811W        W20428  10.138   3.625  15.591 -0.0220 -0.0223 -0.0012
 4812W        W20429  12.411   6.913  11.315 -0.0203 -0.1750 -0.1234
 4813W        W20430   9.494  15.223  12.305 -0.2311  0.0775 -0.0209
 4814W        W20431   7.721  18.097   4.939  0.3291 -0.1762  0.1089
 4815W        W20432  12.526   4.743  15.596 -0.1914 -0.0169 -0.2186
 4816W        W20433  11.730   5.792   1.733 -0.3074 -0.0200  0.0612
 4817W        W20434  14.509  10.536  11.851 -0.0689  0.1481 -0.1211
 4818W        W20435   4.187  12.452   0.619  0.1293  0.2223 -0.1560
 4819W        W20436   4.099   4.715  10.800  0.1455  0.1027  0.2752
 4820W        W20437  18.319  14.971  13.568 -0.3119  0.0107 -0.0626
 4821W        W20438   5.726   6.952  10.737 -0.0975  0.0571  0.2648
 4822W        W20439  14.652   8.956   2.805  0.2788 -0.1276  0.0626
 4823W        W20440  11.373  15.162  12.504  0.0649 -0.0713 -0.0652
 4824W        W20441   1.224  11.857   1.163  0.1743 -0.1891 -0.2128
 4825W        W20442  10.896   2.555  12.324 -0.0750 -0.0229 -0.1448
 4826W        W20443  11.595  11.069  13.134 -0.0078 -0.0383  0.0214
 4827W        W20444   5.841  17.670  11.566  0.0366  0.2090  0.2470
 4828W        W20445  12.328   2.518   3.475 -0.1428 -0.0131  0.2239
 4829W        W20446  12.367  17.040  12.959  0.2052  0.0204 -0.0606
 4830W        W20447   5.561  14.443  12.301  0.2425 -0.2761  0.1026
 4831W        W20448   6.990   6.006   1.113  0.1869  0.1708 -0.0690
 4832W        W20449   5.945  13.454  15.095 -0.4666 -0.1267  0.0435
 4833W        W20450   7.452  12.983   4.216 -0.0118  0.1044 -0.1583
 4834W        W20451   8.189  16.774   4.359  0.3260 -0.2937 -0.1985
 4835W        W20452  17.733   3.099  13.304  0.5062 -0.2797 -0.1333
 4836W        W20453  12.687   0.362  14.411  0.0265  0.2611  0.0970
 4837W        W20454   1.618   0.137  13.187  0.0320 -0.2273 -0.1760
 4838W        W20455   4.580  14.828  12.512  0.0474  0.0246 -0.5377
 4839W        W20456   0.041   2.342   1.556 -0.1218 -0.3054  0.1046
 4840W        W20457  16.319  14.958  11.409  0.0347  0.0131 -0.0658
 4841W        W20458  16.594  11.442   2.426  0.0896 -0.0350  0.3793
 4842W        W20459   5.888   3.911  10.363 -0.0663 -0.2558 -0.0914
 4843W        W20460   2.688   3.698   1.409  0.0273 -0.1801 -0.0494
 4844W        W20461   7.672   4.150  11.869  0.2846  0.2391  0.0874
 4845W        W20462  18.443   0.253  14.581 -0.0844  0.0312 -0.1932
 4846W        W20463  17.348  17.440   1.331 -0.2276  0.1719 -0.1042
 4847W        W20464   2.038  10.330   1.975 -0.0389 -0.3303 -0.2138
 4848W        W20465  13.717  11.262   0.793  0.0727 -0.1493  0.1793
 4849W        W20466  12.555  13.639   6.462  0.3765 -0.0690  0.3390
 4850W        W20467  15.299  12.262   2.587 -0.0803  0.0298 -0.2501
 4851W        W20468   2.419   1.940   4.781 -0.1015  0.1819  0.2027
 4852W        W20469  16.409   2.473  16.095 -0.2643 -0.1392  0.1034
 4853W        W20470  11.395  17.030   2.548  0.3175 -0.0970 -0.0709
 4854W        W20471  13.852   4.225   0.765  0.2367 -0.0832 -0.0960
 4855W        W20472  15.574   0.075   0.368 -0.0164 -0.3708  0.0883
 4856W        W20473   0.847  11.885  13.674  0.0744 -0.2229  0.1345
 4857W        W20474   9.313  12.791   3.633 -0.4442 -0.0921 -0.1224
 4858W        W20475   7.727   5.494  12.631  0.0802 -0.2179 -0.3761
 4859W        W20476  15.314   1.680   4.696 -0.2260 -0.2877  0.0030
 4860W        W20477  16.911  12.801   1.734 -0.1826 -0.2725 -0.1688
 4861W        W20478  14.825  13.020   4.323 -0.2314  0.1869 -0.4235
 4862W        W20479  13.447   6.363  10.560  0.0967 -0.2570 -0.1328
 4863W        W20480  11.766  10.256   0.073  0.1786 -0.5812  0.0354
 4864W        W20481   7.407  15.818  13.579  0.1441 -0.1492 -0.1940
 4865W        W20482   0.015   9.358   4.228 -0.1667  0.1640  0.0038
 4866W        W20483  14.242  14.309   4.310 -0.1550  0.1600 -0.0702
 4867W        W20484   1.651   3.491  14.499 -0.0685  0.1923 -0.4896
 4868W        W20485  13.401   6.473   2.452  0.1157  0.1785  0.0363
 4869W        W20486  15.553   0.976   1.491 -0.0351 -0.1088  0.0132
 4870W        W20487  10.679   9.370   1.260  0.0893  0.1117 -0.1750
 4871W        W20488   4.017  13.173   4.292  0.3149 -0.2080  0.0548
 4872W        W20489  12.358  10.609   4.628  0.1240  0.1012 -0.1897
 4873W        W20490  13.730  15.506   2.561 -0.0040  0.0545 -0.1862
 4874W        W20491   4.337  16.642  13.493 -0.0406  0.0257 -0.0497
 4875W        W20492   0.776   2.313   0.903  0.2550  0.0070 -0.0073
 4876W        W20493  17.480   9.662  16.059  0.0505  0.0243  0.4334
 4877W        W20494   4.498   8.091  10.929 -0.0439 -0.1119  0.0673
 4878W        W20495   4.841   6.321   2.184  0.0395 -0.1221  0.0015
 4879W        W20496   5.274  16.958   2.733 -0.0868 -0.0316 -0.3886
 4880W        W20497   8.017  10.433   2.930 -0.3769 -0.2543 -0.1911
 4881W        W20498  12.399   6.498  12.288 -0.0254 -0.0672  0.0386
 4882W        W20499   8.934   0.760   4.292  0.0765 -0.3232  0.2483
 4883W        W20500  13.208   6.157   0.297  0.0859 -0.0405  0.0531
 4884W        W20501  11.814   8.537  15.694 -0.0636  0.0286 -0.1078
 4885W        W20502   9.069   2.782   5.693 -0.0537 -0.1669 -0.1825
 4886W        W20503   2.880  16.074   0.592  0.0883 -0.1097  0.0522
 4887W        W20504  11.803  18.094  15.276 -0.1960  0.1105 -0.0970
 4888W        W20505   5.976  16.665   5.722 -0.3106  0.1574 -0.3411
 4889W        W20506   4.008  13.685  14.579 -0.2300  0.0847 -0.0453
 4890W        W20507   6.230  18.423  15.157 -0.0675  0.2323 -0.0682
 4891W        W20508   3.250   3.769   1.957  0.1955 -0.2036 -0.0260
 4892W        W20509   1.015   1.079   3.445 -0.3553 -0.2587 -0.0912
 4893W        W20510   8.255   4.269  10.402 -0.2028 -0.0320 -0.1913
 4894W        W20511  10.064  18.453  10.769 -0.0619  0.1129 -0.1075
 4895W        W20512  15.577  12.912   5.116 -0.0994  0.0225 -0.0717
 4896W        W20513  11.969   4.023  12.940  0.2104 -0.1516 -0.0724
 4897W        W20514  17.390  16.853  15.995 -0.2522 -0.0922  0.0158
 4898W        W20515   5.290  17.537   3.452  0.1350  0.2235  0.0652
 4899W        W20516   5.056  15.727   0.703 -0.3863  0.0872  0.0435
 4900W        W20517  16.696   2.981   1.715  0.0694 -0.2351  0.0286
 4901W        W20518  16.447   5.082   4.704  0.0795 -0.0497 -0.0075
 4902W        W20519  13.658   3.481  15.698  0.0592  0.1818 -0.3648
 4903W        W20520  10.518   3.542  10.690  0.0562 -0.1619  0.1532
 4904W        W20521  10.270  11.508  13.659 -0.5318 -0.0042 -0.2604
 4905W        W20522   8.301   2.260  13.207  0.1257 -0.0254  0.1894
 4906W        W20523   8.297  18.377  12.636  0.1256  0.2426  0.4092
 4907W        W20524  12.461   7.535   3.688  0.0841 -0.0220 -0.0111
 4908W        W20525   8.671   3.377  13.102  0.0948  0.1553  0.0839
 4909W        W20526   6.881   6.071   0.100 -0.1773  0.3381  0.1004
 4910W        W20527  16.220   9.071   0.793 -0.0095 -0.5132  0.0131
 4911W        W20528   4.192  11.406   1.514 -0.1276 -0.0702  0.2178
 4912W        W20529   0.359   1.165  12.154  0.0570  0.0845  0.2488
 4913W        W20530  11.581   5.987  15.982 -0.0032 -0.1004  0.0685
 4914W        W20531   2.983  17.950   3.886  0.2836 -0.0306 -0.1312
 4915W        W20532   1.068  13.493  15.581 -0.1194 -0.2910  0.1210
 4916W        W20533  11.421  17.925  15.527  0.4689  0.2339  0.2338
 4917W        W20534   9.846   0.848  13.930  0.1239 -0.4300  0.3364
 4918W        W20535   1.470   3.905  13.045 -0.2401  0.2183 -0.0601
 4919W        W20536   8.460  13.770   6.263 -0.0226  0.0248 -0.3112
 4920W        W20537   8.809   6.381   4.603  0.2509 -0.0929  0.5656
 4921W        W20538  10.179   0.118   1.610 -0.1586  0.0227 -0.2756
 4922W        W20539  11.856  12.940   0.262  0.0269 -0.0301  0.0300
 4923W        W20540  16.978  13.935  12.594 -0.0009 -0.1164  0.3318
 4924W        W20541   1.164   4.720   0.494  0.5900  0.0384 -0.1568
 4925W        W20542   7.834  12.865  14.022  0.3143 -0.0576  0.3449
 4926W        W20543  10.187   4.354   2.398  0.0209 -0.1881 -0.0220
 4927W        W20544  12.298   6.439   1.967 -0.0340  0.0163  0.0262
 4928W        W20545   5.672   6.653   2.157 -0.3849  0.0790  0.0886
 4929W        W20546   7.433   4.594   5.755  0.2451 -0.3400  0.1112
 4930W        W20547   4.047  13.501   0.947 -0.1693  0.0604 -0.0400
 4931W        W20548  10.798  16.607   3.765  0.0466  0.1214 -0.2644
 4932W        W20549   6.150   0.526   3.270 -0.1517 -0.2711 -0.4956
 4933W        W20550   4.205   8.686  16.035 -0.1018 -0.0017  0.3269
 4934W        W20551   3.097   5.076  13.340  0.3344  0.2717 -0.2004
 4935W        W20552   7.854   9.001   5.276  0.2917 -0.3932 -0.1013
 4936W        W20553  12.575  10.551   1.323 -0.0707  0.0347 -0.3544
 4937W        W20554  15.761   4.107   0.983  0.0031  0.2622 -0.0109
 4938W        W20555  15.524   2.907  13.367  0.1635 -0.2918 -0.3533
 4939W        W20556   5.446   2.516   0.379 -0.1505 -0.2621 -0.0890
 4940W        W20557   0.028   6.860  15.056  0.1386 -0.2048  0.3397
 4941W        W20558   0.836   3.119   1.872  0.2039 -0.3579  0.0401
 4942W        W20559  12.840   4.089  13.086  0.0875 -0.0096 -0.1670
 4943W        W20560  11.848   2.961   2.151  0.0522 -0.1717  0.4998
 4944W        W20561   5.512   6.491  12.650  0.1303  0.2401 -0.1967
 4945W        W20562  11.268  11.749  14.453  0.1878  0.0745 -0.0410
 4946W        W20563  17.770  11.544  14.680  0.3400  0.0848 -0.0299
 4947W        W20564   7.133   9.724   2.967 -0.0439  0.2025 -0.2774
 4948W        W20565  12.300  15.646  12.749  0.0291  0.0927  0.1788
 4949W        W20566  12.336   3.252  15.032 -0.1235 -0.3205  0.1701
 4950W        W20567   5.159  16.705  13.886 -0.1587  0.2435  0.1492
 4951W        W20568  16.794  14.738  12.216  0.0314 -0.2905  0.0127
 4952W        W20569  10.271  12.773   6.641 -0.1320  0.0155  0.3660
 4953W        W20570  14.337  17.403   4.046 -0.0113 -0.2579 -0.0309
 4954W        W20571  17.674   8.408   1.585  0.0768  0.3105 -0.0750
 4955W        W20572   8.834  11.790   5.376  0.1109 -0.2323  0.2795
 4956W        W20573   2.079  13.984  15.638 -0.2785  0.1629  0.3377
 4957W        W20574  11.789   2.752   2.580 -0.1257  0.4428  0.3570
 4958W        W20575  11.985   5.948  14.697 -0.0417 -0.1249  0.1967
 4959W        W20576   1.028  10.440  11.493  0.0802  0.0827  0.2177
 4960W        W20577   2.337   0.852  15.617  0.0472 -0.0249  0.0937
 4961W        W20578   6.517   0.043  14.741 -0.0831  0.1292 -0.0878
 4962W        W20579   1.951  17.381  15.892 -0.1021 -0.0865  0.1864
 4963W        W20580   3.482   3.246   2.569  0.1102  0.0715 -0.0211
 4964W        W20581  11.691  13.732   5.301  0.5565  0.0137  0.0877
 4965W        W20582  14.171   0.794   1.397  0.1529 -0.3779 -0.0825
 4966W        W20583   8.882  12.204   5.770 -0.2631 -0.1198  0.2315
 4967W        W20584   5.170   2.117  13.617 -0.0152 -0.1419 -0.2261
 4968W        W20585  15.140   5.278   0.313  0.0363 -0.0677  0.0663
 4969W        W20586  18.434  11.370  12.372  0.2228  0.1514 -0.1316
 4970W        W20587   8.837  16.980   4.536 -0.1483  0.0989 -0.1249
 4971W        W20588   2.383   5.777  15.109 -0.2300 -0.2370 -0.0125
 4972W        W20589   7.946  10.950   3.902 -0.2890  0.0216  0.0229
 4973W        W20590   4.195  10.916   1.157 -0.0376 -0.0620 -0.1729
 4974W        W20591  14.906   0.022   4.961 -0.1978 -0.0434  0.1187
 4975W        W20592  11.149   7.117  10.607  0.2589 -0.1401  0.2477
 4976W        W20593   9.328   3.019  14.766  0.1008  0.1175  0.2989
 4977W        W20594   4.068  10.104  15.025 -0.0314 -0.1522  0.0223
 4978W        W20595  18.391   3.764   4.928 -0.2608  0.2010  0.3363
 4979W        W20596  17.134   3.729   5.349  0.0236  0.2793  0.0434
 4980W        W20597  10.693   5.037  15.501  0.1105  0.0513 -0.1599
 4981W        W20598   5.394  18.281  12.505  0.1573 -0.1894 -0.1783
 4982W        W20599   7.106   7.701   2.368 -0.3812 -0.0966 -0.0812
 4983W        W20600  12.033  18.368   3.475 -0.2743  0.0093  0.1791
 4984W        W20601   3.405   0.150  10.555  0.1933 -0.0491 -0.2358
 4985W        W20602   5.445  11.124   1.690  0.0196 -0.0138  0.2058
 4986W        W20603  11.894   7.907   2.458 -0.2859 -0.1503  0.0559
 4987W        W20604   0.135  14.548   2.960  0.1780 -0.0281 -0.3841
 4988W        W20605  17.797   7.133  15.500 -0.0068  0.1212 -0.3946
 4989W        W20606   4.154  17.735   1.377 -0.0807 -0.1062  0.0855
 4990W        W20607   5.113  17.186  13.852  0.2419 -0.1766 -0.1525
 4991W        W20608   5.076   6.568   0.135 -0.2811  0.1316 -0.0486
 4992W        W20609   0.018  14.692   5.182  0.0526 -0.1288 -0.3339
 4993W        W20610  13.581   2.641  13.693  0.0767 -0.0239 -0.2095
 4994W        W20611   3.608  17.049  13.713  0.1204  0.0826  0.0849
 4995W        W20612  17.013   2.789   1.399  0.2317 -0.2552 -0.3151
 4996W        W20613   9.989   5.977  11.569 -0.1327 -0.0994  0.1599
 4997W        W20614  12.482   8.083   3.559 -0.0438 -0.0289 -0.0794
 4998W        W20615   7.245   8.756   0.190 -0.2273  0.3637  0.4988
 4999W        W20616   3.193  17.741   2.234 -0.1197 -0.1164  0.0607
 5000W        W20617  11.281   4.125  11.893  0.0789  0.0574 -0.0464
 5001W        W20618  13.965  14.233   2.880 -0.0345  0.1611  0.2462
 5002W        W20619   8.395   7.412  10.809  0.1484  0.0211 -0.0103
 5003W        W20620  12.847   6.704  11.138 -0.2429 -0.0861  0.2171
 5004W        W20621  13.032  16.563   4.949  0.0543  0.1552 -0.3158
 5005W        W20622   3.962  13.612   5.556 -0.1199 -0.3428 -0.4399
 5006W        W20623   0.408   5.304  15.143 -0.1859 -0.1275  0.2191
 5007W        W20624   3.201  15.909  12.585  0.0588  0.1712  0.2542
 5008W        W20625  11.328   6.304   0.131 -0.3925  0.0158  0.1858
 5009W        W20626   9.417   4.467  14.786 -0.3350 -0.0538  0.1008
 5010W        W20627  11.738  15.872  12.661 -0.2610  0.1428 -0.2605
 5011W        W20628  17.635   5.460   2.273 -0.1029  0.3721  0.0097
 5012W        W20629   9.567  16.693   5.045  0.2381  0.0924  0.0382
 5013W        W20630  12.223  13.163  13.798 -0.1298  0.0759  0.1055
 5014W        W20631   4.999   1.421   1.342 -0.1007 -0.1392 -0.1458
 5015W        W20632  10.170   2.233   1.610  0.2005  0.0390 -0.0928
 5016W        W20633  14.714   9.956  11.043  0.3781  0.0134 -0.0768
 5017W        W20634  13.466   2.244   2.949 -0.4316  0.4622  0.1264
 5018W        W20635  10.639   1.080   5.335 -0.0391  0.1260 -0.0206
 5019W        W20636   0.276   8.117  14.734  0.2430  0.0788  0.4753
 5020W        W20637  10.387  11.281   0.018  0.1020  0.0782 -0.0434
 5021W        W20638  10.472  11.132  11.780 -0.0110  0.2018 -0.0170
 5022W        W20639   4.255   2.877   2.710 -0.0882  0.1437  0.0565
 5023W        W20640   9.675   7.778  11.225 -0.1112  0.0046  0.0608
 5024W        W20641  11.487   3.137  14.397  0.1422 -0.2793  0.0473
 5025W        W20642  13.856  15.676  12.361  0.0838 -0.3898 -0.4885
 5026W        W20643   6.868  16.233   2.151 -0.2417  0.5379  0.0165
 5027W        W20644  15.755   9.149   0.584  0.1022 -0.2021 -0.0196
 5028W        W20645   9.059   2.852  16.124 -0.0861  0.0173 -0.0803
 5029W        W20646  16.195   9.287   2.455 -0.1134  0.3350 -0.0223
 5030W        W20647  16.292   5.186  11.908  0.0756  0.0290  0.1338
 5031W        W20648  10.662  15.352  13.957  0.1012 -0.4639 -0.0496
 5032W        W20649  17.936  13.805  15.947 -0.0072  0.2149 -0.0275
 5033W        W20650   1.464  13.191   5.294  0.0944  0.2024  0.0570
 5034W        W20651  11.602  11.617   0.200 -0.1762  0.3440 -0.1210
 5035W        W20652   8.712  17.080  12.362 -0.3326 -0.1494 -0.1140
 5036W        W20653   8.191   8.922   4.458  0.0565 -0.1799 -0.2721
 5037W        W20654   3.136   1.887   5.207  0.0076  0.2504 -0.2700
 5038W        W20655  11.000  17.498  15.640 -0.2755 -0.1957  0.0777
 5039W        W20656   5.673   7.763   3.801 -0.2598  0.2132 -0.3468
 5040W        W20657   6.195  13.401  13.462 -0.0509  0.2645  0.2666
 5041W        W20658   5.142   6.952  15.947 -0.1023  0.0928 -0.1280
 5042W        W20659  14.978   3.512  11.544 -0.0843  0.0377  0.2500
 5043W        W20660   5.778  11.963  14.555 -0.3290  0.1309  0.0783
 5044W        W20661   9.031   2.186   4.935  0.0790  0.2359  0.3602
 5045W        W20662   9.751   2.807  14.852  0.2488  0.1406 -0.0245
 5046W        W20663  14.865  15.169   1.170 -0.0357 -0.1697 -0.1089
 5047W        W20664   5.656  12.722   3.173  0.0847  0.1115  0.3186
 5048W        W20665   1.861  16.725   3.962  0.0907  0.2551  0.2803
 5049W        W20666   4.402   7.023  14.294 -0.2248  0.0480 -0.0534
 5050W        W20667  16.511   7.687   3.455  0.0528 -0.1087  0.1084
 5051W        W20668   6.691   1.081  11.581  0.1362 -0.0336 -0.1099
 5052W        W20669  11.360   3.449   1.608  0.0422 -0.0838  0.0452
 5053W        W20670  12.477   6.772  14.178 -0.2137 -0.2009  0.1772
 5054W        W20671   0.452   4.266   0.364 -0.1104 -0.1837 -0.2777
 5055W        W20672  13.172   5.027   3.170 -0.0058  0.1010  0.0276
 5056W        W20673   5.345  17.438   2.766 -0.0399  0.0229 -0.1007
 5057W        W20674   3.074   3.526  10.488  0.0249 -0.0879  0.0429
 5058W        W20675   2.540  11.637  15.109  0.2693 -0.2434 -0.2445
 5059W        W20676  17.716  11.907  13.136  0.4187 -0.1147 -0.0310
 5060W        W20677  10.451   8.636   3.951  0.0086  0.0771 -0.0335
 5061W        W20678  13.319   9.051   1.766  0.1734  0.1635  0.0374
 5062W        W20679   7.303   8.017   1.494  0.2919 -0.1730 -0.1298
 5063W        W20680   7.225  15.349  13.101  0.2170  0.0681  0.0981
 5064W        W20681  17.997   9.623  15.591  0.0286  0.3590 -0.0406
 5065W        W20682   2.831   4.586  12.529  0.2905 -0.0204  0.1729
 5066W        W20683   6.743  13.017  16.053  0.0461  0.0289 -0.2953
 5067W        W20684  12.165  13.212   1.536 -0.1512  0.0653  0.0822
 5068W        W20685   1.370  10.572   3.462 -0.1686 -0.0917 -0.0326
 5069W        W20686   7.200   6.649  10.956  0.1062 -0.1260 -0.0367
 5070W        W20687  12.515   2.619  11.773 -0.1190 -0.1635 -0.1795
 5071W        W20688  13.319  13.885  11.996  0.3250 -0.0253 -0.2950
 5072W        W20689   3.265   4.327  11.263  0.0225 -0.0764 -0.0918
 5073W        W20690  10.793   6.399  15.241 -0.1528 -0.0894  0.2188
 5074W        W20691  17.822   2.852  14.581 -0.3649  0.1340 -0.2728
 5075W        W20692   3.674   9.525  10.838  0.0722 -0.3338  0.0059
 5076W        W20693   3.021  12.226  11.771 -0.1940 -0.1192 -0.3513
 5077W        W20694   8.280  12.512   1.582  0.2415 -0.2562 -0.0154
 5078W        W20695   0.873  17.125   4.087  0.1864 -0.1723 -0.0333
 5079W        W20696   4.338  18.110  13.638  0.1556  0.0608  0.2116
 5080W        W20697  16.719   2.986   4.550  0.1036  0.0651 -0.0553
 5081W        W20698  15.699   2.107  11.354  0.0375 -0.1808  0.0283
 5082W        W20699   1.097   4.360  13.203  0.0791 -0.0307 -0.0701
 5083W        W20700  16.528   2.790  15.191 -0.0875  0.0935  0.1835
 5084W        W20701   4.988   2.464   0.554 -0.0872  0.0257  0.2210
 5085W        W20702   5.329  11.409   2.853  0.1438  0.0361  0.1067
 5086W        W20703  15.533  11.670  14.746  0.2270  0.2820  0.1388
 5087W        W20704   5.958  14.022   5.352 -0.0119  0.0354 -0.0082
 5088W        W20705   2.386  14.216   1.315 -0.2613  0.1300  0.3079
 5089W        W20706   4.989  13.741  12.100  0.1299 -0.0230 -0.2999
 5090W        W20707  12.132   8.810  14.477 -0.0314 -0.2207  0.2431
 5091W        W20708  16.035  11.449  14.324 -0.2240  0.5941 -0.1405
 5092W        W20709  18.075   5.403  14.208 -0.0571 -0.3774 -0.0627
 5093W        W20710  12.785   9.244   0.586 -0.3172  0.2067 -0.5080
 5094W        W20711   0.527   3.394   5.376 -0.1113 -0.2517  0.0195
 5095W        W20712  17.650   3.622   1.014 -0.0490  0.0670 -0.1171
 5096W        W20713  10.785  15.630  14.929  0.0758  0.2336  0.0331
 5097W        W20714  17.489   9.265  10.920  0.0717  0.1023 -0.1582
 5098W        W20715   9.991  12.382   5.174  0.0942 -0.1147  0.2319
 5099W        W20716   1.071  14.486   0.494  0.0601  0.1843 -0.1446
 5100W        W20717  17.719  13.684  12.500 -0.0350  0.0330  0.3757
 5101W        W20718   3.651   1.073  12.938 -0.0764 -0.2753 -0.2830
 5102W        W20719  17.276   0.910  12.663 -0.0457 -0.1255 -0.0238
 5103W        W20720  13.110  12.747  14.264  0.2299  0.3421 -0.3922
 5104W        W20721  12.047  18.403   3.964  0.0207  0.0075 -0.1594
 5105W        W20722  11.259  14.799   4.674 -0.0329 -0.0156 -0.0366
 5106W        W20723  11.079   1.555   0.417 -0.1187  0.1171  0.2400
 5107W        W20724  17.997  12.552  11.700 -0.1392  0.2359 -0.0382
 5108W        W20725   3.554  12.596   3.096 -0.1896  0.0538  0.2293
 5109W        W20726  17.145   4.717  14.026 -0.0421  0.1051 -0.1803
 5110W        W20727  18.176   3.244   4.720 -0.1077  0.1261  0.0370
 5111W        W20728   5.979  17.079  13.862  0.2528 -0.4743 -0.0321
 5112W        W20729   4.102  14.572   3.553  0.1393 -0.1552  0.4731
 5113W        W20730   2.982   9.367   0.942  0.0665  0.1546 -0.0734
 5114W        W20731  12.367   1.584   0.930 -0.1048  0.1630  0.1326
 5115W        W20732  15.139  16.480   2.289  0.0770  0.0446  0.1672
 5116W        W20733   6.918   5.449   3.825  0.0826 -0.3058 -0.2082
 5117W        W20734   4.609   4.465  16.062 -0.0408  0.1067  0.1322
 5118W        W20735  12.666   7.761   4.594 -0.1831  0.2349 -0.0989
 5119W        W20736  16.300  10.777   2.307  0.0866 -0.6243  0.1636
 5120W        W20737   3.575  13.590   5.940 -0.2264 -0.0851 -0.0313
 5121W        W20738   0.207  13.553   1.784  0.1054 -0.2265 -0.2409
 5122W        W20739   5.065   2.898   2.893 -0.0394 -0.5358  0.1120
 5123W        W20740   6.162  18.027  15.851 -0.0743  0.2647 -0.3329
 5124W        W20741   3.049  10.183   0.391 -0.2920 -0.1698 -0.0593
 5125W        W20742  11.646   9.062  13.891  0.0128 -0.3049 -0.1144
 5126W        W20743   6.027  11.016   1.407 -0.2949 -0.6122 -0.0121
 5127W        W20744  17.356  12.160  13.485 -0.2431 -0.0915 -0.3723
 5128W        W20745  15.147   5.670   2.523  0.0758 -0.3379  0.1152
 5129W        W20746   6.925  16.140   0.771  0.1464  0.0542 -0.0873
 5130W        W20747   3.159  17.437   3.916 -0.4068  0.1134  0.4077
 5131W        W20748   6.753   2.542  14.223 -0.2360  0.1563 -0.1069
 5132W        W20749   2.510  16.738  15.259  0.0282  0.3692 -0.0462
 5133W        W20750  10.926   3.913   5.170  0.2354  0.1500 -0.0157
 5134W        W20751  17.910  16.301  13.918  0.0287  0.2940  0.0737
 5135W        W20752   1.166  16.880  15.404  0.2621  0.1230  0.2075
 5136W        W20753   3.063   9.993   4.017 -0.0853 -0.0765 -0.0191
 5137W        W20754  10.878  14.697  12.297  0.0304 -0.1617 -0.0979
 5138W        W20755  10.442  13.090  11.506 -0.5624  0.4035 -0.0322
 5139W        W20756  15.435  14.456   0.257 -0.2219 -0.0403  0.2240
 5140W        W20757   9.294   9.023  13.696 -0.0980 -0.1677 -0.2012
 5141W        W20758   2.411   6.234   3.045  0.0505  0.0070  0.0347
 5142W        W20759  13.700   8.852  15.727  0.0691  0.0359  0.3119
 5143W        W20760  16.335  10.142  15.555  0.3410  0.2189  0.3593
 5144W        W20761   2.631  14.028   4.856  0.0898 -0.1640 -0.1131
 5145W        W20762   2.304  12.518  13.136 -0.1130  0.4335 -0.0029
 5146W        W20763  10.901  11.389   5.753  0.2574 -0.1890 -0.3497
 5147W        W20764  12.897  16.957   0.092 -0.3254  0.2377  0.1126
 5148W        W20765   5.946  15.495   2.083 -0.0724  0.2314  0.0269
 5149W        W20766   4.250   8.186  12.608  0.2735  0.0150  0.0943
 5150W        W20767   8.484  12.553   2.077 -0.0889  0.3740  0.0806
 5151W        W20768  17.094   5.935   4.665 -0.1483 -0.2331  0.1700
 5152W        W20769   1.788  16.575  12.318 -0.2267  0.0955 -0.1917
 5153W        W20770   2.810  15.073  12.376  0.0978 -0.0038 -0.1861
 5154W        W20771   3.171  16.461   3.942  0.0322  0.0985  0.0249
 5155W        W20772  16.611  14.844   1.658 -0.0094  0.2639 -0.3061
 5156W        W20773  17.754  16.460  15.596  0.0228 -0.1261  0.1076
 5157W        W20774   1.863  14.473   6.483  0.1347 -0.0602 -0.0196
 5158W        W20775  15.302  14.354  11.570  0.3856 -0.0580 -0.0591
 5159W        W20776   4.489  11.105  15.682  0.0378 -0.2235  0.0343
 5160W        W20777   7.052  14.343   3.179 -0.0355  0.1014  0.0875
 5161W        W20778  16.333   1.596   2.815  0.2100  0.0136 -0.0255
 5162W        W20779   1.792   8.705  15.061  0.0123 -0.0508  0.0183
 5163W        W20780   4.146   0.777  14.422  0.2365  0.2196 -0.1309
 5164W        W20781   1.314   5.810   3.654  0.2733  0.1124  0.2254
 5165W        W20782   1.823  17.670   5.501 -0.0654  0.1170 -0.1656
 5166W        W20783  12.065  18.376   0.882 -0.4037  0.1097 -0.2032
 5167W        W20784  17.503   7.087   3.362 -0.0474  0.4364  0.1820
 5168W        W20785   3.027   8.441   3.757 -0.0439  0.0972 -0.0625
 5169W        W20786  18.368   5.400  15.200 -0.3143 -0.2136  0.0460
 5170W        W20787  14.066  12.341  11.687  0.3858  0.1722 -0.4207
 5171W        W20788   9.033  10.939   5.226 -0.0294  0.2111  0.1320
 5172W        W20789   5.503  16.213  14.984  0.0049  0.2027  0.3253
 5173W        W20790  11.467  17.592   5.119 -0.3537  0.0928  0.1010
 5174W        W20791   9.415  17.831  12.257  0.3243  0.1798 -0.1483
 5175W        W20792   4.690   2.896  15.089  0.0735 -0.1443 -0.1008
 5176W        W20793  17.683   5.770  13.251  0.0274 -0.2288  0.0048
 5177W        W20794  13.704   6.661  12.908 -0.1032  0.1364 -0.0281
 5178W        W20795   2.802   1.076   0.358 -0.3653 -0.4122 -0.1210
 5179W        W20796   9.889   6.632  16.106 -0.0777 -0.0076  0.2791
 5180W        W20797   5.707   9.482  11.014 -0.2528 -0.0487 -0.1169
 5181W        W20798   2.202  14.043   2.131  0.1737 -0.1289  0.2335
 5182W        W20799   9.265  18.106   0.414  0.2073  0.3646  0.1274
 5183W        W20800   2.317   8.771  14.255 -0.0420 -0.1070  0.2178
 5184W        W20801   5.860  13.410  14.511  0.0827  0.1424  0.1889
 5185W        W20802   9.733   9.715  16.098 -0.2368  0.3932 -0.0880
 5186W        W20803  12.554  12.860  12.479 -0.4064 -0.0106 -0.0487
 5187W        W20804   9.063   8.987   4.335  0.0943  0.0600 -0.0037
 5188W        W20805  11.127  11.192  12.502  0.0111 -0.0898 -0.0360
 5189W        W20806  13.976  11.278   1.346  0.0352  0.0274  0.0111
 5190W        W20807   7.698   6.702   0.497  0.0795 -0.0884 -0.2076
 5191W        W20808  10.082  11.669  12.148  0.2211  0.4509 -0.0221
 5192W        W20809   2.126  18.112  12.001  0.1006 -0.2165  0.0064
 5193W        W20810  17.391   4.335  14.776  0.0131 -0.0771 -0.3764
 5194W        W20811  17.204   1.519   4.646  0.0299 -0.3439  0.0766
 5195W        W20812  13.677  10.547   2.101 -0.2134 -0.0057 -0.1918
 5196W        W20813  15.766   1.512   3.998 -0.2735 -0.0974 -0.3221
 5197W        W20814  15.298   7.589   5.206 -0.0147 -0.3829 -0.1114
 5198W        W20815  10.699   3.518  11.991  0.1513  0.2351  0.1482
 5199W        W20816  15.595   7.339   1.111  0.1841  0.0108 -0.1299
 5200W        W20817  12.992   1.068   3.872 -0.0498 -0.2328 -0.0214
 5201W        W20818  10.108  12.239   3.427  0.0491 -0.0395 -0.1455
 5202W        W20819  12.581   1.944  10.943 -0.1478 -0.0166 -0.0193
 5203W        W20820  16.599   9.427  13.251  0.0698  0.0434 -0.2303
 5204W        W20821   6.349   6.732   0.341  0.0314 -0.3083 -0.2794
 5205W        W20822   2.473  11.397  13.553 -0.0724  0.0546 -0.1020
 5206W        W20823  12.025  11.325   0.054 -0.0984 -0.0372  0.1600
 5207W        W20824  15.505   1.001   3.889 -0.1218  0.1789 -0.1004
 5208W        W20825  12.904   9.910   0.825 -0.0020 -0.1610 -0.1242
 5209W        W20826  13.039   9.621   4.002 -0.2289  0.0791 -0.0242
 5210W        W20827  13.215   0.593   6.003  0.1727  0.4371 -0.0877
 5211W        W20828   3.664   3.363  11.202 -0.0275  0.0153  0.0238
 5212W        W20829   5.617  15.758   3.366 -0.2352  0.0390 -0.3352
 5213W        W20830  12.537   5.729  14.729 -0.2938 -0.0439 -0.2488
 5214W        W20831  15.984  13.287   5.164 -0.0609 -0.1720  0.1918
 5215W        W20832   3.897  14.674  15.913  0.0343 -0.0513 -0.1307
 5216W        W20833  10.079  16.530  13.005  0.2806 -0.1109  0.2939
 5217W        W20834  10.723   5.784   4.779  0.0388  0.0890 -0.2103
 5218W        W20835   0.482  11.628   1.258 -0.0331 -0.0487  0.1681
 5219W        W20836  16.955   0.026   1.962 -0.2113 -0.0593 -0.4618
 5220W        W20837   5.399  16.599   1.127  0.2548 -0.2071  0.1352
 5221W        W20838  13.852  15.768   3.212  0.2732  0.0404 -0.0693
 5222W        W20839   0.299   8.116  11.010 -0.0345 -0.2674  0.0225
 5223W        W20840  16.674   9.250  14.104  0.0168  0.2458 -0.1849
 5224W        W20841   8.238  14.628  14.000  0.1672  0.0956  0.0039
 5225W        W20842   2.004   0.432  15.778 -0.0676  0.0231 -0.1636
 5226W        W20843   5.796   3.459  11.966 -0.2538 -0.0365 -0.1221
 5227W        W20844  15.344  12.338  13.012  0.1118 -0.4757 -0.3187
 5228W        W20845   2.843   4.172   3.169  0.0404 -0.1296  0.1494
 5229W        W20846   9.372   3.352  14.002 -0.1939  0.0693  0.2381
 5230W        W20847  11.215   7.741  12.947 -0.1448 -0.0378  0.2817
 5231W        W20848  13.958  16.995  14.953 -0.2838 -0.0645 -0.0472
 5232W        W20849  17.016  14.936   4.555  0.1033 -0.2257  0.3788
 5233W        W20850  10.996   7.175   1.289 -0.0867  0.1280 -0.0060
 5234W        W20851   0.049  16.619   1.139 -0.3006 -0.5509 -0.1217
 5235W        W20852  10.897   7.678  10.562  0.3476 -0.0546 -0.1863
 5236W        W20853  10.071   4.712   2.911  0.1550  0.2480  0.0283
 5237W        W20854   5.141  11.209  13.802  0.2040  0.2840  0.1641
 5238W        W20855  16.422   3.819   4.117 -0.1119  0.0659 -0.1791
 5239W        W20856  17.596   6.401   5.093  0.0090  0.3220  0.0451
 5240W        W20857  11.615  15.333   1.192 -0.2137 -0.0031 -0.1343
 5241W        W20858   0.940   4.314   3.388 -0.2864  0.0692  0.0122
 5242W        W20859  11.755   7.221  14.506  0.2744  0.0287 -0.1508
 5243W        W20860   4.415   7.558   9.674 -0.1159 -0.0239 -0.0189
 5244W        W20861  15.436  11.576  13.843  0.1081  0.2701  0.1870
 5245W        W20862   7.823   1.471  13.619  0.1633  0.4365  0.0418
 5246W        W20863  17.281   9.173  15.826 -0.1541  0.1873  0.0587
 5247W        W20864   6.831  15.389   5.889  0.0184  0.0773 -0.0814
 5248W        W20865  18.402  14.123  14.895  0.1188 -0.0580 -0.0877
 5249W        W20866   5.136   8.743   2.936  0.0976 -0.0308  0.1045
 5250W        W20867   8.568   8.158  15.151 -0.0219 -0.1178  0.1015
 5251W        W20868   2.376  10.747  16.091 -0.2960  0.2995 -0.0008
 5252W        W20869  18.358   0.138   4.158 -0.1323 -0.0255  0.5326
 5253W        W20870  14.409   4.403  15.203  0.0605 -0.2705 -0.2439
 5254W        W20871  13.426  16.732   2.855  0.0250 -0.0434 -0.2290
 5255W        W20872  11.669  12.776   1.167  0.0388 -0.0503 -0.1865
 5256W        W20873  13.652  13.672  13.261 -0.0829 -0.4252 -0.1148
 5257W        W20874  16.182  10.480   0.705  0.1269 -0.2183  0.1147
 5258W        W20875   6.879   2.234   2.281 -0.3316 -0.1559  0.0919
 5259W        W20876   3.879  17.788  14.998 -0.2763 -0.0813 -0.1177
 5260W        W20877   5.859  10.321   3.302 -0.4000  0.1052  0.0039
 5261W        W20878   7.586  10.826  15.677 -0.1539  0.0767 -0.1347
 5262W        W20879   2.505   8.713  12.229  0.1422 -0.0026 -0.4552
 5263W        W20880  11.548  15.638   2.970 -0.0585  0.1493 -0.1070
 5264W        W20881  16.824   6.760   2.556 -0.0749  0.0850  0.0188
 5265W        W20882   7.154   5.824   2.546 -0.0712  0.0328  0.2592
 5266W        W20883  15.665   8.024   2.915 -0.0387 -0.3508 -0.0504
 5267W        W20884  13.029   4.147   1.029  0.0109  0.0592 -0.2221
 5268W        W20885   2.323   1.666   5.210  0.3891  0.1733  0.3067
 5269W        W20886  13.670  15.012   2.817 -0.3292  0.1371  0.2800
 5270W        W20887  13.144  12.449  15.513  0.0201 -0.2618  0.1200
 5271W        W20888  17.109   2.258   5.656  0.4380 -0.3759 -0.0471
 5272W        W20889  13.613   3.198   2.964  0.0882  0.0818  0.1782
 5273W        W20890   5.385  10.808   2.040  0.0596 -0.0487 -0.3304
 5274W        W20891  14.676   0.067   1.567 -0.0172 -0.1370  0.2527
 5275W        W20892   2.873   5.795  14.904  0.1843 -0.3015 -0.3002
 5276W        W20893   9.710   4.609   3.698  0.0013 -0.0790  0.0292
 5277W        W20894   3.454  14.031   3.628  0.1989 -0.0786 -0.1297
 5278W        W20895   7.773  10.218   2.428 -0.0976 -0.0638 -0.0824
 5279W        W20896   5.493  13.700   0.323  0.1483  0.3201  0.3125
 5280W        W20897  16.086  17.762   3.784  0.1021  0.1874  0.1784
 5281W        W20898   2.009  10.692   3.061  0.0100  0.3285  0.2436
 5282W        W20899   9.458  14.915   4.079 -0.2658  0.0648  0.0942
 5283W        W20900   9.346   6.915   4.070  0.0549 -0.0242 -0.3318
 5284W        W20901  13.724   6.145   0.101  0.2314 -0.1040  0.0215
 5285W        W20902   4.769   9.383   1.681  0.0470  0.2048  0.2987
 5286W        W20903   7.534   1.951  16.076 -0.0535  0.0070  0.2936
 5287W        W20904   8.823   3.873  10.399 -0.2835  0.2759  0.3565
 5288W        W20905  12.153   6.709  13.139 -0.3192 -0.2882 -0.1205
 5289W        W20906  14.028   2.905  14.567  0.2452 -0.0181 -0.1692
 5290W        W20907  13.355  13.092  14.020  0.4688  0.1685 -0.0314
 5291W        W20908  14.651   8.627  15.011 -0.3507  0.1194 -0.0381
 5292W        W20909  11.323   6.705   1.168  0.3708  0.1456  0.2851
 5293W        W20910  10.320  15.710   1.810 -0.0702 -0.0727 -0.4160
 5294W        W20911   3.394   0.959  15.669 -0.0681  0.0235 -0.2055
 5295W        W20912  12.940  13.902   3.970 -0.2905 -0.3616 -0.0494
 5296W        W20913  14.805   1.946   0.854  0.2549 -0.0326 -0.0132
 5297W        W20914  15.182   4.841  12.757 -0.1497 -0.5807  0.1228
 5298W        W20915  10.301  16.157  14.058 -0.0278 -0.2716  0.1115
 5299W        W20916   0.397   0.406   4.137  0.0652  0.1500 -0.0743
 5300W        W20917   1.302   6.984  14.605  0.1123 -0.1051 -0.3568
 5301W        W20918  16.316   9.936   1.401  0.0696  0.1530 -0.2328
 5302W        W20919   6.773  12.496  16.004  0.2095  0.0483  0.2263
 5303W        W20920  17.597   1.943   4.727  0.0510  0.1790  0.1246
 5304W        W20921   4.832  13.740   1.934 -0.0246 -0.1144  0.1569
 5305W        W20922   7.218   7.772   3.065  0.1590  0.1445 -0.2880
 5306W        W20923   4.986   9.076  10.920  0.1027 -0.1391 -0.3996
 5307W        W20924  17.804   0.836  12.909  0.1978 -0.0387  0.0201
 5308W        W20925  16.937  13.149  14.574 -0.0690  0.2385 -0.5191
 5309W        W20926  14.972  11.569   3.901 -0.0220 -0.0971 -0.1873
 5310W        W20927  12.930   6.778   1.639  0.3042 -0.0502  0.3556
 5311W        W20928   5.521   4.754  15.561 -0.0224 -0.0756 -0.0707
 5312W        W20929   5.561   2.510  15.536  0.1673  0.0219  0.2152
 5313W        W20930   8.592  17.495   5.958 -0.0439 -0.2879  0.2141
 5314W        W20931  17.693  13.935  12.935 -0.4150 -0.2728 -0.0080
 5315W        W20932  17.460   3.119   4.274 -0.2770 -0.3601 -0.1405
 5316W        W20933  15.794   5.135  15.414 -0.0875 -0.2609 -0.0456
 5317W        W20934  14.871   2.624  13.898  0.1631  0.2715  0.1690
 5318W        W20935  15.125  12.772   5.109 -0.1028  0.0016  0.1270
 5319W        W20936   4.236  15.812   1.540 -0.0162  0.0367  0.4819
 5320W        W20937   6.220   7.567   1.120 -0.2773  0.0382  0.1079
 5321W        W20938  15.806  10.784  10.904  0.0589  0.0593 -0.1081
 5322W        W20939   9.339  14.558   3.804  0.3410 -0.1070  0.0438
 5323W        W20940   8.641  14.712   3.283 -0.0297  0.0744 -0.2884
 5324W        W20941  13.161  15.811  13.170 -0.0258 -0.0124  0.1286
 5325W        W20942   3.352  12.730   0.188 -0.1067 -0.0040 -0.0960
 5326W        W20943   2.998   0.558   3.482 -0.0498  0.1639 -0.0486
 5327W        W20944  11.831  17.923   0.033 -0.1821 -0.1197 -0.2535
 5328W        W20945   2.654   8.665   0.658  0.0674  0.0938 -0.0500
 5329W        W20946  17.616   5.175  14.084  0.1405 -0.0815 -0.2306
 5330W        W20947   7.458   9.310   4.738 -0.1025 -0.0425 -0.1878
 5331W        W20948  12.536   6.757   2.427 -0.0711 -0.1255 -0.0610
 5332W        W20949   2.431   4.347   3.877  0.2084 -0.1753 -0.0281
 5333W        W20950  12.024   5.336   4.994 -0.2917  0.3066 -0.1147
 5334W        W20951   8.018   9.874   4.746 -0.1288 -0.0685  0.1275
 5335W        W20952  16.035   1.323  14.307 -0.1101  0.0454 -0.1853
 5336W        W20953  11.838  11.504   4.223  0.0728  0.1940  0.0366
 5337W        W20954   5.345   0.695   1.609  0.0270  0.2294  0.4348
 5338W        W20955  18.204  15.541  15.218  0.2400  0.4500  0.2809
 5339W        W20956  18.281   0.268   1.233 -0.3427 -0.0897 -0.0033
 5340W        W20957   7.978   4.049   4.488  0.3088  0.0029 -0.3982
 5341W        W20958  10.968   2.282  13.337  0.2838  0.1951  0.1018
 5342W        W20959   4.447   7.813  13.434 -0.0801  0.1796 -0.1212
 5343W        W20960   3.023  13.997  12.924  0.3241  0.0905 -0.1321
 5344W        W20961   6.988  13.919   0.883 -0.0479  0.0019 -0.1081
 5345W        W20962   6.464  14.805  15.108 -0.2689  0.3037  0.3708
 5346W        W20963   1.648   4.957   1.151  0.0335  0.1392  0.2185
 5347W        W20964  16.880   3.273   2.637 -0.0610 -0.0660  0.3843
 5348W        W20965  12.996   3.757   3.003  0.1437 -0.0960  0.3020
 5349W        W20966   6.760   7.792   3.923  0.0571 -0.2512  0.1439
 5350W        W20967   0.014  10.518  13.507  0.1195 -0.0156 -0.0175
 5351W        W20968   7.788   8.856  16.120 -0.3376 -0.1428  0.2040
 5352W        W20969   7.571   9.554  11.090  0.0502  0.0558 -0.0125
 5353W        W20970   4.002  10.617  15.154 -0.2493 -0.0504 -0.1865
 5354W        W20971   7.166  10.779  15.942  0.0629  0.1514 -0.0678
 5355W        W20972   6.534   2.663   3.325 -0.0364  0.0575 -0.3067
 5356W        W20973  12.877   7.744   1.422  0.2608  0.2057 -0.0255
 5357W        W20974  16.898   2.797   4.999  0.4261 -0.0981 -0.0824
 5358W        W20975   8.520  16.100   2.717  0.1929  0.3113 -0.0939
 5359W        W20976   4.073  12.417  14.775 -0.0687 -0.1771 -0.1461
 5360W        W20977  10.445  12.640   3.199  0.0691 -0.0479 -0.1036
 5361W        W20978   3.580  14.482   5.740 -0.0179 -0.0794  0.2379
 5362W        W20979   0.632   1.434   4.979  0.1710  0.1755 -0.0058
 5363W        W20980  12.419   6.282  12.734  0.2343 -0.1902  0.0612
 5364W        W20981   1.253  13.968   1.395 -0.0264  0.0310 -0.2111
 5365W        W20982  16.693  12.522  15.567 -0.2271  0.1417 -0.1457
 5366W        W20983   3.612  17.406   1.965 -0.0246 -0.0765  0.0919
 5367W        W20984   9.031   4.500  13.615 -0.0143  0.0134  0.0550
 5368W        W20985   6.099  12.107  11.411 -0.2639 -0.0186  0.0909
 5369W        W20986  15.585   4.025   0.142  0.0584  0.0878  0.0244
 5370W        W20987  15.333   8.159   2.495  0.1653 -0.1346  0.0695
 5371W        W20988  13.762  17.023  11.694  0.0207  0.1270  0.2520
 5372W        W20989   0.458   0.672  12.129 -0.2665  0.0164 -0.2815
 5373W        W20990  16.567  10.626  15.479  0.1476 -0.0224  0.1623
 5374W        W20991  11.957   7.971  13.838 -0.1921  0.0171  0.1130
 5375W        W20992  16.143   8.845  14.175  0.0052  0.0508  0.3838
 5376W        W20993  17.370   7.536   3.463 -0.0935  0.0740  0.0393
 5377W        W20994  13.475   6.573   4.013  0.2726 -0.0780  0.2276
 5378W        W20995   2.536  15.006  11.966 -0.1882 -0.0776 -0.1797
 5379W        W20996   0.917   4.436  12.410 -0.0435  0.1400  0.2967
 5380W        W20997   3.986   7.295   4.210 -0.0578  0.1057  0.0689
 5381W        W20998   5.442   3.944  13.949  0.0226  0.1137  0.2822
 5382W        W20999   4.625   3.138   2.980  0.0176  0.3806  0.0027
 5383W        W21000   5.065   8.084   1.269  0.0304  0.3730 -0.2892
 5384W        W21001   1.280  12.437  12.665  0.1357  0.0382  0.4222
 5385W        W21002   9.091  15.148  13.731 -0.1291 -0.0356 -0.1665
 5386W        W21003   1.029   6.243   3.561  0.0328  0.3684  0.4981
 5387W        W21004  15.384  15.926   4.109  0.1300  0.0422  0.2451
 5388W        W21005   0.924   5.372  14.582  0.3090 -0.0562  0.1414
 5389W        W21006   4.253   0.280  15.723  0.1293 -0.2040  0.0184
 5390W        W21007   3.020   0.523   4.022  0.1494  0.3371  0.0122
 5391W        W21008  11.622  14.881   4.351 -0.0940  0.0937 -0.1416
 5392W        W21009  11.820  15.739  14.362 -0.0628 -0.0894 -0.2347
 5393W        W21010   1.702  10.626  11.289  0.3803  0.2509  0.1725
 5394W        W21011  13.174  17.455   1.972  0.2626  0.2517  0.1930
 5395W        W21012  16.558   8.955   2.268  0.0574 -0.0144  0.0655
 5396W        W21013  12.181  12.051  15.634 -0.0861  0.1006 -0.1383
 5397W        W21014  12.975  11.326   5.213  0.0061  0.1958 -0.2181
 5398W        W21015  12.997   7.613   2.287  0.3463 -0.2691  0.1815
 5399W        W21016  11.371   6.269  10.800  0.0802  0.0949 -0.2298
 5400W        W21017   2.444   8.944   5.124  0.4174 -0.1952 -0.0986
 5401W        W21018   3.226   5.558  13.541 -0.1693  0.2696  0.0414
 5402W        W21019   7.279  15.906  15.864  0.0300  0.0388  0.0354
 5403W        W21020   1.365   7.393   6.151 -0.2092 -0.2484  0.0528
 5404W        W21021  17.597  10.098  14.848  0.0236 -0.3070 -0.2793
 5405W        W21022   9.350  13.106  15.076  0.1537 -0.1652  0.1865
 5406W        W21023   5.816  15.826   3.988  0.2170 -0.2286 -0.1085
 5407W        W21024   3.433  10.314  13.143  0.2585  0.2088  0.1379
 5408W        W21025  14.813   8.298  15.342  0.0230 -0.0034  0.0724
 5409W        W21026  12.822  13.768   4.810  0.1443  0.1219  0.2363
 5410W        W21027   1.142  12.993  15.360 -0.0050 -0.0602 -0.1272
 5411W        W21028  10.446   0.004  13.175 -0.1050  0.1481  0.5560
 5412W        W21029   1.636  13.417  12.820  0.2973  0.2477 -0.0344
 5413W        W21030  12.212   1.974  11.379 -0.1713  0.0100  0.1676
 5414W        W21031   6.677   9.450  14.322 -0.2311  0.0777 -0.0127
 5415W        W21032  12.968   3.358  13.706  0.1850 -0.3256 -0.0156
 5416W        W21033   2.479   3.145  15.733 -0.0483 -0.3873 -0.2189
 5417W        W21034  17.540  16.233   0.367 -0.0789  0.1407  0.2063
 5418W        W21035   6.861   8.417   2.310 -0.1290  0.7314 -0.3971
 5419W        W21036   0.182   4.448  14.171  0.1640  0.1300 -0.2050
 5420W        W21037   8.333   4.674   3.237  0.5013 -0.1357 -0.0788
 5421W        W21038   9.032  16.456   0.066 -0.2028  0.2135  0.1873
 5422W        W21039  11.826  15.839   2.536  0.0224  0.0376  0.1023
 5423W        W21040   2.576   0.590   5.978 -0.3911  0.0868 -0.2876
 5424W        W21041   1.311  11.946  15.086  0.0539 -0.3608  0.1240
 5425W        W21042   2.018  14.636  14.702  0.2323  0.1471 -0.0384
 5426W        W21043  17.098  10.481   2.756 -0.0824 -0.0704  0.0810
 5427W        W21044   7.102  12.279  12.472  0.1463  0.2471  0.2076
 5428W        W21045  11.670  14.134  12.457 -0.1214 -0.2134  0.1756
 5429W        W21046   0.467  17.185   4.462 -0.0504 -0.4056 -0.1281
 5430W        W21047   7.090   7.278   2.014  0.1656 -0.1268  0.6850
 5431W        W21048   0.422   7.652  14.509  0.0663  0.1718 -0.0060
 5432W        W21049  13.690   1.340   6.136 -0.0556 -0.1994  0.3500
 5433W        W21050  10.140   7.692   1.150  0.0050 -0.0427  0.0173
 5434W        W21051  13.560  16.611  14.737  0.1995  0.1879  0.0336
 5435W        W21052  14.638  15.360  13.986 -0.0767 -0.1147  0.2149
 5436W        W21053   3.587   7.085  13.923  0.0995  0.0659  0.0903
 5437W        W21054  14.572  17.410   5.305 -0.0730  0.1096  0.1398
 5438W        W21055  12.502  16.228   0.798 -0.1570  0.1368  0.0755
 5439W        W21056   3.575  11.428  10.448  0.0538 -0.2548  0.3645
 5440W        W21057   8.888  16.030  12.714  0.0247  0.1325 -0.0702
 5441W        W21058  10.590   4.776   3.152  0.0335 -0.1351 -0.1098
 5442W        W21059  15.190   5.621  14.284 -0.0383 -0.1444 -0.1900
 5443W        W21060  10.291  17.215   2.651 -0.2412 -0.1153 -0.1001
 5444W        W21061   8.509  14.197   3.620  0.0095  0.0192 -0.1717
 5445W        W21062   3.511  16.428   3.477 -0.2570  0.1870  0.1101
 5446W        W21063  16.507   1.782  13.098  0.0260  0.1471 -0.0043
 5447W        W21064   9.191   5.915   2.070 -0.4053 -0.0352 -0.0051
 5448W        W21065   3.751   8.559   3.498 -0.3415 -0.0166 -0.0577
 5449W        W21066   8.067  15.773   4.533  0.1842 -0.4026  0.0729
 5450W        W21067   0.612   8.886  15.706 -0.0491 -0.1912  0.4039
 5451W        W21068   2.697   0.817   4.929  0.4149  0.0542 -0.0266
 5452W        W21069   0.252   2.499   0.137 -0.4389 -0.1142 -0.0647
 5453W        W21070  17.246   9.601   4.879  0.0322 -0.1672 -0.2233
 5454W        W21071  15.567  17.307  12.602 -0.1115  0.3284 -0.1375
 5455W        W21072  14.241  15.784  13.032  0.1723 -0.0815 -0.0961
 5456W        W21073   0.264  10.347  12.671  0.4704  0.0595  0.3121
 5457W        W21074   4.908   8.450  14.405 -0.0490 -0.2556  0.1909
 5458W        W21075   6.858   4.553  15.311 -0.0006  0.0328 -0.2041
 5459W        W21076   3.068  13.139   0.026  0.0586  0.0194 -0.2768
 5460W        W21077  13.832  12.729  11.400  0.0827  0.0426  0.2633
 5461W        W21078  16.729  11.131   0.993 -0.0917  0.1149  0.1013
 5462W        W21079   6.214  16.501  12.400 -0.3284 -0.1175 -0.4183
 5463W        W21080  12.084  11.542  14.071 -0.3918  0.1566  0.1434
 5464W        W21081   7.103   2.525  12.336 -0.1972  0.1996 -0.0256
 5465W        W21082   2.066  12.923  12.815  0.0332 -0.1502  0.2906
 5466W        W21083   8.272   9.104  13.620  0.2665 -0.0293 -0.0858
 5467W        W21084   1.292   1.670   4.393 -0.2242  0.0838  0.2963
 5468W        W21085  11.058   4.249  12.440 -0.0386 -0.1725  0.2542
 5469W        W21086   9.745  15.862   4.792  0.1331 -0.0020  0.1045
 5470W        W21087   1.368  11.784   4.609 -0.1131  0.0047  0.2075
 5471W        W21088  13.869  11.107  10.868 -0.2055  0.0852 -0.1216
 5472W        W21089  16.088   3.728  14.217 -0.0503  0.2750 -0.1869
 5473W        W21090  17.830  11.457   3.686 -0.4793 -0.1401  0.0696
 5474W        W21091   6.806  15.957   4.813  0.2801 -0.3414  0.1901
 5475W        W21092   1.313   1.031   1.725  0.2680  0.0703 -0.2694
 5476W        W21093  10.133  16.573   5.089 -0.2182  0.4090 -0.1164
 5477W        W21094   9.909   0.840  14.584  0.0805 -0.0343  0.3418
 5478W        W21095  15.971   6.872  13.215  0.0407 -0.1903 -0.1926
 5479W        W21096  15.499   6.982  12.872 -0.0187 -0.0961  0.1537
 5480W        W21097  17.960  13.702   0.510  0.2361  0.1800  0.1906
 5481W        W21098   8.908   1.261   3.415 -0.2187 -0.2065 -0.2514
 5482W        W21099   6.327  12.389   5.887  0.0370  0.0346 -0.0111
 5483W        W21100   0.494   5.199  15.776  0.3180  0.0561 -0.2369
 5484W        W21101  16.838   9.910   0.263 -0.3035 -0.0233 -0.1544
 5485W        W21102   6.125   9.031   4.232  0.3170  0.0092 -0.1237
 5486W        W21103  17.430  17.811  13.922  0.0510  0.0334  0.0944
 5487W        W21104   1.549  10.166  15.120  0.0575  0.1426  0.1580
 5488W        W21105   2.328   1.998  14.847  0.0880  0.0951  0.1938
 5489W        W21106   8.978   1.455  11.679 -0.2045  0.0743  0.4484
 5490W        W21107   3.564   5.085   1.765  0.0159  0.0377 -0.0008
 5491W        W21108   2.655  11.504  14.033  0.3332  0.0493 -0.3083
 5492W        W21109  11.016   8.281  13.641 -0.0247 -0.2799 -0.0630
 5493W        W21110  10.592   7.434   2.683  0.1112 -0.3606  0.0558
 5494W        W21111  16.157   0.242  14.961  0.1958 -0.3711  0.1128
 5495W        W21112  11.695   1.150   4.324 -0.3229  0.1179 -0.3898
 5496W        W21113  18.003   4.390   1.264  0.1529 -0.0545  0.3225
 5497W        W21114  16.010  10.342   2.205 -0.0945  0.0098 -0.2562
 5498W        W21115  15.777   6.020  13.291  0.0668 -0.3621 -0.2539
 5499W        W21116   2.074   5.207   1.893 -0.2533 -0.1295 -0.2095
 5500W        W21117  11.779   1.425   4.741 -0.1891  0.0020 -0.0218
 5501W        W21118  10.885  15.358   0.599 -0.2044  0.0607 -0.1854
 5502W        W21119   5.408  18.200  11.991  0.2868  0.0185 -0.1697
 5503W        W21120  14.084  11.643   4.072 -0.0903  0.0896  0.1726
 5504W        W21121   1.963  11.850  12.516 -0.1770 -0.1282  0.0367
 5505W        W21122  12.181  10.041   3.567  0.3802  0.1607 -0.4300
 5506W        W21123   2.690   3.517   5.361  0.0378 -0.0296  0.0375
 5507W        W21124   1.758  11.599   4.351 -0.1306  0.1858 -0.0977
 5508W        W21125  15.173  17.959  12.924  0.0786  0.3372  0.2627
 5509W        W21126   1.552   2.981   5.816 -0.1586 -0.0919  0.2207
 5510W        W21127  14.526   2.202  13.893  0.1734  0.0256 -0.5128
 5511W        W21128  16.798  14.118   1.064  0.1955  0.1371  0.1694
 5512W        W21129   1.714   7.930  11.879 -0.2663  0.0627 -0.3067
 5513W        W21130  17.449  15.182   1.859 -0.1037 -0.0582  0.1488
 5514W        W21131   4.777   8.478   1.580  0.0058 -0.0919  0.3383
 5515W        W21132  18.414   4.785  11.368 -0.1165  0.2958  0.0076
 5516W        W21133   6.615   1.608  14.215 -0.0126 -0.0567  0.2930
 5517W        W21134   7.043  16.844   1.924 -0.4495  0.1237  0.0745
 5518W        W21135  15.277   1.432  12.907  0.0935 -0.0184  0.2647
 5519W        W21136   9.106  12.364   1.389 -0.1421  0.3450  0.1074
 5520W        W21137   0.920   1.031   4.314 -0.2331  0.2233 -0.3184
 5521W        W21138  16.731  13.396  10.177 -0.0267 -0.1039  0.1618
 5522W        W21139   0.057   6.156   5.115  0.0741 -0.2736  0.3572
 5523W        W21140  10.514   1.263  15.825  0.1916 -0.4119 -0.0043
 5524W        W21141  11.961   1.756   2.127 -0.2049 -0.0157 -0.4402
 5525W        W21142  10.878   1.787   3.723 -0.0648  0.2676 -0.0905
 5526W        W21143   0.208  17.807  13.040 -0.1300  0.0081 -0.0631
 5527W        W21144   1.255  11.620  13.698 -0.1263  0.1004 -0.0604
 5528W        W21145  18.078  12.381   5.489 -0.3833  0.0424  0.0108
 5529W        W21146   6.757  16.515   2.569 -0.0391  0.2847 -0.0274
 5530W        W21147  11.967  12.441   1.999  0.0114  0.1967  0.0384
 5531W        W21148   0.838   7.261  14.490  0.2802  0.0369 -0.3387
 5532W        W21149   0.213  15.506   0.715  0.1262  0.1860 -0.3900
 5533W        W21150   9.862   5.575  15.847 -0.3111  0.3157  0.2198
 5534W        W21151   7.238  12.822  11.628  0.1733  0.0852 -0.1585
 5535W        W21152  15.056  14.430  16.097 -0.2153  0.1740  0.1585
 5536W        W21153  10.363   1.374   1.488 -0.1917 -0.0582 -0.1724
 5537W        W21154   2.832   9.484  14.907 -0.1822  0.2803  0.1381
 5538W        W21155   9.155  17.763   5.802  0.0347  0.0829  0.0572
 5539W        W21156   2.828  12.099   4.967 -0.0251 -0.1025  0.3333
 5540W        W21157   5.664   3.992   5.369  0.0916 -0.0985 -0.0879
 5541W        W21158  17.159   5.290   5.111 -0.3422  0.3277 -0.2157
 5542W        W21159   5.222   3.541   0.474  0.2742 -0.1537 -0.1213
 5543W        W21160   5.706  11.795  15.437 -0.0110 -0.1649  0.2193
 5544W        W21161  16.586   8.417   4.080 -0.0512 -0.1925 -0.1544
 5545W        W21162  11.360  12.492  16.061  0.0587  0.0276 -0.1151
 5546W        W21163  12.727   8.229  15.772 -0.2077 -0.1491  0.0070
 5547W        W21164   7.588   5.269   4.588 -0.3062 -0.1799  0.1858
 5548W        W21165   2.336   6.166  11.586  0.1520  0.1020  0.1965
 5549W        W21166  15.657   6.369   0.779 -0.1190  0.0976 -0.2704
 5550W        W21167   6.925  14.899  14.885  0.0419  0.0790  0.2454
 5551W        W21168  13.843   0.150   4.217  0.1703  0.1425  0.0550
 5552W        W21169  14.306   2.186  15.768 -0.0514  0.1529  0.2702
 5553W        W21170   9.773   4.038  15.887  0.1304 -0.1375  0.0564
 5554W        W21171   2.572   1.796   2.256 -0.2334  0.3247 -0.2930
 5555W        W21172  13.451  17.756  13.112 -0.1499 -0.2973 -0.5920
 5556W        W21173  16.284  10.327  12.192 -0.1167 -0.2174  0.1208
 5557W        W21174   1.084  10.712  14.348  0.1193 -0.0889  0.3833
 5558W        W21175   6.612  16.741   3.022  0.3437  0.0513  0.2505
 5559W        W21176  11.912  14.855   2.894 -0.0683  0.2278 -0.1206
 5560W        W21177  15.956   3.239  12.851  0.1521 -0.0410 -0.1362
 5561W        W21178  13.531   2.208  15.998  0.0464 -0.1126 -0.0374
 5562W        W21179  14.084   6.655   0.995 -0.2257  0.0481  0.1116
 5563W        W21180  12.545  13.731  11.922  0.1540  0.0797  0.2550
 5564W        W21181  18.247   2.633  12.704 -0.1120 -0.0438 -0.0841
 5565W        W21182   7.494  17.711   5.569  0.2574 -0.0197  0.2148
 5566W        W21183   7.802  14.116  12.680  0.2511 -0.0891  0.2254
 5567W        W21184  17.079  13.304   0.312  0.0095 -0.4316 -0.1423
 5568W        W21185  10.670  11.421   1.665  0.1859 -0.0879 -0.1444
 5569W        W21186  12.869  10.332  12.048  0.3315  0.0214 -0.0561
 5570W        W21187   2.141  11.239   0.807 -0.1487  0.0328  0.0301
 5571W        W21188  17.679   0.413  15.842  0.1857 -0.1967  0.0322
 5572W        W21189   7.074  16.591   1.030  0.2617 -0.1419  0.1023
 5573W        W21190  14.543  16.189   0.403  0.0140  0.0954 -0.0167
 5574W        W21191   2.571   9.433   5.368 -0.1364 -0.1069  0.0768
 5575W        W21192   2.223  12.255  13.528 -0.2380  0.0986 -0.0463
 5576W        W21193   9.147  15.752   2.736 -0.0424 -0.0927  0.1197
 5577W        W21194   7.648   7.734  14.188  0.2734  0.1908  0.3081
 5578W        W21195  17.067  14.350  13.961 -0.3081 -0.0835 -0.0650
 5579W        W21196   4.680  17.376  14.100 -0.0467  0.0970  0.0622
 5580W        W21197   8.117   9.904  12.006  0.0049  0.2910  0.1306
 5581W        W21198  17.549   9.939  12.283  0.2580  0.0141 -0.0260
 5582W        W21199  10.653   9.710   0.443 -0.0490  0.3066  0.3704
 5583W        W21200   7.526   5.436   3.381  0.2711  0.1355 -0.1676
 5584W        W21201   6.393   6.619   4.671  0.0489  0.1416  0.0567
 5585W        W21202   3.594   8.632   0.733 -0.1064  0.1371 -0.0494
 5586W        W21203  13.312  10.957  13.534 -0.0907 -0.1932  0.1328
 5587W        W21204   2.766   6.987  15.217 -0.2300  0.2576  0.1506
 5588W        W21205  11.719   6.789  12.835  0.0350 -0.1277  0.1740
 5589W        W21206  14.663  16.601   0.734  0.2080  0.1445 -0.4924
 5590W        W21207   2.060   8.726   2.664  0.1281  0.1338  0.1983
 5591W        W21208  16.079   2.369   0.598  0.1449 -0.0039  0.0638
 5592W        W21209   1.218   0.926   2.205  0.0168 -0.1857 -0.2234
 5593W        W21210  15.489  11.666  12.955 -0.0176 -0.2337 -0.0236
 5594W        W21211   2.606   1.951  15.821 -0.1830  0.0251 -0.1374
 5595W        W21212  13.165  16.288   2.795  0.0038  0.0905 -0.1687
 5596W        W21213  12.693  15.682   0.148  0.1000  0.2188  0.2042
 5597W        W21214   1.016   4.749  16.106 -0.2192  0.0354 -0.3036
 5598W        W21215  12.041   8.301   3.547  0.1258 -0.1439 -0.2638
 5599W        W21216  15.111   1.334   2.371 -0.2805  0.3008  0.4063
 5600W        W21217   2.301   5.378  12.089 -0.1878  0.1087  0.0207
 5601W        W21218  10.823  16.070  15.561  0.0133  0.1545 -0.0773
 5602W        W21219   2.024   5.864  12.868 -0.0217 -0.2696  0.2285
 5603W        W21220   5.141  10.518  15.751 -0.0783  0.3157 -0.1170
 5604W        W21221   2.431   1.215  14.303  0.0094 -0.0241  0.3425
 5605W        W21222   6.685  12.710   1.155  0.0221 -0.0843  0.1881
 5606W        W21223   8.808  14.223  15.446 -0.1073  0.4239  0.0654
 5607W        W21224   3.273  11.920  15.533  0.0929  0.2828 -0.1488
 5608W        W21225  16.131   3.460   2.002  0.1795 -0.0649  0.0081
 5609W        W21226   9.577  15.390   4.913  0.0284 -0.0523 -0.0539
 5610W        W21227  11.828   3.053   4.660 -0.0830 -0.2228  0.1404
 5611W        W21228  17.861  14.273  10.697  0.2093 -0.1231  0.3274
 5612W        W21229  11.320   8.940  14.615  0.0937  0.0038  0.1516
 5613W        W21230   0.146   0.150  15.081  0.0585  0.1113 -0.4292
 5614W        W21231   0.665  10.204   1.649  0.3612 -0.0671 -0.1754
 5615W        W21232   1.798   3.306  13.577  0.1677  0.2474  0.3488
 5616W        W21233  13.963   7.288   0.700  0.0533 -0.1124  0.0293
 5617W        W21234   2.837   7.326   1.461  0.0950  0.0994 -0.0506
 5618W        W21235   8.845   7.470   0.386 -0.2868  0.0257  0.0197
 5619W        W21236   2.683  13.379  15.313  0.0070  0.0394 -0.2664
 5620W        W21237  13.252  15.104   4.697  0.0902 -0.3632 -0.0436
 5621W        W21238   9.515  14.136   0.146  0.0217  0.1213  0.1106
 5622W        W21239  18.079   4.367   0.641 -0.1846  0.3607  0.2149
 5623W        W21240  13.748  17.424  15.705 -0.0168  0.1975 -0.0701
 5624W        W21241   4.517  17.892  12.765 -0.1351 -0.1905 -0.1952
 5625W        W21242  15.107   4.183  15.982  0.1467 -0.1828 -0.0459
 5626W        W21243   1.085   5.305  14.118  0.0294  0.1687 -0.0115
 5627W        W21244   9.906   6.557   5.615  0.1010  0.1480  0.1005
 5628W        W21245  12.355   5.949   2.382 -0.1654 -0.0131  0.3355
 5629W        W21246   7.033   7.354   3.329  0.3475  0.1743 -0.2147
 5630W        W21247  16.476   4.661   3.220 -0.4236  0.0886  0.0353
 5631W        W21248  17.436  18.433   1.770  0.1268 -0.0974 -0.0992
 5632W        W21249   9.381  11.929   1.215 -0.1891  0.1993  0.0122
 5633W        W21250   0.860  17.926   1.295 -0.2408  0.0948  0.0099
 5634W        W21251   8.442   5.234   0.719 -0.1653  0.2014 -0.2383
 5635W        W21252   6.422  16.796   5.340 -0.0440  0.2258  0.0288
 5636W        W21253  13.104  11.749   1.581 -0.2563  0.1550 -0.0705
 5637W        W21254   6.242   0.461   4.990  0.1091 -0.0966 -0.0330
 5638W        W21255   1.570   2.957   2.898 -0.4459 -0.1157  0.1100
 5639W        W21256   4.594  15.350  12.457  0.1189  0.4230  0.0262
 5640W        W21257   0.329  13.491   3.354  0.2487  0.2705  0.6275
 5641W        W21258   4.767  18.146  13.117  0.4302 -0.0668 -0.1706
 5642W        W21259   4.723   4.140   3.840  0.2548  0.1730  0.1376
 5643W        W21260   9.173  14.788  13.032  0.0279 -0.0498 -0.1202
 5644W        W21261   6.497   0.622   5.373 -0.3204 -0.5360  0.1464
 5645W        W21262   3.323   1.466   0.845  0.1534 -0.2378 -0.1011
 5646W        W21263   5.545   6.471  10.697 -0.1146  0.0337 -0.2166
 5647W        W21264  14.979  15.454  14.454 -0.1163  0.0774 -0.1034
 5648W        W21265   7.743  16.153  11.183 -0.0426 -0.0718  0.0093
 5649W        W21266   3.810   5.979   1.210  0.2115  0.1184  0.0109
 5650W        W21267   6.732  12.069   1.731  0.5877 -0.1925  0.1864
 5651W        W21268   9.097   8.505  13.885  0.0506  0.1255  0.0143
 5652W        W21269  14.501   1.214   3.017 -0.1950 -0.3220  0.0288
 5653W        W21270  17.711  14.970   2.535 -0.2012 -0.0517  0.2392
 5654W        W21271  10.704   5.666  14.344  0.0046  0.4385 -0.2656
 5655W        W21272  12.677  16.693  10.906  0.5007 -0.4789 -0.2939
 5656W        W21273  12.000   3.144  15.397  0.0814  0.2482  0.2473
 5657W        W21274   8.725  18.275   1.183 -0.2922 -0.1518 -0.2283
 5658W        W21275   1.139  14.076   5.433 -0.0667 -0.0899  0.1937
 5659W        W21276   4.028   6.731   3.430 -0.0838  0.3426  0.0293
 5660W        W21277   6.002  16.520   6.298 -0.3144 -0.0621  0.0250
 5661W        W21278   2.122   5.621   2.237  0.1795  0.0030 -0.0110
 5662W        W21279   7.602   9.256  13.204  0.1014 -0.0999  0.3728
 5663W        W21280   6.685  15.864  15.957  0.1880  0.3552 -0.0330
 5664W        W21281   1.868  12.565  13.791 -0.1465 -0.0410 -0.2201
 5665W        W21282   3.836  11.404   2.512 -0.2842 -0.0103 -0.1438
 5666W        W21283  11.018   0.975  12.895  0.0242  0.0598  0.2430
 5667W        W21284  12.713   6.493   4.616 -0.0022  0.2454 -0.2866
 5668W        W21285   0.230   5.707   5.176 -0.0665  0.3282  0.1415
 5669W        W21286   7.154  14.505  14.495 -0.0924  0.0613 -0.3836
 5670W        W21287  17.499  14.351   1.668  0.4585 -0.2787  0.0652
 5671W        W21288  13.113   4.387   3.694  0.1186 -0.0386  0.0241
 5672W        W21289   8.924   3.703   9.463  0.2233  0.2009  0.0485
 5673W        W21290  17.362  18.436   2.287 -0.0529  0.0118  0.2112
 5674W        W21291   2.320  17.070   6.464 -0.3348  0.1773 -0.0651
 5675W        W21292  10.957   3.053   0.071  0.2183 -0.0895 -0.1426
 5676W        W21293  17.856  11.482   3.067  0.0794 -0.0016 -0.2206
 5677W        W21294  18.236   3.893  13.529 -0.0649 -0.4373  0.1538
 5678W        W21295  11.723  16.692   0.157 -0.3535 -0.1991  0.1039
 5679W        W21296   2.267   6.718  15.068 -0.0671  0.0762 -0.0008
 5680W        W21297   4.166  15.447   0.482  0.1869 -0.0572 -0.1798
 5681W        W21298  13.344  17.138  13.803 -0.1432 -0.0850  0.0849
 5682W        W21299   4.575   4.406  14.317 -0.0546 -0.2498  0.0030
 5683W        W21300   1.533  15.951  15.274  0.3215  0.1844  0.0110
 5684W        W21301   5.308  16.119   3.571 -0.3849  0.1874  0.1486
 5685W        W21302   4.526   8.125  13.020 -0.0175  0.0680  0.4587
 5686W        W21303   7.267   5.826   4.286  0.1311 -0.0810 -0.1068
 5687W        W21304  11.982   9.780   0.178 -0.1600  0.0849 -0.0343
 5688W        W21305   4.774   5.919  10.795 -0.1189  0.2515  0.1079
 5689W        W21306   8.457  15.520   5.526 -0.1784  0.2549 -0.2127
 5690W        W21307   9.024   0.695   1.293 -0.2082 -0.1228  0.0972
 5691W        W21308  15.998   1.779  13.353 -0.1707  0.0241  0.3232
 5692W        W21309  14.978  11.051  13.003 -0.1459 -0.1009 -0.3697
 5693W        W21310   4.007  18.383   4.605  0.0059  0.3211  0.1093
 5694W        W21311   8.568   3.204  14.552 -0.1556  0.1839 -0.0291
 5695W        W21312  15.142   7.133  15.081 -0.0074  0.0461 -0.2253
 5696W        W21313   9.513  11.891   1.993  0.2361  0.1402 -0.2497
 5697W        W21314   6.580  13.262   5.441  0.1784 -0.0136 -0.1346
 5698W        W21315   5.314   3.398  11.181 -0.1366  0.2707 -0.0790
 5699W        W21316   2.426  13.563  11.838 -0.1236  0.1880  0.1432
 5700W        W21317   4.438  18.392  12.799 -0.1836 -0.1855  0.1732
 5701W        W21318   7.924  11.125  14.488 -0.1194  0.0571 -0.0656
 5702W        W21319   5.391   7.600   2.328  0.2264 -0.0629  0.1209
 5703W        W21320  16.765  10.963   2.557 -0.0688 -0.1258  0.2864
 5704W        W21321  16.062   3.550   2.540  0.1139  0.0617  0.0462
 5705W        W21322  15.512   2.386  15.077  0.1879  0.0350  0.1296
 5706W        W21323   5.433   8.356  13.064  0.1361 -0.1187 -0.2105
 5707W        W21324   3.981  16.267   1.400  0.0494 -0.2143  0.1268
 5708W        W21325   2.222  17.973  15.917  0.0120 -0.0014  0.4099
 5709W        W21326  14.945  14.285  15.148 -0.0804  0.0599  0.0083
 5710W        W21327  18.438  17.865  13.874 -0.1224  0.2626 -0.0811
 5711W        W21328  15.955  18.418  15.321  0.0208  0.0454 -0.1072
 5712W        W21329  10.933   4.920   4.712 -0.0172 -0.5089  0.0753
 5713W        W21330   7.147   8.960  11.718 -0.5136  0.0349  0.2708
 5714W        W21331  15.630  12.508  15.418  0.0813  0.0574 -0.1128
 5715W        W21332   0.311  18.034   4.263  0.1028 -0.1821  0.0321
 5716W        W21333   3.338  11.463  12.841 -0.0029 -0.2698 -0.1847
 5717W        W21334  16.198  13.924   2.908 -0.1466  0.3005 -0.0645
 5718W        W21335   2.354  18.452   1.040 -0.2622 -0.3378 -0.2182
 5719W        W21336   4.170  14.268   1.301 -0.1998 -0.1082  0.0505
 5720W        W21337   1.709  17.845   1.248  0.0923  0.1067  0.0697
 5721W        W21338   0.153   1.847   2.003  0.0471  0.1650  0.1808
 5722W        W21339  15.780  15.652  11.445 -0.1098 -0.1759  0.2470
 5723W        W21340   2.694   9.332   1.663  0.1286 -0.1953  0.0905
 5724W        W21341   3.452  17.078  14.332  0.0036 -0.3464  0.1015
 5725W        W21342  14.428   0.206   4.971  0.0551  0.2086  0.2118
 5726W        W21343  13.570   0.721   0.816  0.0139 -0.0080  0.1474
 5727W        W21344  14.945  16.134   0.731  0.0174 -0.2298 -0.0370
 5728W        W21345  11.074   8.667  14.955 -0.4189  0.0509  0.1212
 5729W        W21346  11.411   0.258   4.503  0.1906  0.1864 -0.2485
 5730W        W21347   5.167  12.832   5.534  0.1611 -0.0559  0.2423
 5731W        W21348   5.200  12.235  13.482  0.6107 -0.0001  0.0430
 5732W        W21349  10.440  13.842   0.509  0.0973 -0.1320  0.0801
 5733W        W21350  11.590   2.963  15.941 -0.2689  0.1720  0.1038
 5734W        W21351   5.182   1.016   0.302  0.0732 -0.2164  0.2973
 5735W        W21352   0.208  17.370  14.769  0.0853  0.0197 -0.3157
 5736W        W21353  17.105  13.036  12.379  0.1603 -0.2141 -0.0309
 5737W        W21354  14.041   5.751  14.064 -0.0956  0.2212 -0.1487
 5738W        W21355   1.585  10.411  15.601  0.1245 -0.1255 -0.4871
 5739W        W21356   3.614  10.916  15.877  0.0757  0.2818  0.0278
 5740W        W21357  10.663   5.587  13.746  0.2748 -0.2321 -0.0415
 5741W        W21358   9.881  14.574   5.066 -0.2663 -0.0257 -0.1479
 5742W        W21359  15.250   9.837  11.582  0.1629  0.3278  0.2181
 5743W        W21360  15.952   5.814   4.149  0.1815 -0.0454 -0.2050
 5744W        W21361  16.660  14.901   2.249 -0.1871  0.0274 -0.1044
 5745W        W21362   3.747   1.239   5.593  0.0411  0.3296  0.2448
 5746W        W21363   4.435   4.544  11.761  0.0710 -0.0482  0.0769
 5747W        W21364   2.323  10.114  11.399  0.0208  0.3394  0.2731
 5748W        W21365  10.539   3.464  13.864  0.0522  0.1790 -0.1254
 5749W        W21366  11.882  12.341  14.329 -0.1176  0.0286 -0.1132
 5750W        W21367   0.814   0.111  12.048 -0.0410 -0.1389 -0.1602
 5751W        W21368  17.333   6.291  14.748 -0.5035  0.0284  0.1878
 5752W        W21369   4.961  18.234  14.452  0.2484  0.3121  0.2166
 5753W        W21370   8.081  14.128   6.659 -0.3216 -0.0544 -0.0495
 5754W        W21371   8.588   4.883  15.628  0.2713 -0.1311  0.0932
 5755W        W21372   0.793   8.215  14.931 -0.2044  0.1595 -0.1045
 5756W        W21373   8.082  16.761  15.950 -0.0319 -0.1889  0.0356
 5757W        W21374   6.678   0.803   4.169 -0.1206  0.2366  0.2986
 5758W        W21375  13.623   9.085   2.983 -0.0539 -0.0194  0.0375
 5759W        W21376   2.013   6.424   1.640 -0.1611 -0.2434 -0.0747
 5760W        W21377  12.887  14.581  12.160 -0.4286 -0.2319  0.2639
 5761W        W21378   6.080  14.100   2.099  0.1020  0.1644  0.4174
 5762W        W21379  10.537   1.620   4.117  0.0241  0.3164 -0.0051
 5763W        W21380  13.464  14.904   0.914  0.0564  0.0339  0.3076
 5764W        W21381   6.548   5.496  12.418  0.2307  0.2151 -0.0395
 5765W        W21382   2.105  11.029  14.019 -0.4158 -0.0354  0.1247
 5766W        W21383  14.812   6.284  11.913  0.1538 -0.0976  0.2576
 5767W        W21384  16.604   7.394  14.357  0.1515 -0.2144 -0.0441
 5768W        W21385   4.570   7.636  13.918  0.0917 -0.2660  0.0584
 5769W        W21386   6.674  16.323   1.228  0.2373  0.0130  0.1548
 5770W        W21387   3.175   7.695   0.048 -0.2690 -0.3177 -0.0759
 5771W        W21388  15.303  16.624   4.539  0.1713 -0.2603  0.2898
 5772W        W21389   2.693  14.069  14.067 -0.1632 -0.1607  0.1887
 5773W        W21390   2.855   9.847   1.717 -0.1343 -0.1548  0.0420
 5774W        W21391  14.375  13.505   3.702 -0.0319 -0.1140  0.2029
 5775W        W21392   9.790   7.507  14.370 -0.1740  0.1079 -0.0838
 5776W        W21393   0.634   1.156   3.037 -0.2482 -0.3595 -0.0214
 5777W        W21394  10.571  18.445   4.470 -0.0361  0.0607  0.0935
 5778W        W21395  12.462   0.245   4.234 -0.0896  0.0627 -0.1426
 5779W        W21396   9.763  14.569  13.774  0.0345 -0.0956  0.2840
 5780W        W21397   3.458  14.907  15.926  0.1466 -0.1848  0.1530
 5781W        W21398   3.361   9.834   0.797 -0.0299 -0.1879  0.2228
 5782W        W21399   8.464   0.460  14.998 -0.0524 -0.0538 -0.0918
 5783W        W21400  10.824   0.817   4.209  0.1461 -0.1116 -0.0456
 5784W        W21401   1.575   7.792   5.182  0.1616 -0.0267 -0.0597
 5785W        W21402   5.540   8.574  12.363 -0.1980  0.0685  0.1848
 5786W        W21403   5.459   6.092  14.877  0.0142  0.1116 -0.2900
 5787W        W21404   4.660  12.918   5.402  0.3752 -0.0835  0.0368
 5788W        W21405   0.801   6.046  15.815 -0.0965 -0.3037 -0.0062
 5789W        W21406  15.830   1.547  15.875  0.3935 -0.0534 -0.2115
 5790W        W21407  12.434  18.234   1.234  0.2487  0.1759 -0.1854
 5791W        W21408  14.037   7.305   0.120 -0.0160  0.0499  0.3336
 5792W        W21409   4.859   2.808   3.799 -0.3203 -0.1869  0.0645
 5793W        W21410   5.883  13.014  14.246  0.0224 -0.1592 -0.2080
 5794W        W21411   4.392   5.517   3.917  0.0463  0.2639  0.4173
 5795W        W21412   1.789  16.911   5.718 -0.0959  0.4885  0.2299
 5796W        W21413   8.088   4.103  13.709 -0.2063  0.2102  0.0462
 5797W        W21414   6.752   1.006   3.716 -0.1146  0.2465 -0.1128
 5798W        W21415  11.535   1.022  14.475 -0.0049 -0.1568 -0.2174
 5799W        W21416   5.800  17.765   4.497 -0.1608 -0.2157  0.1119
 5800W        W21417  10.234   4.518  13.823 -0.1679 -0.1041  0.0780
 5801W        W21418   6.604   9.456   3.755  0.3671 -0.1852 -0.0117
 5802W        W21419  10.108   4.248   0.216 -0.0975  0.1775  0.1637
 5803W        W21420  13.491  11.987  16.067 -0.2437 -0.0049  0.2297
 5804W        W21421   3.040   5.174  15.430  0.1712  0.1064 -0.0718
 5805W        W21422   5.077  15.585   4.530  0.1368 -0.0498 -0.1992
 5806W        W21423  16.030   8.950   5.367 -0.2341  0.3636 -0.3710
 5807W        W21424   3.262   7.710  15.668 -0.1251 -0.0022 -0.3106
 5808W        W21425   2.192  15.230   1.675  0.2287 -0.1221 -0.1276
 5809W        W21426  18.292   4.200   4.608 -0.2148  0.0316 -0.0412
 5810W        W21427  10.810   1.508  10.619 -0.6851  0.0078 -0.0115
 5811W        W21428  15.550  16.129  13.558 -0.2950  0.3548 -0.2697
 5812W        W21429  16.441  12.214   1.553  0.0388  0.0959 -0.2955
 5813W        W21430   9.718  10.504   4.184 -0.1695 -0.0340 -0.0344
 5814W        W21431  17.079   1.518   3.315  0.1252 -0.0338 -0.0032
 5815W        W21432  10.974   8.189   4.134  0.3006 -0.0055 -0.0301
 5816W        W21433  14.698   2.540   5.448  0.0210 -0.0753 -0.0992
 5817W        W21434   8.191  18.116   3.938  0.2187  0.0623  0.3261
 5818W        W21435   6.330   5.351  14.566  0.1164  0.0713 -0.1698
 5819W        W21436  15.190   9.042  14.088  0.2381  0.1259 -0.1465
 5820W        W21437   3.878   7.664  14.331  0.2336  0.1668 -0.0358
 5821W        W21438   2.230   1.744   2.627 -0.0650  0.3541 -0.0722
 5822W        W21439  11.442   6.651   1.679  0.2380  0.1562  0.3118
 5823W        W21440   3.170  11.523   4.355 -0.0986 -0.0023 -0.5305
 5824W        W21441   8.881  12.858   0.714  0.4165 -0.0393 -0.0276
 5825W        W21442   6.600  15.861   1.133  0.4130  0.1029 -0.0041
 5826W        W21443   5.433  12.402   1.646  0.2646  0.1022  0.1778
 5827W        W21444  13.642   0.603   4.431  0.0155  0.2999  0.0012
 5828W        W21445  16.826  15.794  12.853 -0.0472 -0.2644  0.1909
 5829W        W21446  17.971  11.896  11.159 -0.1841 -0.1969 -0.1533
 5830W        W21447  17.616   1.739   0.156  0.0874 -0.1090 -0.1806
 5831W        W21448   9.777  17.234  11.779 -0.3179  0.0838 -0.2303
 5832W        W21449  18.239  10.981  13.396 -0.3099 -0.1136  0.2542
 5833W        W21450  11.682   4.150   2.670  0.6510  0.0222 -0.2228
 5834W        W21451   6.142   0.456  15.424 -0.0522  0.0375 -0.0048
 5835W        W21452  16.247  11.077  12.870 -0.0403 -0.2537 -0.0641
 5836W        W21453  17.445   5.911  12.666  0.0652  0.3058 -0.1591
 5837W        W21454  15.301  15.223   2.063  0.0088  0.2963 -0.2508
 5838W        W21455   3.979   7.708   5.059 -0.2112 -0.1989  0.2396
 5839W        W21456  15.887   2.447  12.209 -0.0966 -0.1763  0.0205
 5840W        W21457  10.397   6.379   1.073 -0.0245 -0.0449  0.2526
 5841W        W21458  18.152  12.818   3.985  0.1923 -0.1509 -0.0347
 5842W        W21459   9.364   5.645   3.814  0.1230  0.2170  0.2477
 5843W        W21460  16.999   9.911  12.017 -0.0996 -0.1623 -0.0419
 5844W        W21461   6.354   6.054   4.698  0.1724 -0.0694 -0.1591
 5845W        W21462   6.869  15.744  12.792 -0.2576  0.0171 -0.2753
 5846W        W21463   1.645   3.220  12.610 -0.4828  0.2535 -0.0582
 5847W        W21464   7.510  13.313  11.966 -0.1056  0.1458 -0.1510
 5848W        W21465  16.428   8.180   0.233  0.1640  0.1719  0.0820
 5849W        W21466  15.366  11.293   5.178 -0.0879 -0.0767 -0.2048
 5850W        W21467  16.117   7.864   1.956 -0.2189 -0.2098  0.0632
 5851W        W21468  13.416   9.801  11.687  0.1356 -0.0741  0.1425
 5852W        W21469  10.354  14.189  11.720 -0.0466  0.1005  0.0130
 5853W        W21470  12.083   2.804  15.830 -0.0638 -0.3830  0.1154
 5854W        W21471   3.515   0.342   0.777  0.0772  0.4364  0.1096
 5855W        W21472   1.281   4.697   1.942 -0.3522 -0.0666  0.0862
 5856W        W21473  12.208  15.398   4.036 -0.3057 -0.0174 -0.0952
 5857W        W21474  10.720   4.260  11.118  0.3077  0.2225  0.1015
 5858W        W21475  10.179   7.652  10.602 -0.2316 -0.0775 -0.0516
 5859W        W21476   8.346  12.237  15.091 -0.3197 -0.2964  0.0943
 5860W        W21477   8.413   2.684   4.004 -0.2940 -0.0511  0.0765
 5861W        W21478  12.870  17.306  14.674  0.1733  0.2833  0.2236
 5862W        W21479  13.724   3.808  14.087 -0.0618  0.4171 -0.2689
 5863W        W21480   7.183  11.657  13.819  0.0811 -0.3229  0.0872
 5864W        W21481  17.147  17.166  15.527  0.0435 -0.1301 -0.0830
 5865W        W21482   6.625  17.397   2.548  0.2466  0.1050  0.0691
 5866W        W21483  12.502   8.703  14.139  0.1641 -0.1624 -0.2173
 5867W        W21484   7.147   4.083   4.137 -0.0435 -0.2953  0.1167
 5868W        W21485  18.440   8.999   2.114  0.0521 -0.1619 -0.1345
 5869W        W21486   2.530  10.561  15.285 -0.5442  0.1149  0.1432
 5870W        W21487  17.247  11.624  15.780  0.2287  0.0333  0.0882
 5871W        W21488  16.225  14.656  14.891  0.1678 -0.4555 -0.0763
 5872W        W21489  15.960   5.771   4.673  0.2742 -0.4167 -0.1962
 5873W        W21490  16.454   8.641   1.023 -0.0290  0.1942  0.2908
 5874W        W21491  15.332  13.988   2.030  0.0361  0.1055  0.0142
 5875W        W21492  14.492   0.038  11.142  0.2299 -0.0710  0.0867
 5876W        W21493   2.054   4.129  11.255 -0.1819 -0.0775 -0.3817
 5877W        W21494  15.759   7.674   1.487 -0.0269  0.1651  0.0448
 5878W        W21495   2.825  12.784   1.524 -0.0300  0.2658  0.0116
 5879W        W21496   4.610   7.427   3.169  0.0500  0.0922  0.0801
 5880W        W21497   5.112  11.546  14.127 -0.0728 -0.1487 -0.1368
 5881W        W21498   3.905  16.809  12.213 -0.1908 -0.2063  0.1036
 5882W        W21499  14.027  11.110  11.619  0.0577  0.0627  0.0791
 5883W        W21500   2.466   4.215   2.208 -0.0157  0.0705 -0.0688
 5884W        W21501   0.810   0.446   1.032 -0.1768 -0.0029  0.0136
 5885W        W21502  12.824  10.119   2.230  0.0812  0.4501  0.3179
 5886W        W21503   3.168   4.827   2.944 -0.3842 -0.0812  0.3042
 5887W        W21504  15.240  16.519  16.134 -0.2508 -0.3306 -0.1036
 5888W        W21505   1.621   4.111  11.801 -0.2499  0.1692  0.1671
 5889W        W21506   1.156   3.799   1.558 -0.2733  0.0714  0.0868
 5890W        W21507   0.635  12.972  14.259  0.0504 -0.2558 -0.1781
 5891W        W21508   4.665  12.568  16.085  0.0172  0.1362  0.1615
 5892W        W21509   0.564   8.121  13.114  0.0326 -0.3255  0.0818
 5893W        W21510  11.446  16.821  12.694  0.2227 -0.1340 -0.3745
 5894W        W21511  14.613   5.460   0.266  0.1853  0.0001  0.0369
 5895W        W21512  17.345   9.079  10.187 -0.1333  0.0468 -0.0685
 5896W        W21513   4.816   4.855  11.754 -0.1471 -0.0887  0.1481
 5897W        W21514  11.945   6.922   4.032 -0.1721  0.3290  0.2030
 5898W        W21515  10.037  14.764  15.648 -0.2885 -0.0724  0.0982
 5899W        W21516   7.823   1.399  13.100  0.1130  0.0584 -0.1789
 5900W        W21517  11.622  17.615  11.340 -0.0947  0.0163 -0.1589
 5901W        W21518  14.072   1.629   2.356 -0.2228 -0.1093 -0.1279
 5902W        W21519  12.055  15.701  12.256  0.1526 -0.0757  0.2319
 5903W        W21520   6.261   2.297  15.902  0.0439 -0.2166  0.0190
 5904W        W21521   2.612   9.290  12.901 -0.0410 -0.1460 -0.2899
 5905W        W21522   9.721   6.168   1.156  0.6099  0.1763 -0.3331
 5906W        W21523  17.210  14.606   1.006 -0.0570  0.1428  0.1914
 5907W        W21524   6.648   4.496   2.603  0.0210 -0.1132  0.0789
 5908W        W21525  16.088  14.791  14.057 -0.1980 -0.2006  0.0825
 5909W        W21526   0.027   7.087   0.494  0.4724  0.4663  0.1843
 5910W        W21527  11.159   5.309  15.055  0.1724  0.0112  0.3527
 5911W        W21528  15.745   6.866   0.971 -0.4881  0.3205 -0.0056
 5912W        W21529   1.153   4.422  14.579 -0.1211  0.1986 -0.1420
 5913W        W21530   4.459  16.523   3.379  0.0041 -0.0135 -0.4147
 5914W        W21531  15.391   4.523   4.185  0.1750  0.4065  0.1510
 5915W        W21532  16.919  10.628   5.029 -0.1111 -0.5029  0.0435
 5916W        W21533  17.837   8.593   5.342 -0.2410 -0.1554 -0.0883
 5917W        W21534  15.712  11.473   1.238 -0.1193  0.0740 -0.1438
 5918W        W21535  11.539  13.769   4.529 -0.0558  0.0264 -0.0184
 5919W        W21536   6.338  11.132   5.383  0.1830  0.2229  0.1689
 5920W        W21537   0.821   6.470  10.513 -0.1112  0.0123 -0.2529
 5921W        W21538   2.899  17.615   0.059 -0.3403 -0.0065 -0.3750
 5922W        W21539   5.625   6.747   4.188 -0.0358  0.0205 -0.0022
 5923W        W21540   6.947  13.170   4.942  0.1921  0.0312  0.1455
 5924W        W21541  17.714  10.499  10.974 -0.3071 -0.1020  0.1002
 5925W        W21542  13.497   1.247  15.540 -0.1467  0.0283 -0.1379
 5926W        W21543  12.332   4.233  13.292 -0.1489  0.0317  0.0766
 5927W        W21544   1.904   6.454  11.468 -0.2063  0.0355 -0.0521
 5928W        W21545   9.733   8.266  11.273  0.1686 -0.0568 -0.0333
 5929W        W21546  15.322  11.031  13.884 -0.0144 -0.1158 -0.0940
 5930W        W21547   0.242   2.483   3.238 -0.1901  0.2146 -0.1376
 5931W        W21548   8.329   5.530   2.101  0.0571 -0.1461  0.2353
 5932W        W21549  10.950  16.943  14.932 -0.0281  0.0590 -0.0994
 5933W        W21550  11.355  11.672  12.305 -0.1432  0.1347  0.3610
 5934W        W21551   7.611   4.651  13.533  0.0819 -0.0662 -0.0176
 5935W        W21552  10.743   7.773  15.204 -0.0700  0.2388  0.0682
 5936W        W21553   0.782  14.542  14.668  0.2823 -0.3294  0.0806
 5937W        W21554   4.678   8.652  10.830 -0.3697  0.0351 -0.0427
 5938W        W21555   5.338  14.624  13.981  0.0853 -0.1173 -0.0500
 5939W        W21556  15.323  13.200   2.100 -0.0089 -0.0118 -0.3978
 5940W        W21557  13.032   9.029  12.973  0.0303 -0.0703 -0.1886
 5941W        W21558   5.512   4.115   3.599  0.1445  0.0123  0.0433
 5942W        W21559   9.104   1.218   5.293 -0.4152  0.0348 -0.1764
 5943W        W21560  13.064   0.791   5.162 -0.1753  0.0776  0.0784
 5944W        W21561  10.355  10.334   1.639  0.1915  0.0898 -0.2356
 5945W        W21562  12.366   5.624  15.715 -0.1183  0.0590 -0.0596
 5946W        W21563   1.434   5.396  12.464 -0.4047  0.2033 -0.0134
 5947W        W21564  10.857   4.618  15.742  0.1106 -0.1786  0.1552
 5948W        W21565  16.338   3.974  12.569 -0.1967 -0.0795  0.0032
 5949W        W21566   0.361  17.279  12.789 -0.0260  0.1559 -0.1849
 5950W        W21567   1.981  16.136  14.491 -0.0191 -0.0502 -0.2628
 5951W        W21568   6.662   8.766  13.492  0.1465 -0.1213  0.0137
 5952W        W21569  11.209  16.301  14.209  0.0255  0.1327  0.2400
 5953W        W21570  17.340  11.525   5.128  0.0140 -0.1655  0.0654
 5954W        W21571  10.606  18.036   2.939 -0.3883 -0.2308 -0.0119
 5955W        W21572   1.515  12.870   2.159  0.0783 -0.1898 -0.1398
 5956W        W21573  12.798   8.909   1.954 -0.2388  0.1812 -0.0918
 5957W        W21574   0.562  17.157   1.602  0.3085 -0.1035 -0.2757
 5958W        W21575  12.951  16.225   3.266  0.0299 -0.1687  0.0604
 5959W        W21576   0.649  13.500   3.832  0.2368  0.0663 -0.2646
 5960W        W21577  13.225   4.964   2.522 -0.1051 -0.2017 -0.2918
 5961W        W21578   0.818  11.284  11.288 -0.0604 -0.0595  0.0705
 5962W        W21579   3.639   0.344  14.969  0.0404  0.3173 -0.2716
 5963W        W21580  15.287   4.702   3.645  0.3494  0.0712  0.0114
 5964W        W21581  14.253   5.050   1.977 -0.0506  0.2106  0.0756
 5965W        W21582   0.222   0.908  12.567 -0.0597 -0.3415  0.0249
 5966W        W21583   6.318   6.904  12.300 -0.0794 -0.1463  0.0348
 5967W        W21584  11.392   2.352  12.474 -0.2790 -0.2631  0.2661
 5968W        W21585   3.193  13.314   1.033 -0.1777 -0.1872  0.3196
 5969W        W21586   7.957  10.380   0.755 -0.0529 -0.0543  0.0735
 5970W        W21587  13.704   2.197   3.447  0.1627 -0.1357  0.0837
 5971W        W21588  15.787  14.459  12.346  0.1506 -0.2312  0.2986
 5972W        W21589  18.460  13.547   4.364 -0.0270  0.1070  0.0279
 5973W        W21590   6.027   1.114  13.954  0.1925 -0.1648  0.1548
 5974W        W21591   2.907   4.951  12.866 -0.1518 -0.0427  0.0797
 5975W        W21592   7.924  15.156   1.794  0.0574  0.1726  0.3009
 5976W        W21593   3.170   3.539   1.303 -0.3697 -0.2389 -0.1107
 5977W        W21594  10.507  12.864   4.201 -0.0904 -0.0305  0.1400
 5978W        W21595   4.765  16.391  13.059 -0.0695 -0.2635 -0.0615
 5979W        W21596  17.100  16.639   4.261  0.2554 -0.0946 -0.2080
 5980W        W21597   0.627   8.527  10.931  0.2285 -0.0883  0.1144
 5981W        W21598   6.757   2.643  13.677  0.2930 -0.0062 -0.2165
 5982W        W21599  13.565   9.002  12.999 -0.1956 -0.1439  0.1354
 5983W        W21600   5.179  15.275  13.249  0.0775 -0.0455  0.2309
 5984W        W21601   5.686   4.298   2.863  0.1981 -0.0275 -0.0273
 5985W        W21602   6.366   6.288   4.248  0.1426 -0.1558  0.3711
 5986W        W21603   9.616   0.538   4.479  0.0409  0.2308 -0.1916
 5987W        W21604   9.781   0.797  15.550  0.1632 -0.2559  0.2878
 5988W        W21605   4.594  16.273  12.601  0.4157 -0.3323  0.1155
 5989W        W21606   4.257  13.432   2.398 -0.0839 -0.0527  0.0588
 5990W        W21607  17.524   8.444  13.473 -0.1926  0.1004 -0.0160
 5991W        W21608   5.569  17.462  14.153  0.1779 -0.0865 -0.3847
 5992W        W21609   0.473   9.530  13.886  0.1937 -0.2640  0.0010
 5993W        W21610  17.203   4.115   1.132 -0.1843  0.0475 -0.0747
 5994W        W21611  17.520   5.448   5.401 -0.0467  0.1587 -0.1806
 5995W        W21612   0.153  17.653   0.817  0.0788 -0.2060  0.0631
 5996W        W21613  14.578   3.605  11.240  0.1891 -0.1434  0.1255
 5997W        W21614   6.168  12.517   2.339  0.2505  0.2987  0.1359
 5998W        W21615  10.849   3.492   0.498  0.0770 -0.0218  0.0332
 5999W        W21616  14.781  13.842   0.837  0.2911 -0.0949 -0.1164
 6000W        W21617   1.079  13.550   1.630  0.2123 -0.1839  0.1011
 6001W        W21618  17.411   7.521  13.341  0.2901 -0.2051  0.1680
 6002W        W21619   3.870  12.175   3.154  0.1655  0.0601  0.0550
 6003W        W21620  10.834  15.921  14.025  0.1084 -0.2777 -0.3243
 6004W        W21621   9.446  10.792  16.111 -0.4617  0.1489 -0.1916
 6005W        W21622  18.457   9.818  14.705  0.1048  0.0428 -0.0088
 6006W        W21623   9.995  14.565   2.202 -0.0551  0.0758  0.0298
 6007W        W21624   5.962  13.022  14.801  0.1720 -0.2264 -0.0327
 6008W        W21625   3.205   8.868  14.934 -0.2929 -0.1086 -0.1015
 6009W        W21626   5.387  16.766   3.360  0.2494  0.0059 -0.1750
 6010W        W21627   1.493   7.845  14.529 -0.1944  0.2116  0.1505
 6011W        W21628  15.778  17.733  11.098  0.3525  0.0624 -0.1218
 6012W        W21629   2.215  16.549  13.928  0.1200 -0.0937  0.0955
 6013W        W21630   6.071   8.222   4.353  0.1959 -0.1563  0.0094
 6014W        W21631   8.504   7.619   1.478  0.0780  0.0220  0.0899
 6015W        W21632   9.869  12.242   2.075  0.0406  0.1050 -0.0727
 6016W        W21633   1.741  18.179   4.285 -0.1322  0.1178  0.1432
 6017W        W21634   2.668  12.410  13.460 -0.1658 -0.0110 -0.5178
 6018W        W21635   5.190   1.778  10.718 -0.1441 -0.5346 -0.1649
 6019W        W21636  17.987  13.561   1.057  0.2142  0.0101 -0.1214
 6020W        W21637   2.663   9.383   5.915 -0.0508 -0.1159 -0.0801
 6021W        W21638  16.487   3.171  12.969  0.0146 -0.0124  0.0688
 6022W        W21639  16.518  11.565   0.891 -0.2232  0.1209  0.0816
 6023W        W21640   8.795  16.486   4.499  0.0880  0.0021 -0.3052
 6024W        W21641  13.040  13.015  15.538  0.1929  0.0399  0.0748
 6025W        W21642   6.321  18.257  12.982  0.0346  0.2540  0.0348
 6026W        W21643   6.350   4.925   2.956 -0.0036  0.1575  0.0012
 6027W        W21644  13.794  15.781  15.085 -0.1893  0.0147  0.0114
 6028W        W21645   9.965  10.657  12.831 -0.0043  0.2054 -0.0694
 6029W        W21646  10.996   0.468   1.312 -0.0818  0.0784 -0.1847
 6030W        W21647   7.801   7.652   4.540 -0.0588  0.0653 -0.2649
 6031W        W21648   5.567  10.264  15.140 -0.0864  0.0845  0.4610
 6032W        W21649   1.969   9.929  15.150 -0.0554  0.2483  0.4644
 6033W        W21650  14.788  12.031   4.759 -0.1796 -0.0954 -0.1634
 6034W        W21651  14.748   0.571  14.131 -0.0978  0.1292  0.0578
 6035W        W21652   0.890   8.455   2.670  0.0107  0.3182  0.1229
 6036W        W21653  13.303   3.828  15.387 -0.1144 -0.0129  0.1368
 6037W        W21654   1.240   9.949  15.663  0.0179 -0.0805 -0.0767
 6038W        W21655  10.399  12.541  12.412 -0.2279 -0.6237 -0.1458
 6039W        W21656  13.101  16.146  12.771 -0.1699  0.0518 -0.1791
 6040W        W21657   0.746  12.878   0.206 -0.3181  0.1142  0.0745
 6041W        W21658  16.030  17.913  12.895 -0.0904  0.3481 -0.2056
 6042W        W21659  17.156  18.380  14.777  0.0215 -0.0218 -0.1395
 6043W        W21660  13.592   9.381   1.097  0.1363 -0.0803 -0.1976
 6044W        W21661   8.469   5.608   4.039  0.1045 -0.0351 -0.1194
 6045W        W21662  16.590  15.718  12.143 -0.2215  0.2644 -0.1801
 6046W        W21663  11.211   1.447   0.892 -0.2493 -0.3041  0.1782
 6047W        W21664   7.893   7.563   0.034  0.3296  0.0505  0.1714
 6048W        W21665   9.173  13.864  12.400  0.1401 -0.0335  0.0746
 6049W        W21666   5.785   6.976   1.839 -0.0050 -0.4679  0.0272
 6050W        W21667  17.450  15.959  15.615  0.0824  0.2365  0.2741
 6051W        W21668   3.751   3.205   0.666 -0.0272 -0.3921 -0.0228
 6052W        W21669   7.181   1.514  12.444 -0.0370  0.1448  0.0274
 6053W        W21670  15.793   6.472   1.688 -0.3181  0.0311  0.2047
 6054W        W21671   4.077  15.196   1.984 -0.0312  0.2544 -0.1209
 6055W        W21672  10.796  16.172   5.265  0.2650  0.1073  0.1998
 6056W        W21673  17.128   5.910   2.113  0.5212  0.0730 -0.2271
 6057W        W21674  14.621  14.320   2.047 -0.3064 -0.3544 -0.4738
 6058W        W21675   6.789  11.856   2.897 -0.1598 -0.3005 -0.0035
 6059W        W21676  12.103  16.297   5.844  0.0589 -0.1909  0.0167
 6060W        W21677  16.369   6.010   3.935 -0.0447  0.0986 -0.0595
 6061W        W21678   1.023   0.482   1.492 -0.1851 -0.0156 -0.3876
 6062W        W21679   5.897  11.841   3.353  0.1545 -0.1070 -0.0826
 6063W        W21680   0.679  12.508   2.167 -0.1081 -0.0082  0.2335
 6064W        W21681   4.759  10.977  14.362 -0.0022  0.0607  0.1329
 6065W        W21682   4.547   0.245  16.124 -0.1694  0.3474  0.0452
 6066W        W21683  12.046  11.641   2.393 -0.0877 -0.2385 -0.2183
 6067W        W21684  15.991   6.308  15.356 -0.0896  0.1925  0.1323
 6068W        W21685  11.931  16.408  13.363  0.0203 -0.0945 -0.0418
 6069W        W21686  12.729   0.710   4.151 -0.0185  0.1782 -0.1712
 6070W        W21687   2.465  13.795  14.735 -0.3181  0.3524 -0.3767
 6071W        W21688   2.490  15.252   3.869 -0.1258  0.0014 -0.0914
 6072W        W21689  13.094  14.048  14.288 -0.0650 -0.0521 -0.1492
 6073W        W21690  13.269   7.079  11.196  0.0196  0.0731  0.0781
 6074W        W21691   1.427  14.061   4.959 -0.1085  0.3370 -0.2818
 6075W        W21692   6.459  11.248   1.194  0.2137  0.0969  0.0219
 6076W        W21693   2.844   2.793   1.583 -0.1859 -0.0655 -0.3107
 6077W        W21694   4.160   0.786  11.856  0.1037 -0.3057 -0.0406
 6078W        W21695  10.887   6.891   1.787  0.1248  0.1847  0.1373
 6079W        W21696  16.656   5.983   3.032  0.2216 -0.3931  0.2134
 6080W        W21697   7.963  10.619   3.496 -0.0596 -0.0757 -0.3217
 6081W        W21698   8.592   3.697  11.178 -0.3680 -0.0576 -0.0961
 6082W        W21699   3.481   4.453  10.619 -0.0475  0.0382  0.1751
 6083W        W21700  13.225  16.878  13.354 -0.1465  0.0027 -0.0761
 6084W        W21701   8.811   0.452  12.343  0.0720  0.1744 -0.2100
 6085W        W21702   7.074  15.553   4.911 -0.1854 -0.0111  0.1635
 6086W        W21703   3.742   5.112   2.200 -0.0486 -0.1844  0.2002
 6087W        W21704  13.377   7.435   3.544  0.0929 -0.2527  0.1716
 6088W        W21705   5.130  15.724   2.984 -0.0819 -0.0709  0.5955
 6089W        W21706   5.921   6.055  16.003  0.2868  0.2420 -0.4482
 6090W        W21707  12.148   1.089  10.749  0.2725 -0.3705  0.2956
 6091W        W21708  17.133   3.693   2.850  0.1713 -0.0527  0.3516
 6092W        W21709  16.406  11.565   1.919  0.3221  0.3716 -0.0662
 6093W        W21710  11.605   9.023  12.678 -0.2757 -0.2372  0.1321
 6094W        W21711   9.449   7.928  12.752 -0.0778  0.0830 -0.2098
 6095W        W21712   0.947  10.661   3.680  0.0774 -0.1606 -0.1207
 6096W        W21713   2.571  13.449  12.305  0.5863 -0.1144 -0.0366
 6097W        W21714   4.105  12.393  12.064  0.1237 -0.1205 -0.0191
 6098W        W21715   6.516  15.348  11.359  0.2343 -0.0415 -0.0526
 6099W        W21716   2.311   6.814   3.661  0.2392  0.0821 -0.1552
 6100W        W21717  10.202   8.355  11.475  0.1550 -0.0974  0.1173
 6101W        W21718   6.844   6.512   0.266 -0.0712 -0.2409 -0.0196
 6102W        W21719  12.569  17.628  13.858  0.2551  0.1988 -0.4211
 6103W        W21720  15.788  16.376  11.359 -0.1528  0.2905  0.0075
 6104W        W21721   5.395   3.138   3.810 -0.0327 -0.0300  0.1979
 6105W        W21722  17.663   9.201  14.891 -0.2143 -0.0828  0.0768
 6106W        W21723  18.344   1.127  14.085 -0.1285  0.1585 -0.0166
 6107W        W21724  16.153   8.922   3.315 -0.0791 -0.0455 -0.0127
 6108W        W21725  13.279   5.213   3.995  0.0689  0.3639  0.2235
 6109W        W21726   9.682   3.703  11.246 -0.3915 -0.4262  0.0266
 6110W        W21727   9.835  10.201   3.735  0.2542 -0.0285 -0.2273
 6111W        W21728   1.947   7.326   3.082  0.1380  0.1647 -0.4675
 6112W        W21729   4.467  11.146   0.193 -0.2954  0.4352 -0.0977
 6113W        W21730   5.223   0.501   0.460  0.1925 -0.1450 -0.0320
 6114W        W21731  11.389  13.507   4.895 -0.1441  0.2221  0.1326
 6115W        W21732   2.838  11.015   0.389  0.1770  0.1517 -0.0269
 6116W        W21733  15.079   2.837   5.614  0.4459 -0.4254 -0.0140
 6117W        W21734  17.270  16.334   3.495  0.0993 -0.1772 -0.2008
 6118W        W21735   3.033  13.291  14.069  0.1836  0.0368  0.0850
 6119W        W21736   7.256   5.146  14.152 -0.0976 -0.3786  0.2096
 6120W        W21737  11.721   7.362   0.663  0.3624 -0.1099  0.4730
 6121W        W21738   8.564  11.248   1.945  0.1892  0.1639  0.3313
 6122W        W21739  16.361   3.485   1.422  0.2223  0.0032 -0.0590
 6123W        W21740  14.063   3.651  14.547  0.1858  0.0779  0.0553
 6124W        W21741   7.940  10.074   1.355  0.2047 -0.2759  0.6540
 6125W        W21742   3.587  10.343  15.727  0.0318  0.0430  0.1427
 6126W        W21743   0.449  16.956  11.513 -0.2865  0.0614 -0.0408
 6127W        W21744   8.358  13.030   3.977  0.0978 -0.0130 -0.1860
 6128W        W21745  16.111   3.993   2.825 -0.0478  0.0616  0.1861
 6129W        W21746  17.758  17.212   4.089  0.3592  0.1355  0.1649
 6130W        W21747   5.408  12.578   2.293 -0.1548  0.0814 -0.0067
 6131W        W21748  15.743  10.513  14.447 -0.1750 -0.0045  0.0043
 6132W        W21749   6.158   2.416   2.779 -0.3759  0.1529 -0.0919
 6133W        W21750   2.722   1.226   4.664 -0.2578  0.0801 -0.2216
 6134W        W21751   0.953   5.523  12.331 -0.2652  0.0636 -0.0745
 6135W        W21752  10.964  15.826   4.226  0.1253 -0.0327 -0.1403
 6136W        W21753   4.233   3.449   3.272 -0.1899 -0.0680 -0.1737
 6137W        W21754   4.432  17.108   1.431  0.0639  0.0737 -0.1876
 6138W        W21755  12.395  13.466  12.862 -0.1237  0.1763 -0.1712
 6139W        W21756   1.910  16.017  12.971 -0.0952 -0.3719  0.2330
 6140W        W21757  14.380  12.010   2.717  0.2356  0.1195  0.2461
 6141W        W21758   0.728   4.091   1.610 -0.0648  0.0169  0.1564
 6142W        W21759   3.149   8.437   0.640  0.1608  0.1823  0.0591
 6143W        W21760   6.613   7.980   0.933 -0.2282  0.0615 -0.0148
 6144W        W21761   1.260   3.716  12.000 -0.1835  0.1315 -0.3663
 6145W        W21762   4.391   9.433  15.142  0.0973 -0.0910 -0.1168
 6146W        W21763  18.352  17.190  16.069  0.2149 -0.0758  0.1322
 6147W        W21764   9.735   3.063   4.606 -0.2943  0.0547 -0.0837
 6148W        W21765  15.816   1.648  13.822 -0.0525 -0.0304 -0.0569
 6149W        W21766   3.996  10.091  11.869  0.0367 -0.1527  0.1804
 6150W        W21767   8.240   3.238   1.566 -0.0545 -0.2290 -0.3082
 6151W        W21768   1.129   5.183   2.293  0.1690  0.3615  0.0482
 6152W        W21769  12.523   2.580  12.845 -0.2523 -0.2275  0.2912
 6153W        W21770   9.957   2.608   4.475  0.1606 -0.1094  0.1732
 6154W        W21771  16.743   4.557  14.331 -0.1865 -0.3671  0.1981
 6155W        W21772   9.517   6.627   0.305 -0.3837  0.1348  0.0316
 6156W        W21773   1.944  18.251   6.910 -0.0970  0.0912 -0.1536
 6157W        W21774  14.604  12.550   3.390  0.1700  0.0566  0.2020
 6158W        W21775   5.688  12.184   0.375 -0.1547 -0.0471 -0.1760
 6159W        W21776  14.115   1.020   6.210 -0.5452 -0.3142 -0.1327
 6160W        W21777  17.919  16.505  12.723 -0.3926 -0.2054  0.3107
 6161W        W21778   0.643   8.734  11.369 -0.1475  0.2048  0.1470
 6162W        W21779  17.635   8.301  15.974  0.4445  0.1869  0.0346
 6163W        W21780   9.945  16.724  11.935 -0.2988  0.0442 -0.0909
 6164W        W21781  12.486  15.064  11.465  0.0418  0.1810 -0.0940
 6165W        W21782   2.305   7.281  12.051  0.0975  0.0991 -0.1812
 6166W        W21783  11.470   9.249  12.204 -0.3031  0.0634 -0.1060
 6167W        W21784  13.570   7.772   4.546  0.2224  0.1949  0.0382
 6168W        W21785   3.918  13.607   5.089  0.1374  0.0820 -0.1457
 6169W        W21786   9.960  11.323   3.631  0.3980 -0.2565 -0.0482
 6170W        W21787   7.830   2.012   0.435 -0.4256 -0.0488  0.1386
 6171W        W21788   4.864   8.096  15.407 -0.1767 -0.2912 -0.0632
 6172W        W21789   0.471   7.779   1.560 -0.1244  0.2755  0.0501
 6173W        W21790  17.884   6.118  12.971 -0.0681  0.0097  0.0529
 6174W        W21791   4.846  14.295   4.982  0.1328 -0.0486  0.0824
 6175W        W21792  10.952  18.345   1.678  0.0143  0.1152 -0.1499
 6176W        W21793   9.804   4.706  12.591 -0.1788  0.0133  0.2807
 6177W        W21794  10.458  14.408   3.156  0.0087 -0.0231  0.4669
 6178W        W21795   2.572   9.263  15.389  0.1739 -0.2225 -0.2008
 6179W        W21796  11.474  13.313   5.315  0.0577  0.0627  0.2008
 6180W        W21797   1.187   0.809   4.705  0.0125  0.2488 -0.1875
 6181W        W21798   8.484   1.835  11.190  0.1435  0.0427  0.1655
 6182W        W21799   7.949  17.626  15.474  0.2110  0.2776  0.3007
 6183W        W21800  11.304  12.398  15.548 -0.0350 -0.3118  0.0617
 6184W        W21801  10.092  12.720   2.031  0.3990  0.5160 -0.0186
 6185W        W21802   1.025   4.007  15.403  0.0733  0.0328 -0.0862
 6186W        W21803  11.715   7.159  10.695  0.1943 -0.4074  0.1627
 6187W        W21804  13.665   3.456  12.490  0.1985  0.0916 -0.0759
 6188W        W21805   3.916  11.134  11.554 -0.3765 -0.4453  0.0580
 6189W        W21806  13.751  17.537  13.724 -0.0219 -0.0209  0.0043
 6190W        W21807   3.441   7.850  14.476 -0.4407  0.0794 -0.0009
 6191W        W21808   2.244   9.158  12.093 -0.5252 -0.2961  0.1513
 6192W        W21809  10.932   6.497   3.402 -0.2639 -0.1877  0.0798
 6193W        W21810   8.566  11.814  15.195  0.2139  0.0455 -0.0474
 6194W        W21811   4.306   9.155  16.071  0.1648  0.1721  0.2155
 6195W        W21812   4.869  10.827   5.162 -0.4449 -0.0427  0.0398
 6196W        W21813   0.758   9.010  13.928 -0.3969 -0.2020  0.1309
 6197W        W21814   0.268   4.053  14.511 -0.2456 -0.1301  0.0433
 6198W        W21815  18.137   7.502   0.165  0.0309 -0.0426  0.1730
 6199W        W21816   2.517  10.336   2.279 -0.0970  0.2693 -0.1091
 6200W        W21817   1.222  16.694  15.919  0.0458 -0.1137  0.0876
 6201W        W21818  10.510  15.588   1.368  0.3679 -0.1774 -0.0228
 6202W        W21819  10.800   6.837   3.055 -0.2933 -0.5481  0.0772
 6203W        W21820   1.607   8.363  13.206  0.0996 -0.1011 -0.5321
 6204W        W21821  18.210   4.356   2.116  0.1537 -0.0898 -0.2053
 6205W        W21822  15.634   6.104   3.889 -0.2328 -0.0545  0.0310
 6206W        W21823  15.235  15.726   4.905  0.0025 -0.0300  0.0410
 6207W        W21824  16.756  18.044  14.547 -0.1150 -0.0919  0.1886
 6208W        W21825  15.653  15.048   0.801 -0.1281  0.0554 -0.2263
 6209W        W21826  17.449  15.299   1.357 -0.1102 -0.2345  0.1141
 6210W        W21827  14.170   2.594   2.588 -0.0569  0.1636 -0.2099
 6211W        W21828  12.179  17.287  13.826  0.0288 -0.0519  0.2984
 6212W        W21829   7.730   4.846  13.005  0.1014  0.2205 -0.0339
 6213W        W21830  10.172   2.695   3.156  0.0366 -0.1414 -0.3379
 6214W        W21831  13.345  11.742  14.705 -0.0656 -0.0090  0.1521
 6215W        W21832  18.126  15.714   3.233  0.1100 -0.0179  0.1138
 6216W        W21833   1.802  16.473   4.858 -0.1161 -0.2071 -0.1688
 6217W        W21834   8.068  11.913   3.075  0.4041 -0.0455  0.0848
 6218W        W21835  13.744  16.096  16.062  0.1851 -0.1083  0.0094
 6219W        W21836  10.261   0.382   3.721  0.1172  0.0077 -0.1416
 6220W        W21837  16.848   4.079  12.753  0.0513  0.3481 -0.2334
 6221W        W21838   9.709  10.921  10.497 -0.0170 -0.3562 -0.0548
 6222W        W21839   9.577   3.423  14.930 -0.0087  0.0574 -0.0772
 6223W        W21840  12.336   5.338   1.034 -0.1484  0.0655  0.6993
 6224W        W21841  16.604   3.494   4.486 -0.0272 -0.0611 -0.2159
 6225W        W21842   6.320   5.273  12.828  0.3100 -0.0412  0.3191
 6226W        W21843  17.064  13.509  11.239 -0.2007  0.1132  0.0895
 6227W        W21844   3.059  10.226  11.321  0.2984 -0.0300 -0.2411
 6228W        W21845   9.344  14.153   1.391 -0.0012 -0.4347 -0.0214
 6229W        W21846  10.351  14.229  10.897 -0.0521  0.0568  0.1240
 6230W        W21847   6.973  15.634   1.951  0.0238 -0.1399  0.2021
 6231W        W21848   3.371  17.582   3.232  0.1237  0.0360 -0.6377
 6232W        W21849  14.059  15.053   0.595 -0.0870  0.3489 -0.3076
 6233W        W21850   0.019  17.663  16.069 -0.2242 -0.3242  0.0162
 6234W        W21851  14.175  11.298   0.087  0.0109  0.1139  0.1673
 6235W        W21852  11.455  10.806  14.496  0.0077  0.1694 -0.1086
 6236W        W21853  15.879   4.424  14.136  0.1521  0.0105  0.1925
 6237W        W21854  11.154  10.173  15.071 -0.1363 -0.2041  0.1042
 6238W        W21855  16.840   8.868  15.811  0.2619  0.0366  0.0837
 6239W        W21856   0.373  12.983  12.439 -0.0611 -0.1607  0.0860
 6240W        W21857   9.053   1.931  11.585 -0.1575  0.1275  0.2211
 6241W        W21858   3.066  17.396   2.580  0.0189 -0.1089  0.1134
 6242W        W21859   6.711   1.794   3.246 -0.3468  0.0707  0.0676
 6243W        W21860  11.072  14.374   2.078  0.1201  0.0828  0.1841
 6244W        W21861   6.481  10.579  13.515 -0.2742 -0.1057  0.0373
 6245W        W21862   5.701  10.808   4.706  0.1548  0.1075 -0.3416
 6246W        W21863   6.039   9.510  12.076  0.1306  0.1230 -0.0688
 6247W        W21864   7.164   7.523  14.397  0.1195 -0.2003  0.0522
 6248W        W21865  16.340   2.341  12.343  0.1674 -0.2038 -0.0173
 6249W        W21866  18.153   1.860   5.123 -0.1437 -0.0181 -0.0270
 6250W        W21867  11.597  14.449   4.122 -0.0386  0.4216  0.0704
 6251W        W21868   9.974   8.093   2.116 -0.0318  0.1291  0.1604
 6252W        W21869   5.311   5.569   4.733 -0.0523  0.1620 -0.0472
 6253W        W21870   8.734   9.250   5.730  0.1211 -0.1549  0.2157
 6254W        W21871   2.190   6.526  13.643 -0.1180 -0.0295  0.1233
 6255W        W21872  14.110   3.602   2.573  0.1293 -0.2707 -0.1378
 6256W        W21873   7.343  16.478   4.992 -0.1032 -0.0072  0.3168
 6257W        W21874   4.769  13.661  13.399 -0.1385 -0.1586  0.0664
 6258W        W21875   1.050   3.973   1.103  0.0843  0.0191  0.0825
 6259W        W21876   6.919  14.243   0.484  0.0126  0.0547  0.0785
 6260W        W21877   8.530   7.554   2.925 -0.0911  0.1865 -0.1155
 6261W        W21878  16.267   2.110   4.897  0.1990 -0.4167  0.3022
 6262W        W21879  10.654  16.624  12.633 -0.0046  0.0519 -0.0682
 6263W        W21880   2.271  13.413   3.673  0.0506  0.0215 -0.1366
 6264W        W21881   4.537   9.929  14.286  0.5428  0.0321 -0.0219
 6265W        W21882   8.532   1.863   3.170  0.0349 -0.1344  0.4851
 6266W        W21883  11.062   7.273   2.756 -0.2467 -0.3911  0.0439
 6267W        W21884  14.882   8.024  11.152  0.2870  0.0223  0.0660
 6268W        W21885   7.945   3.887   2.170 -0.1379 -0.0338  0.3127
 6269W        W21886   5.263  14.074   0.529 -0.0655  0.1838 -0.2680
 6270W        W21887   1.942  11.102  11.577  0.2163  0.2146  0.1764
 6271W        W21888  16.846   0.468   3.530 -0.0133 -0.1209 -0.1288
 6272W        W21889   5.768   4.241  15.847  0.1038 -0.1697  0.1648
 6273W        W21890   3.572   1.024   2.772  0.2001  0.2947  0.1931
 6274W        W21891   8.593  17.984   0.798  0.5202  0.0766  0.1682
 6275W        W21892  11.552   4.066   6.100  0.0013 -0.1095  0.4456
 6276W        W21893  15.710   1.034  15.739 -0.1383 -0.0242 -0.0859
 6277W        W21894  10.090   8.137   4.320 -0.1234 -0.1446  0.1099
 6278W        W21895   5.576   5.391  11.414  0.0371 -0.0227 -0.2836
 6279W        W21896   0.206  12.755   2.361 -0.1236  0.2503  0.1529
 6280W        W21897   9.954   4.058  10.906  0.3117  0.1659  0.2193
 6281W        W21898  14.778   0.778   1.201  0.0445 -0.0776 -0.2435
 6282W        W21899  15.864   6.752  12.243  0.0448  0.0998  0.2905
 6283W        W21900   3.141   5.079  11.267  0.2591 -0.0546 -0.0386
 6284W        W21901   9.134   4.315  11.882 -0.1436 -0.2246  0.0150
 6285W        W21902   5.087   0.120  11.209  0.5168  0.1266  0.2720
 6286W        W21903   7.897   1.137   2.457  0.1429  0.1291 -0.1574
 6287W        W21904   9.980   5.746   0.215 -0.0171 -0.0610  0.2323
 6288W        W21905  12.318  15.103  14.555 -0.1376 -0.4294  0.3283
 6289W        W21906  14.308   8.190   3.562  0.0120  0.2596  0.1579
 6290W        W21907  11.800  17.075   2.128  0.2198  0.2963 -0.2188
 6291W        W21908   8.633  12.156   1.884  0.0983 -0.0171  0.0217
 6292W        W21909  15.804   0.719  12.149  0.1316 -0.0306  0.0258
 6293W        W21910   7.053   8.757   1.563  0.1970 -0.0735 -0.3341
 6294W        W21911  10.075   8.207  16.083  0.2084 -0.0293  0.1654
 6295W        W21912  11.434   9.748  13.687 -0.1178 -0.1893 -0.0972
 6296W        W21913   7.666  11.339   2.437  0.1865 -0.2026  0.0581
 6297W        W21914  13.346  12.934  11.449 -0.1262 -0.0265 -0.3687
 6298W        W21915   6.410  16.736  13.881 -0.0428 -0.0528 -0.0593
 6299W        W21916   5.175  16.223   3.095 -0.1788  0.1191  0.0718
 6300W        W21917  14.705   4.889   1.721  0.0003  0.0187  0.0935
 6301W        W21918   3.961   0.600   2.191  0.0370 -0.1166 -0.2432
 6302W        W21919  18.090   1.813   2.193 -0.0800  0.2172  0.4582
 6303W        W21920   2.780   5.257  15.918 -0.0883 -0.0346 -0.1251
 6304W        W21921  12.574   6.534  14.799  0.1396  0.0106  0.0091
 6305W        W21922  16.868   8.226  13.390  0.0932  0.1544  0.1077
 6306W        W21923   3.163  13.612  15.536  0.0765  0.1658 -0.0961
 6307W        W21924   9.817  17.950   3.185 -0.0650 -0.1386 -0.0776
 6308W        W21925  11.056  16.763  11.901 -0.0658  0.0272  0.1258
 6309W        W21926   0.745   9.000   2.073 -0.1978  0.2001 -0.2777
 6310W        W21927   2.885   4.781  11.790  0.0643 -0.0438  0.1362
 6311W        W21928   4.358  18.305  15.529  0.0327  0.0643  0.1262
 6312W        W21929  12.452  10.275   0.864 -0.0012  0.4093 -0.1474
 6313W        W21930   5.827  17.059   5.302 -0.2074 -0.1319 -0.1140
 6314W        W21931  11.922  16.262   4.361 -0.2755  0.1048  0.2956
 6315W        W21932  16.515  12.239   6.312  0.0736 -0.1492 -0.0899
 6316W        W21933   3.912   0.296  12.872  0.2597 -0.1596  0.5187
 6317W        W21934   7.657   6.387  15.126 -0.1379  0.0640  0.1182
 6318W        W21935   6.447  17.724   0.031  0.1015 -0.2560  0.1236
 6319W        W21936   5.258   2.074  15.645  0.1807 -0.0155  0.1246
 6320W        W21937  11.577   8.810  15.373 -0.0643 -0.3092 -0.1745
 6321W        W21938  14.096   9.085  15.946  0.0981 -0.0541 -0.2421
 6322W        W21939  11.975  14.361  12.721 -0.2079 -0.1692 -0.3292
 6323W        W21940   2.924   0.306  13.677 -0.1969  0.4478  0.2829
 6324W        W21941  11.360   8.364   1.647  0.0542 -0.0697 -0.1796
 6325W        W21942  15.763  17.681  15.953  0.0776 -0.1307  0.3738
 6326W        W21943  13.383   7.161   0.718  0.1250 -0.0893  0.0777
 6327W        W21944  13.265   4.573   2.886  0.0293  0.1334 -0.0013
 6328W        W21945  11.262   2.391  14.758 -0.2821  0.0770 -0.1739
 6329W        W21946  16.402   0.099  13.304  0.2459 -0.0386 -0.0293
 6330W        W21947   6.829  13.395  15.010  0.0165 -0.1367  0.1890
 6331W        W21948  15.429   8.093  13.295  0.4222  0.0493 -0.3604
 6332W        W21949   1.301  12.677  15.678 -0.1809 -0.0305 -0.1244
 6333W        W21950   7.753   7.717   2.188  0.2854  0.2850  0.0732
 6334W        W21951  15.674  14.824  14.758 -0.1807  0.1859 -0.2064
 6335W        W21952   8.488   7.457   3.467 -0.0143  0.2895 -0.1978
 6336W        W21953  10.988   5.350  12.920 -0.1261  0.1197 -0.1999
 6337W        W21954  16.701  17.455   2.987 -0.0436  0.0363 -0.4972
 6338W        W21955   7.510   9.123  12.724 -0.0603 -0.1267 -0.1598
 6339W        W21956   7.803   4.921  14.796 -0.0455  0.2942 -0.0984
 6340W        W21957  14.132  10.667  11.338 -0.2693  0.0471 -0.1548
 6341W        W21958   3.717   2.111  14.260 -0.1469 -0.1379  0.0430
 6342W        W21959   9.860   9.142   0.991  0.0326  0.0063 -0.0101
 6343W        W21960   6.643   3.084   2.504 -0.1435  0.2742  0.0896
 6344W        W21961  15.321  10.962   5.578 -0.0232 -0.0985 -0.0997
 6345W        W21962   7.276   1.010  15.014 -0.0119  0.0652  0.3642
 6346W        W21963  17.553  16.438   1.518  0.1207  0.1480 -0.1871
 6347W        W21964  14.146  10.209   2.310 -0.1524  0.1310 -0.0391
 6348W        W21965  14.872  15.797   3.966 -0.0475 -0.2236  0.0056
 6349W        W21966  13.478   3.561   3.288  0.3224 -0.2431 -0.2235
 6350W        W21967  17.796  12.389  10.864  0.3582 -0.2838 -0.0520
 6351W        W21968  16.669  13.828  13.456 -0.2209 -0.2197 -0.1971
 6352W        W21969  13.770  12.582   1.532  0.0079 -0.2369 -0.1716
 6353W        W21970  18.134   4.917   2.979  0.3515  0.0315  0.1199
 6354W        W21971  11.072   6.536   3.937 -0.5118  0.2975 -0.2162
 6355W        W21972  18.308   2.673  14.731  0.0539 -0.0537 -0.3129
 6356W        W21973   8.715   8.726   2.048 -0.1429 -0.2711  0.2529
 6357W        W21974  11.730   7.107   1.467 -0.0861 -0.1801 -0.0521
 6358W        W21975   0.974  12.158  11.668  0.0141 -0.1409 -0.2222
 6359W        W21976   4.390  17.029   1.989 -0.0177  0.1622 -0.0201
 6360W        W21977  10.955   7.679   1.352  0.2196 -0.0536  0.0524
 6361W        W21978   0.070  13.741   2.266  0.1922  0.1193 -0.2422
 6362W        W21979   7.863  14.921  14.511 -0.5589  0.3304 -0.0558
 6363W        W21980  10.895   0.956   3.327 -0.0460  0.1776 -0.2414
 6364W        W21981   5.548   6.581  15.888 -0.1553  0.0107 -0.1178
 6365W        W21982   1.166   1.963   1.621  0.1913 -0.2221 -0.2649
 6366W        W21983  15.602  13.293   3.919  0.2196 -0.1500 -0.0435
 6367W        W21984  15.977   2.620  15.327 -0.0284  0.3046 -0.2529
 6368W        W21985  12.671  18.401  13.646  0.0550  0.0124 -0.1494
 6369W        W21986  12.686  15.279   3.581 -0.3384  0.1252 -0.0583
 6370W        W21987  18.372   3.281  12.589  0.0877 -0.5325 -0.0473
 6371W        W21988  14.902   6.506  12.794  0.0796 -0.0324  0.1582
 6372W        W21989  16.514  15.716   5.279  0.1459 -0.1800 -0.1406
 6373W        W21990   5.588   2.951  11.203  0.0407 -0.2577 -0.1910
 6374W        W21991  11.660   0.946  12.175  0.2023 -0.2114  0.0984
 6375W        W21992   1.656   6.639  12.316 -0.1266 -0.3500 -0.1445
 6376W        W21993   9.004   7.978  12.003  0.2720 -0.2099  0.1432
 6377W        W21994  15.579   9.725   1.806 -0.2382 -0.1585  0.1068
 6378W        W21995   3.527   2.109  12.825 -0.0119 -0.3613 -0.1855
 6379W        W21996  11.563  11.369  12.669  0.0081 -0.4593 -0.0073
 6380W        W21997   5.259   6.674   9.775 -0.0842  0.4022 -0.1710
 6381W        W21998   9.991   8.885   3.980 -0.0342 -0.0917  0.0303
 6382W        W21999  15.027   6.167  11.461  0.0975 -0.1985 -0.0842
 6383W        W22000   0.658  15.074  15.673 -0.2914 -0.1265 -0.0305
 6384W        W22001   8.755   8.424   4.035  0.1323 -0.1110 -0.1424
 6385W        W22002   7.044   5.397  10.776  0.3720  0.1170  0.1487
 6386W        W22003  17.708  15.554  12.230 -0.0557 -0.1322  0.1163
 6387W        W22004  11.714  13.837  13.539  0.1168 -0.1216  0.1242
 6388W        W22005  13.323  12.369  13.920 -0.0520  0.1829  0.2875
 6389W        W22006  17.363   8.533   0.180  0.4052 -0.0236  0.2913
 6390W        W22007   3.555  13.764  15.241 -0.1274  0.1942 -0.0392
 6391W        W22008   8.876   0.797   0.792  0.0180  0.0917  0.0870
 6392W        W22009  17.696   7.630   2.977  0.3460  0.3221  0.1685
 6393W        W22010   4.735  16.372   0.939 -0.1931  0.2793 -0.2633
 6394W        W22011   4.197  16.029  11.863  0.1174  0.0650  0.0744
 6395W        W22012   2.323   8.989  12.656  0.1709  0.2298  0.2836
 6396W        W22013   7.735  12.704   2.895 -0.0459 -0.1131 -0.1233
 6397W        W22014  10.416   1.823  16.015  0.1679 -0.0077  0.0036
 6398W        W22015  17.829   7.615  14.611 -0.0057 -0.2184 -0.1003
 6399W        W22016   2.607   5.054  14.618  0.2246 -0.1488 -0.4892
 6400W        W22017   5.072  16.313   4.237  0.1303 -0.0964  0.0614
 6401W        W22018  10.271   4.195  14.997  0.2115 -0.1049 -0.0898
 6402W        W22019  15.025  13.033  11.367  0.1794 -0.3770  0.1619
 6403W        W22020   8.307   0.291  12.245 -0.1582  0.0734 -0.0408
 6404W        W22021  12.770   2.083   2.808 -0.0061 -0.0243  0.0635
 6405W        W22022  12.989   4.018   4.026  0.3276 -0.0178 -0.2106
 6406W        W22023   0.708   8.276  14.449 -0.1765 -0.0739 -0.1598
 6407W        W22024  16.041  14.674   4.695  0.2220  0.1039  0.3461
 6408W        W22025  10.282   3.121  15.447  0.0352  0.2115 -0.1053
 6409W        W22026   7.410   5.673  14.981 -0.2695  0.0057  0.0559
 6410W        W22027  15.130   2.171  14.750 -0.0808 -0.3013 -0.0742
 6411W        W22028  12.493   9.784   3.978 -0.1379  0.0041  0.0198
 6412W        W22029   8.614  15.633  12.521 -0.1362 -0.5821 -0.0478
 6413W        W22030   0.969  15.959   0.297  0.0277  0.2262  0.0415
 6414W        W22031  14.473  10.395  12.843  0.2477 -0.0233  0.0023
 6415W        W22032   8.813   0.547   4.739 -0.1632  0.0938  0.1482
 6416W        W22033  12.511  10.200   4.283  0.0061 -0.0526  0.0827
 6417W        W22034  16.079  18.063   2.487 -0.1674  0.1710  0.1541
 6418W        W22035  18.160   0.439   3.827 -0.0955 -0.0081 -0.2343
 6419W        W22036  17.956   4.744   3.811 -0.1030 -0.0371  0.0195
 6420W        W22037  17.995  13.523  13.771 -0.0109 -0.0642 -0.1532
 6421W        W22038   7.090   0.125  14.807  0.1447 -0.0546 -0.0927
 6422W        W22039   8.833  15.346   5.183  0.0287  0.2006 -0.0595
 6423W        W22040  10.183  10.870  15.942 -0.4805  0.0607 -0.0479
 6424W        W22041   5.967  11.479  12.217  0.1533 -0.2343 -0.3371
 6425W        W22042  10.833   5.657  15.141 -0.2027  0.2464 -0.0083
 6426W        W22043   8.549   0.844  11.354 -0.0145 -0.1109 -0.0358
 6427W        W22044  11.863  17.140  14.682 -0.2396  0.1504  0.1544
 6428W        W22045  16.452   5.965  12.322  0.2943  0.0215  0.0916
 6429W        W22046  12.031  15.643   2.125 -0.0252 -0.1552 -0.0274
 6430W        W22047   1.127   6.936   4.339 -0.1950  0.2142 -0.2123
 6431W        W22048  11.427  15.607  12.355 -0.0182 -0.0282  0.0170
 6432W        W22049  10.099  14.540  14.969  0.0312 -0.1850 -0.2547
 6433W        W22050  17.243   5.333  11.500 -0.0326  0.2147  0.1212
 6434W        W22051   4.470  14.486  12.968  0.1811  0.0039 -0.3183
 6435W        W22052   2.778  12.875   6.139  0.0150 -0.2049  0.1036
 6436W        W22053   7.722  17.860  12.318 -0.2518  0.1413  0.1451
 6437W        W22054   9.186  16.042   4.357  0.1874  0.1171 -0.0658
 6438W        W22055  13.509   8.319  12.218  0.1446  0.0966 -0.1697
 6439W        W22056   6.298   8.661  15.717 -0.0044 -0.0905 -0.2024
 6440W        W22057   3.053  18.193  15.356  0.1286  0.2684  0.0832
 6441W        W22058   1.447   6.439  14.845  0.1509  0.0166  0.1614
 6442W        W22059  15.330   2.872   3.565 -0.1056  0.1534 -0.2799
 6443W        W22060  14.440  16.744   5.640 -0.2942 -0.1281 -0.2919
 6444W        W22061   7.400   7.159   4.812  0.0930  0.1240  0.2881
 6445W        W22062   4.338   6.217   2.548 -0.1142  0.1880  0.1861
 6446W        W22063   9.740  11.702  15.492  0.1659 -0.0890 -0.0244
 6447W        W22064   0.275   6.400  12.953  0.1201  0.2444  0.2751
 6448W        W22065   2.444   8.026  16.112  0.1437  0.1794 -0.0894
 6449W        W22066  11.715   9.037  15.910 -0.3165  0.0111  0.3319
 6450W        W22067   7.608   9.472   1.649 -0.2613 -0.1035 -0.1440
 6451W        W22068   2.244   3.318   0.580 -0.3898 -0.0506 -0.0288
 6452W        W22069  15.843   2.517   4.912 -0.2071 -0.0417  0.2580
 6453W        W22070  10.880   9.711   1.523 -0.1127 -0.0723 -0.2546
 6454W        W22071  18.213   4.438  15.882  0.0073 -0.2251  0.0895
 6455W        W22072  10.926   9.848   3.281 -0.1479 -0.0782 -0.0283
 6456W        W22073  18.210  18.069   5.797  0.0216  0.4188  0.0694
 6457W        W22074  13.334   3.609   2.033 -0.3241 -0.0659 -0.4827
 6458W        W22075  15.211  14.512  15.580 -0.0444  0.0355  0.0575
 6459W        W22076  18.214  17.082   1.231 -0.2601  0.0643  0.0484
 6460W        W22077   4.816  11.162   2.990  0.0462  0.0383 -0.2756
 6461W        W22078   9.572   4.264   0.168  0.0327  0.4110 -0.0801
 6462W        W22079  16.787   0.859   2.691  0.1058  0.3884 -0.2238
 6463W        W22080  17.956   2.923   2.124 -0.2707  0.0949 -0.4263
 6464W        W22081   2.195   6.421   4.026 -0.1825  0.1275  0.2260
 6465W        W22082   7.231  16.148   6.157 -0.3101  0.0850  0.1932
 6466W        W22083  12.726  11.050   2.042  0.1715  0.0679  0.1143
 6467W        W22084  12.527  13.350  14.785  0.3828 -0.2110  0.1577
 6468W        W22085   1.946  10.435  15.076  0.1246  0.3068  0.0367
 6469W        W22086   8.354  13.490   1.551  0.0199 -0.0341  0.1426
 6470W        W22087   6.062   0.861  14.388 -0.2947 -0.1259 -0.1686
 6471W        W22088   8.255   0.699   2.672  0.0264  0.1856  0.1902
 6472W        W22089  15.959   6.120   2.130 -0.1756 -0.1449 -0.0537
 6473W        W22090   0.490   9.337  15.799  0.0406 -0.3461 -0.1990
 6474W        W22091   6.554   8.930   3.905  0.1096 -0.1706  0.2213
 6475W        W22092  14.791   1.201   1.973  0.0660 -0.1672 -0.2605
 6476W        W22093  15.204   7.786   2.190  0.2993  0.1275 -0.0986
 6477W        W22094  17.427  15.408  11.223 -0.0224  0.3220 -0.1183
 6478W        W22095  14.999  13.099  13.610  0.0949  0.0169  0.3284
 6479W        W22096   6.724   3.172  15.812 -0.1903 -0.1435 -0.2641
 6480W        W22097   9.744  13.966  13.354 -0.2162  0.0238 -0.1527
 6481W        W22098   1.105   6.562  12.266 -0.2001  0.1400 -0.3421
 6482W        W22099  17.945   4.278   3.732 -0.2744 -0.3184  0.0105
 6483W        W22100   4.091   1.227  12.697 -0.2763  0.1534  0.0664
 6484W        W22101  14.899   4.265  11.048  0.0753  0.0479  0.0679
 6485W        W22102   1.905  10.133  11.188  0.2109 -0.2030 -0.2502
 6486W        W22103   9.078   6.329   0.078 -0.0211 -0.1452  0.1200
 6487W        W22104  13.922   6.939   4.100 -0.1192 -0.0315  0.2507
 6488W        W22105  15.572   9.035  11.924 -0.4168  0.4177  0.0745
 6489W        W22106  13.619   3.699  12.030  0.0532 -0.1904  0.4125
 6490W        W22107   4.903   1.745  13.518  0.0337  0.0857 -0.0309
 6491W        W22108   3.500  17.502  12.993 -0.0196 -0.0445  0.2217
 6492W        W22109  14.363   4.257   0.865  0.1057 -0.2043  0.0373
 6493W        W22110  16.394   0.175   0.674  0.1801 -0.1477 -0.2041
 6494W        W22111   5.106  12.031   1.729  0.0516  0.0193  0.1471
 6495W        W22112  11.766  17.678   1.411  0.1695 -0.1590  0.1155
 6496W        W22113   2.164   2.939   4.846 -0.0456 -0.0671 -0.2213
 6497W        W22114   7.356   5.833  11.515 -0.1619  0.2992  0.1319
 6498W        W22115   5.706   4.999  16.014  0.1566  0.0966  0.3516
 6499W        W22116   8.258   5.084  11.339 -0.0387  0.1637 -0.3070
 6500W        W22117  11.721   3.818   1.734 -0.2631  0.0321  0.1723
 6501W        W22118   7.093  15.068   4.120  0.2997 -0.1699 -0.3301
 6502W        W22119   0.764  11.411  11.756 -0.2466  0.1763  0.3164
 6503W        W22120   5.631   0.103  11.356  0.1023 -0.1045 -0.0034
 6504W        W22121   7.085   0.101  13.299  0.2524  0.0924 -0.1619
 6505W        W22122  13.866   8.022  12.961 -0.0092 -0.2260 -0.0887
 6506W        W22123  17.814  15.283  14.758  0.0448 -0.0804  0.5415
 6507W        W22124   2.880   6.101   3.199  0.0348  0.1158 -0.1601
 6508W        W22125  16.662  11.109   2.042  0.0334  0.0594 -0.0217
 6509W        W22126   3.826  16.162  13.244 -0.0186  0.3547 -0.1163
 6510W        W22127   4.415  18.153   3.427  0.1453  0.1725 -0.2664
 6511W        W22128  15.430  17.453   2.565 -0.1683 -0.0696  0.2090
 6512W        W22129  15.544   9.643  11.880  0.2053  0.3155  0.0181
 6513W        W22130   7.668   1.887  11.751  0.1413  0.1405  0.2469
 6514W        W22131   9.747   3.213   0.963  0.1252 -0.1410  0.1345
 6515W        W22132   3.678   4.312  14.608  0.0616  0.2038 -0.0909
 6516W        W22133   6.640  16.297  14.591  0.0484  0.2721 -0.0423
 6517W        W22134   9.612   0.589  13.299  0.0541  0.1484 -0.0824
 6518W        W22135  14.599   4.787   2.473  0.1825  0.0198  0.3401
 6519W        W22136  17.880  15.216   2.026  0.3266  0.0493  0.1869
 6520W        W22137   2.330   4.680   5.190 -0.3005  0.2147  0.0167
 6521W        W22138  15.613   5.211  12.492  0.0518  0.2253  0.1029
 6522W        W22139   2.785   9.126  14.461  0.2030  0.1389 -0.2325
 6523W        W22140   5.466  17.696   0.513 -0.0775  0.1117  0.0314
 6524W        W22141  12.025  11.085   2.629 -0.1436  0.1203  0.2120
 6525W        W22142  17.148  10.630   4.155 -0.0227  0.4075 -0.5285
 6526W        W22143  17.878   3.057   2.975  0.1265  0.0834 -0.1157
 6527W        W22144  14.747   9.826   3.633  0.0135 -0.1856  0.2995
 6528W        W22145   7.273   5.042  14.848 -0.1246 -0.0487  0.0896
 6529W        W22146   6.438   4.045   4.874  0.1288 -0.0432  0.2510
 6530W        W22147   4.752   5.542  15.247 -0.2348  0.3952 -0.1960
 6531W        W22148   8.285  14.100   5.827  0.2107  0.1157  0.0451
 6532W        W22149  10.015   1.054  12.114 -0.2177 -0.0886 -0.0283
 6533W        W22150  17.221   2.037  11.475  0.0483  0.2233 -0.2825
 6534W        W22151  11.300   0.725  14.132  0.3407  0.0741 -0.2176
 6535W        W22152   2.206   3.600  15.161 -0.3811 -0.1778  0.1146
 6536W        W22153   7.653   9.339  14.447 -0.2406 -0.3375 -0.0899
 6537W        W22154   9.139  13.215   4.091 -0.0525 -0.1871 -0.1937
 6538W        W22155  16.318  12.724  10.498 -0.0834  0.0830  0.0656
 6539W        W22156  17.636   2.926   1.637  0.2949  0.3863  0.2422
 6540W        W22157   7.200  10.561  15.519 -0.0150 -0.3147 -0.0895
 6541W        W22158  12.181  18.457  15.346 -0.3648  0.1026  0.0439
 6542W        W22159   1.286  16.679  13.045  0.1344 -0.1590  0.0173
 6543W        W22160   8.169   6.266  15.901  0.0089  0.1289  0.0538
 6544W        W22161   0.501   6.979  15.718 -0.0101  0.1653  0.0197
 6545W        W22162  17.509  13.902  13.819  0.3836  0.1089 -0.2588
 6546W        W22163   0.892  11.133   4.038 -0.0595  0.1201 -0.1717
 6547W        W22164  12.698  16.449  11.371  0.0558 -0.0079 -0.1741
 6548W        W22165   8.082  18.047   5.577  0.1601 -0.0623  0.1105
 6549W        W22166   2.681  18.069   0.105  0.1702 -0.1856 -0.4266
 6550W        W22167   6.751   3.065  13.345 -0.0467 -0.0474 -0.1256
 6551W        W22168   1.722   2.644  11.809  0.1328  0.1683 -0.1287
 6552W        W22169  15.177   3.875  15.572  0.2353 -0.0135 -0.1686
 6553W        W22170   8.935  12.139  13.879  0.1440  0.0345  0.2442
 6554W        W22171  13.065   4.146  15.795 -0.0099  0.1551  0.0125
 6555W        W22172   1.780   9.254  13.369  0.1744 -0.4092 -0.0362
 6556W        W22173   9.157  10.780  13.459 -0.1469  0.0676  0.2201
 6557W        W22174  14.381  16.705  13.111  0.0221 -0.0969  0.1620
 6558W        W22175   5.599  13.147   2.802 -0.0569 -0.4888 -0.1018
 6559W        W22176  12.980  16.714  13.771 -0.2530 -0.1674  0.1599
 6560W        W22177   2.883   7.520   6.217  0.0827 -0.0695  0.1920
 6561W        W22178  16.539  18.225   2.002  0.2010  0.0472 -0.0779
 6562W        W22179   1.288   9.274  13.155 -0.0952 -0.2620  0.0835
 6563W        W22180  18.308   9.404   5.705 -0.0600  0.0497  0.2912
 6564W        W22181   7.664   6.406   4.777 -0.0419 -0.3700 -0.2936
 6565W        W22182   9.834  15.901   2.076 -0.0638  0.1525  0.1279
 6566W        W22183   9.228   2.022  14.954  0.0497 -0.2776 -0.0196
 6567W        W22184  17.670   3.402  13.733 -0.1964  0.2784  0.1189
 6568W        W22185  18.002  11.984   3.219  0.0336  0.2690 -0.0159
 6569W        W22186   2.708  14.529   4.853 -0.0680 -0.0383 -0.0895
 6570W        W22187   5.616  14.103   4.855 -0.1720 -0.3081 -0.0637
 6571W        W22188   7.010   2.646  13.230  0.1818  0.3470 -0.3312
 6572W        W22189   0.010  13.252  14.452  0.1438 -0.1190 -0.0631
 6573W        W22190   6.121   8.628   1.700  0.0387 -0.3207  0.1418
 6574W        W22191   7.438   3.409  12.239  0.4412 -0.2076  0.1546
 6575W        W22192  17.740   4.120  14.421 -0.0810  0.2498  0.1190
 6576W        W22193   6.362   3.100   0.335 -0.0390  0.2506  0.1214
 6577W        W22194   0.128  11.642   2.040  0.1353 -0.1378 -0.1057
 6578W        W22195   7.793   1.957  13.486  0.0340  0.0915 -0.0538
 6579W        W22196   7.441   8.341  10.986 -0.0406 -0.0811 -0.5921
 6580W        W22197   2.896   6.693   3.689  0.0788  0.0007  0.2380
 6581W        W22198  12.537   9.994  14.418  0.3002  0.1502 -0.0565
 6582W        W22199   6.003   3.239   3.085  0.0036  0.0162 -0.3143
 6583W        W22200   7.514   7.138  14.475 -0.2799  0.4921 -0.3553
 6584W        W22201  11.741   7.796   2.928  0.0702 -0.0023 -0.1858
 6585W        W22202  12.422  17.555  14.884  0.3364 -0.1012  0.0457
 6586W        W22203  10.167   7.408  14.686  0.3165 -0.3210 -0.1127
 6587W        W22204   0.415   0.289  14.299 -0.2971 -0.2161 -0.0057
 6588W        W22205   6.174   2.953   4.646 -0.2829  0.2439 -0.0985
 6589W        W22206  12.824  14.727   4.789 -0.1545 -0.1497 -0.1597
 6590W        W22207  17.355   3.061  12.564  0.0891 -0.0413  0.0899
 6591W        W22208   7.559  16.770  14.527 -0.4836 -0.0957  0.0672
 6592W        W22209   7.221   4.992   1.433  0.0972  0.2715 -0.0816
 6593W        W22210   7.906   5.486   0.939  0.1654 -0.1188 -0.2148
 6594W        W22211   7.996   8.045   4.222  0.0743 -0.2236  0.1883
 6595W        W22212  13.129   6.841   3.669 -0.0930  0.0968  0.2650
 6596W        W22213   4.522   1.964  14.834 -0.0570 -0.1052  0.1086
 6597W        W22214   9.458   9.476  13.928 -0.2045 -0.0519  0.0472
 6598W        W22215  14.582  15.425  14.810  0.1451 -0.0477 -0.1449
 6599W        W22216  14.920   8.887   0.284 -0.3803  0.2451  0.4052
 6600W        W22217   5.897   9.724  15.942  0.3332 -0.0063  0.0854
 6601W        W22218  10.054   6.797   4.129 -0.0271 -0.2452  0.0260
 6602W        W22219  18.032  18.030  15.438  0.3266 -0.1802  0.1092
 6603W        W22220   7.225  10.923  14.872  0.0994 -0.1070  0.0929
 6604W        W22221   7.793  13.266   4.408  0.0153 -0.0125 -0.3093
 6605W        W22222  12.598  16.973   1.527  0.2700 -0.4530  0.0911
 6606W        W22223  15.751  14.615   2.466 -0.2259 -0.0350  0.3283
 6607W        W22224  11.922   7.445   4.016  0.0419 -0.3300 -0.0261
 6608W        W22225   4.763   8.626  13.109 -0.0929 -0.1897  0.1979
 6609W        W22226  15.054   0.301  15.209  0.1417 -0.0551 -0.0787
 6610W        W22227  17.472  18.293   2.796 -0.0858  0.3496  0.3133
 6611W        W22228   3.342   8.150   3.374  0.0334 -0.0843 -0.0599
 6612W        W22229  10.348   4.530   1.945  0.1865 -0.1278  0.0309
 6613W        W22230  15.088  18.453   0.602 -0.1070  0.0659 -0.0223
 6614W        W22231  18.210   8.001  16.126 -0.1588 -0.0416 -0.3527
 6615W        W22232   1.882  11.069   4.940 -0.0763  0.3608  0.2363
 6616W        W22233  11.848   6.651   5.046  0.0795  0.1680 -0.0630
 6617W        W22234  17.028  16.755  13.086  0.0424  0.1870 -0.2730
 6618W        W22235   3.580   8.136  14.828  0.1158  0.0922  0.4475
 6619W        W22236   9.209   2.417  10.193  0.0607 -0.1567 -0.0811
 6620W        W22237   8.597   6.059   3.830  0.0745 -0.0258  0.1260
 6621W        W22238   1.718   4.871  14.592 -0.0982 -0.0508 -0.1916
 6622W        W22239   9.443  12.123  10.962  0.0086 -0.0596  0.3562
 6623W        W22240  13.670   8.581  15.182 -0.0971 -0.1103 -0.0534
 6624W        W22241  12.356  18.407   5.318 -0.0334 -0.1315 -0.4861
 6625W        W22242   8.156  15.912  12.577 -0.1707 -0.0056  0.1293
 6626W        W22243  14.616  17.197  13.328 -0.1086  0.0450 -0.1019
 6627W        W22244   7.465  13.542   4.833  0.0746  0.2274 -0.5072
 6628W        W22245  17.365  16.487   5.608  0.0010 -0.0349 -0.1120
 6629W        W22246   8.999  13.905   2.699 -0.0086  0.1630  0.1528
 6630W        W22247  13.700  10.025   2.311  0.0368 -0.1049 -0.1491
 6631W        W22248  17.009  11.755  12.992  0.2231 -0.0369 -0.0816
 6632W        W22249  16.345   4.357   1.862 -0.1656 -0.1029  0.1915
 6633W        W22250   1.872   7.500  12.781 -0.0373  0.0017  0.3133
 6634W        W22251  14.447   4.854  15.045  0.2404 -0.0389 -0.2347
 6635W        W22252  12.996   3.989  13.932  0.0590  0.1349 -0.1627
 6636W        W22253  14.347  16.901  13.689 -0.2369 -0.2843 -0.1176
 6637W        W22254  10.042  10.685   3.708 -0.0554  0.0080  0.1294
 6638W        W22255  16.162   2.089   3.092  0.1600 -0.0411  0.1169
 6639W        W22256  14.462   1.698   2.708  0.2379 -0.2167  0.1959
 6640W        W22257  15.717  12.532  12.726  0.1204 -0.3273 -0.0380
 6641W        W22258   5.974   7.065   5.357 -0.1421 -0.1841  0.1655
 6642W        W22259  12.453  11.894  11.217  0.1497  0.1336  0.1327
 6643W        W22260  14.303  11.647  14.679  0.2092 -0.2842 -0.2560
 6644W        W22261  13.236  15.356   4.266 -0.2354 -0.2054  0.0728
 6645W        W22262  12.612   1.571  13.894  0.1823  0.0249 -0.1176
 6646W        W22263  12.469  11.938   3.781  0.1273 -0.0232  0.4187
 6647W        W22264   1.757   6.659  15.215 -0.0562 -0.2658 -0.1780
 6648W        W22265   6.867  12.889   5.925  0.3487  0.0557 -0.1492
 6649W        W22266  14.567   4.267   3.268  0.2391 -0.1847 -0.2012
 6650W        W22267  18.326   9.299   3.600  0.2064 -0.3162  0.0079
 6651W        W22268   1.667   5.850  12.509  0.1156  0.1125 -0.0337
 6652W        W22269   2.562   3.776  10.148  0.2144 -0.2163 -0.0155
 6653W        W22270  13.268  12.242  13.088 -0.4742 -0.1184  0.0785
 6654W        W22271  12.688  11.635   1.253 -0.0233  0.0791  0.3717
 6655W        W22272   9.647  14.757   2.882  0.0355 -0.2836 -0.0939
 6656W        W22273   6.038   6.602   3.359  0.1933 -0.2536  0.1708
 6657W        W22274  12.908   0.075  15.457 -0.2485  0.0679  0.2008
 6658W        W22275   9.596   7.763   5.167 -0.0681  0.1837  0.1054
 6659W        W22276   5.053  11.463   1.584  0.1384 -0.3124 -0.0292
 6660W        W22277  12.534   9.162  14.375 -0.0379  0.1240  0.0126
 6661W        W22278   8.081  14.954   6.283  0.2030  0.0439 -0.0029
 6662W        W22279  12.789   8.468   2.857  0.0547 -0.2153 -0.1454
 6663W        W22280  17.900  16.622  11.380 -0.2094 -0.0533 -0.1157
 6664W        W22281  16.232   9.660  12.980 -0.0699  0.1771 -0.0593
 6665W        W22282  15.154   8.464  13.559 -0.0682  0.1931 -0.3309
 6666W        W22283  11.285   2.312   1.815 -0.0520 -0.1281 -0.0375
 6667W        W22284   8.152  16.724   2.114  0.0818 -0.0953 -0.3062
 6668W        W22285  10.732   6.732  14.504  0.2537 -0.1560  0.2401
 6669W        W22286   6.948   4.987  13.660 -0.3142 -0.0903  0.1600
 6670W        W22287  14.132   7.428   4.766 -0.3196 -0.1387  0.1423
 6671W        W22288   6.645   5.133   0.903  0.1629 -0.1586  0.0578
 6672W        W22289  16.629   0.373   1.193 -0.3392 -0.1598  0.0303
 6673W        W22290  16.792   1.613  15.871 -0.1293  0.1490  0.1797
 6674W        W22291   3.002  11.742   1.898  0.1200 -0.0752 -0.1167
 6675W        W22292   1.793   3.682   4.255  0.1037  0.1114 -0.0461
 6676W        W22293   6.333   8.071  15.338 -0.0083 -0.0174 -0.3901
 6677W        W22294   9.653   6.151  10.638 -0.3224 -0.0056 -0.1984
 6678W        W22295   3.981   1.944   0.374 -0.1614 -0.3816 -0.1624
 6679W        W22296  13.973  14.465  10.026 -0.1437 -0.1013 -0.2736
 6680W        W22297   8.362   5.860  11.943  0.1313 -0.3136 -0.0707
 6681W        W22298   6.695   5.790   2.919  0.2134 -0.1186  0.1234
 6682W        W22299   5.752   5.420   2.126  0.0761  0.1416  0.2390
 6683W        W22300   8.499  12.718  14.945  0.1939  0.0352  0.1194
 6684W        W22301   0.480  15.974  13.430  0.2096 -0.4002 -0.3043
 6685W        W22302  12.962   9.155  13.523 -0.0878  0.5497  0.2385
 6686W        W22303   4.325   8.928  15.290  0.0419  0.2022 -0.0754
 6687W        W22304   4.966   2.183  10.057 -0.0863 -0.2969  0.0256
 6688W        W22305   8.395   4.938  11.901 -0.0521  0.0690  0.0493
 6689W        W22306   4.006   8.375   1.669 -0.1495  0.0956 -0.3361
 6690W        W22307   9.418  17.792  14.728 -0.1431  0.0303  0.1061
 6691W        W22308  18.409   7.375  13.490  0.0356  0.1237 -0.0125
 6692W        W22309   3.898   9.087   5.089 -0.1646  0.1365  0.4647
 6693W        W22310   1.672   7.314  14.527 -0.0932  0.3658 -0.0358
 6694W        W22311   7.193   4.902   2.318 -0.2300  0.2678  0.3075
 6695W        W22312  16.628  13.924  12.165 -0.0137  0.3000 -0.0659
 6696W        W22313   4.058   3.758  16.035  0.1942 -0.1802  0.3647
 6697W        W22314   4.142   0.153  13.669  0.0427 -0.2037 -0.0329
 6698W        W22315   4.306   7.562   3.514 -0.2873 -0.3062  0.0476
 6699W        W22316  10.731   2.027  11.872  0.2703  0.2129  0.0326
 6700W        W22317   6.012  14.221   1.234  0.0688 -0.0163  0.1493
 6701W        W22318   2.725   1.491   5.547 -0.2531  0.1290 -0.0803
 6702W        W22319  10.042   4.554  12.152 -0.0678 -0.3082 -0.0897
 6703W        W22320  12.134  15.745   2.978 -0.0041  0.0580  0.0077
 6704W        W22321  13.793  16.532   4.512 -0.1130  0.0344 -0.2048
 6705W        W22322   1.151  13.205   2.842  0.3157  0.0927  0.0762
 6706W        W22323   6.423   1.412   0.712 -0.1525 -0.0370 -0.1633
 6707W        W22324   1.692   3.327   4.584  0.0414 -0.0640  0.0860
 6708W        W22325  12.116  13.960   3.047 -0.3056 -0.1133  0.1778
 6709W        W22326   6.863  14.322  14.962  0.2921 -0.2829 -0.2344
 6710W        W22327  13.300   2.989   0.439 -0.1219  0.0248  0.0671
 6711W        W22328  18.016   2.211   4.495  0.1163  0.1146  0.1628
 6712W        W22329  10.662  17.145   5.135  0.0116 -0.0721 -0.1440
 6713W        W22330  10.839  12.779  12.069 -0.1278 -0.1516  0.1517
 6714W        W22331   5.279  13.781   6.640  0.3944  0.0150 -0.3914
 6715W        W22332  10.195   1.064   2.804 -0.0892 -0.0608 -0.0414
 6716W        W22333  13.596  14.674   1.371 -0.1806 -0.4314  0.5101
 6717W        W22334  15.739   7.735  11.953  0.3437  0.2114  0.2213
 6718W        W22335   0.796  15.481   4.470 -0.3684 -0.0979 -0.0292
 6719W        W22336   6.804  14.741   5.240 -0.0331 -0.3188 -0.1313
 6720W        W22337  16.519  18.420  11.178 -0.2610 -0.0258 -0.2607
 6721W        W22338   7.180  16.510  16.074 -0.0961 -0.0903  0.0642
 6722W        W22339   2.949   3.913  11.324  0.1791  0.3879 -0.1114
 6723W        W22340  10.549   7.819  10.272  0.0644 -0.1326  0.3027
 6724W        W22341   5.411   9.114   2.164 -0.0790 -0.3719  0.0339
 6725W        W22342  18.415  15.215   3.190 -0.2025 -0.2168  0.1440
 6726W        W22343   1.840   1.662   2.984 -0.2924  0.1589 -0.1365
 6727W        W22344   7.786   3.537  13.026 -0.1429  0.1074  0.0132
 6728W        W22345   4.047  10.816   1.720 -0.2779  0.3018  0.0188
 6729W        W22346   5.307  18.161  11.405  0.0523 -0.0839  0.0111
 6730W        W22347   6.991  13.783   3.315 -0.1853  0.0522  0.0705
 6731W        W22348   3.701   7.738  11.468 -0.1835  0.5259 -0.0453
 6732W        W22349   8.740  17.167   1.949 -0.1842 -0.0867  0.0610
 6733W        W22350   5.153   1.376  13.861 -0.1284  0.0186  0.1293
 6734W        W22351  12.257   9.235   0.743 -0.0134 -0.0384 -0.1151
 6735W        W22352  12.319  16.294  15.882 -0.0547 -0.0167 -0.2650
 6736W        W22353   6.174   2.534  12.698 -0.1936  0.1204  0.2127
 6737W        W22354  15.689  13.909   0.169 -0.0843 -0.1510 -0.1397
 6738W        W22355  18.195   3.030   2.593  0.3282 -0.0174 -0.0502
 6739W        W22356  11.141   6.416  15.741  0.2142 -0.1613  0.1546
 6740W        W22357   9.052  12.923   2.450  0.1404  0.1301  0.1792
 6741W        W22358   2.793   2.166   1.599 -0.0167  0.1183 -0.0187
 6742W        W22359  16.232  12.825  12.176 -0.0604 -0.3122  0.0285
 6743W        W22360  10.094  15.186   3.427 -0.0815 -0.3158  0.1799
 6744W        W22361   6.224   5.289  10.482 -0.1202  0.0339  0.1752
 6745W        W22362  10.759  18.248  15.063 -0.1686 -0.5280 -0.0224
 6746W        W22363  17.328   1.984  14.445  0.1946  0.4792  0.1113
 6747W        W22364  13.337  13.058  13.525 -0.0451  0.0995  0.0947
 6748W        W22365   7.984   2.994  12.886  0.3099 -0.0415  0.2657
 6749W        W22366  13.982  12.163  15.796  0.2040 -0.0115  0.2415
 6750W        W22367   4.983   3.402  16.136 -0.2832 -0.1111  0.3070
 6751W        W22368   2.220   5.953  16.095 -0.0043  0.0459  0.0066
 6752W        W22369  11.453  13.519  14.833 -0.1207  0.0243  0.3010
 6753W        W22370   8.555  10.389  16.026  0.0071 -0.0465  0.0504
 6754W        W22371   3.440   5.686   1.816  0.0440 -0.2650  0.3203
 6755W        W22372  17.297  10.160   4.153  0.1068  0.0883  0.0958
 6756W        W22373   5.602  10.777  14.408 -0.3460 -0.0729 -0.1237
 6757W        W22374   3.592   5.037   3.300  0.4385  0.0948 -0.0694
 6758W        W22375  13.605  12.102   0.973  0.0894 -0.3129 -0.2224
 6759W        W22376  13.972  10.780   1.469  0.0965 -0.0951  0.0669
 6760W        W22377  18.350   6.156   2.583  0.0878  0.1919  0.0383
 6761W        W22378   7.191   0.729  12.510 -0.2200  0.1942 -0.4378
 6762W        W22379  11.568  10.972   2.827  0.1574  0.0719 -0.0908
 6763W        W22380   9.043   5.011   2.209  0.0709 -0.2884  0.2734
 6764W        W22381   3.993   0.470   5.082 -0.2179  0.2674  0.0793
 6765W        W22382   1.804   5.856  13.820 -0.0357  0.0831 -0.0441
 6766W        W22383   7.608  16.029  12.586  0.0260 -0.1896 -0.0371
 6767W        W22384   6.071   5.678  10.807  0.0512  0.2229 -0.2393
 6768W        W22385  17.179   1.759   2.214  0.3673 -0.3526 -0.2192
 6769W        W22386  12.371  17.849   5.177  0.2019 -0.0813  0.0502
 6770W        W22387  15.544   3.850  13.294  0.2856 -0.2211 -0.1273
 6771W        W22388   8.043   5.929   2.816  0.1420  0.1877  0.0982
 6772W        W22389   3.215  10.183  12.656 -0.2192  0.0597 -0.0642
 6773W        W22390  10.147  15.297  13.745 -0.1009 -0.0393 -0.0047
 6774W        W22391   0.568  11.579  13.099 -0.4176 -0.2840 -0.1698
 6775W        W22392   7.788   0.195   0.252  0.1837 -0.2216 -0.1800
 6776W        W22393  18.166   6.491   3.247  0.0314 -0.0015 -0.0522
 6777W        W22394  16.391   5.352  12.365  0.0257 -0.0672  0.3007
 6778W        W22395  16.238   2.865  12.359 -0.0978  0.0259 -0.0700
 6779W        W22396   9.813  13.329   0.630  0.0763 -0.1454 -0.0972
 6780W        W22397  11.926  15.873  13.082  0.0223 -0.0854 -0.0695
 6781W        W22398  17.972  16.457   0.680 -0.2515 -0.0383 -0.1575
 6782W        W22399  17.216   7.566   0.053 -0.0166  0.1629  0.1257
 6783W        W22400  11.913   3.060   0.769 -0.0961 -0.0679 -0.0631
 6784W        W22401  13.038   6.285   3.784 -0.1329 -0.0488 -0.1549
 6785W        W22402  16.969   4.685  14.734 -0.1611 -0.1255 -0.0671
 6786W        W22403  14.399   0.155   2.127  0.0598 -0.0651  0.2027
 6787W        W22404   6.355   0.533   0.528 -0.1528  0.0120 -0.2146
 6788W        W22405   9.753   5.732  14.406 -0.1842  0.0817 -0.0492
 6789W        W22406  11.741  10.164  10.681 -0.0175  0.0746 -0.0357
 6790W        W22407   2.872   4.315  13.483 -0.0334 -0.1425  0.2353
 6791W        W22408   6.545   0.579   1.058  0.2168  0.0781  0.1418
 6792W        W22409   1.888  15.229   3.334  0.0103  0.1195  0.2516
 6793W        W22410  11.608  11.031   4.216  0.0878  0.1090 -0.0358
 6794W        W22411  11.599  16.574   6.055  0.1290 -0.3251  0.1511
 6795W        W22412   2.036  18.220   1.430 -0.0444 -0.0739 -0.0526
 6796W        W22413   1.372   6.180  13.822  0.1965 -0.2277  0.0685
 6797W        W22414   9.455   3.200  16.085  0.0303  0.1284  0.1067
 6798W        W22415   2.246  12.043  15.192 -0.0361  0.2852 -0.0708
 6799W        W22416  16.269  18.458   1.151  0.2282 -0.0279  0.0235
 6800W        W22417   7.574  15.699   5.327  0.0008  0.2375  0.0118
 6801W        W22418  17.992  11.457  13.186 -0.1185  0.0964 -0.0809
 6802W        W22419   8.694  12.489  15.385  0.0789 -0.0543 -0.1942
 6803W        W22420  10.762  11.645  15.415  0.1170 -0.1279 -0.1384
 6804W        W22421   9.853  17.604   0.881 -0.5060 -0.0180  0.4079
 6805W        W22422   8.714  18.144  15.757  0.1217 -0.2102  0.1611
 6806W        W22423   8.115   4.583  14.039 -0.1589  0.0841  0.2615
 6807W        W22424  10.811   9.775   2.542  0.0898  0.0653  0.0939
 6808W        W22425   6.021   6.018  13.273  0.1758 -0.3632 -0.0699
 6809W        W22426  13.007  10.825   1.143  0.1861 -0.4116 -0.1230
 6810W        W22427  16.636   7.352  13.804  0.1594 -0.1027  0.1170
 6811W        W22428  14.103   6.650   4.529 -0.2441  0.0231  0.0409
 6812W        W22429  15.216  13.732  14.566 -0.0322  0.0305 -0.1290
 6813W        W22430  10.552  13.200  10.687 -0.0436  0.1617 -0.1363
 6814W        W22431   7.305  16.584   2.595 -0.2244  0.1735 -0.0716
 6815W        W22432   4.354   2.533   0.853  0.1909  0.1363 -0.0358
 6816W        W22433   7.651  13.541  15.905 -0.0803  0.0321  0.0226
 6817W        W22434   9.649   0.061  11.982  0.0869 -0.0117 -0.0146
 6818W        W22435  12.138   2.929  14.083  0.1327 -0.0998  0.1716
 6819W        W22436  13.970  15.797  10.217 -0.0058  0.0026  0.0514
 6820W        W22437  10.059   7.922  12.028 -0.1380  0.0635 -0.2966
 6821W        W22438   5.909   0.272   4.641 -0.1322  0.1129 -0.3003
 6822W        W22439   8.378   8.963   1.712  0.1558  0.2991  0.0688
 6823W        W22440  14.474  15.120   3.762  0.0662  0.3964 -0.1645
 6824W        W22441  17.841  12.219   0.690 -0.0751 -0.3172  0.1652
 6825W        W22442   7.619  16.229   5.320  0.1633  0.2475  0.1884
 6826W        W22443   6.321   9.731  13.241 -0.1738  0.1710  0.0728
 6827W        W22444   7.756  13.883  14.846  0.0839  0.1207  0.2993
 6828W        W22445  10.886   0.303  13.983 -0.2096 -0.1369  0.3114
 6829W        W22446   9.258   7.730   4.674  0.0410  0.4581 -0.1237
 6830W        W22447   6.610  11.593  14.682  0.0332  0.0125 -0.0207
 6831W        W22448   5.676  12.981  11.069 -0.1671  0.2308 -0.0200
 6832W        W22449   9.370   4.661   2.104  0.3799 -0.3300 -0.1374
 6833W        W22450   0.870   7.043   2.522  0.2691  0.1587  0.1810
 6834W        W22451  13.897   0.266   0.817  0.2054  0.0595  0.3414
 6835W        W22452  17.338   6.141  12.192  0.0565 -0.2556 -0.1170
 6836W        W22453   2.060  15.706   3.260  0.0913 -0.0072  0.1411
 6837W        W22454   1.130   6.082  14.552  0.0488 -0.0495 -0.0195
 6838W        W22455   3.625   4.105   1.038  0.0778  0.0424 -0.1271
 6839W        W22456   4.672   5.878  14.156 -0.5178  0.1601  0.1331
 6840W        W22457   7.134  16.725  11.622  0.2980 -0.2218  0.0487
 6841W        W22458  10.637   2.552  15.484  0.3255 -0.1529 -0.3326
 6842W        W22459  16.436  17.910  12.507  0.1726  0.1256  0.0069
 6843W        W22460  11.097  13.051  14.799  0.1995  0.0686  0.1633
 6844W        W22461   3.512  11.908  13.639  0.0957  0.1319  0.0345
 6845W        W22462   6.789  16.474  13.707 -0.2368  0.0377 -0.0490
 6846W        W22463   1.903  12.243   0.297  0.1373 -0.1703 -0.1404
 6847W        W22464  16.331  14.261  10.265 -0.0470  0.0452  0.0070
 6848W        W22465   2.997   7.388  11.633  0.1960 -0.1145 -0.2322
 6849W        W22466   6.736   2.516   1.165  0.0798 -0.2185  0.0513
 6850W        W22467   5.988  10.242  15.885 -0.0085  0.2903  0.0443
 6851W        W22468   2.689   5.810   0.621 -0.0913  0.0282  0.2197
 6852W        W22469  13.554  17.158  10.988 -0.3320 -0.1785 -0.0242
 6853W        W22470   3.342  11.978   1.539  0.0331  0.1606 -0.2194
 6854W        W22471  11.841   0.771  14.117  0.0126 -0.0777 -0.0848
 6855W        W22472   6.991  13.670  13.253 -0.1165 -0.0993 -0.0920
 6856W        W22473  13.280   0.979   3.274  0.0154  0.1792 -0.4672
 6857W        W22474  13.503   8.485  12.713 -0.1364  0.0221  0.0468
 6858W        W22475  15.239   0.310   4.584  0.1237  0.0422  0.1546
 6859W        W22476   5.098  17.195  12.503 -0.1784 -0.2707 -0.1527
 6860W        W22477   3.685  12.536   0.628  0.0351  0.0264  0.0405
 6861W        W22478  16.484  13.212  10.583  0.0983  0.1724  0.1486
 6862W        W22479  15.954  10.989  15.161  0.0374 -0.0678  0.1948
 6863W        W22480  17.326  14.331   4.344  0.1532  0.1088  0.2855
 6864W        W22481  12.295  13.135  11.156  0.1675 -0.0591  0.3959
 6865W        W22482  17.871   1.356   0.487 -0.0897  0.0127  0.0745
 6866W        W22483   1.421  15.973   2.232  0.2996  0.3024  0.0833
 6867W        W22484   3.271   7.593   5.122  0.1472 -0.2594 -0.1338
 6868W        W22485   3.337   1.786  15.026 -0.0789 -0.1242  0.2492
 6869W        W22486   5.002  12.865   0.059 -0.1520 -0.2326 -0.1041
 6870W        W22487   2.367  17.539   3.489  0.3017  0.0339  0.0191
 6871W        W22488   1.843   6.214  13.469  0.0396 -0.1106  0.0802
 6872W        W22489   7.449   1.568   5.154 -0.1484 -0.0825  0.2717
 6873W        W22490   4.632   2.734  13.189  0.1540  0.4860 -0.0473
 6874W        W22491   7.582   2.624  11.784 -0.1433  0.1119 -0.1626
 6875W        W22492  15.458   1.147   4.382  0.1459  0.1769  0.3373
 6876W        W22493  10.567   1.941  12.484  0.2012  0.2650 -0.1249
 6877W        W22494   0.155  17.681   3.392 -0.3007 -0.2833  0.1594
 6878W        W22495  15.418   0.735  14.098  0.3846  0.0226  0.2072
 6879W        W22496   1.716  13.852   5.289  0.0070 -0.1301  0.0073
 6880W        W22497   1.894   1.982   4.787  0.1479  0.0689  0.0449
 6881W        W22498   4.685   5.027   2.408  0.2125 -0.0810 -0.0745
 6882W        W22499   9.932   2.369  10.946 -0.5298 -0.0755  0.0743
 6883W        W22500   5.846  15.323   1.562 -0.0643 -0.2127  0.0300
 6884W        W22501  14.942   1.700  14.942 -0.0135  0.0270 -0.1349
 6885W        W22502  14.299  13.172   3.330 -0.2496  0.1559 -0.0273
 6886W        W22503   1.650  10.485   0.323  0.0497  0.0183 -0.1806
 6887W        W22504  16.867   8.782   0.496 -0.1188  0.0095 -0.4289
 6888W        W22505  13.517  17.131   1.886 -0.0365  0.1612  0.1793
 6889W        W22506  17.026   0.482  14.658 -0.0565 -0.0709  0.1161
 6890W        W22507   0.852   9.169  16.097  0.0310 -0.0631  0.0589
 6891W        W22508  11.521  14.096   1.913  0.3186  0.0022 -0.0598
 6892W        W22509  14.261  13.292   2.291 -0.5945 -0.1038  0.4303
 6893W        W22510   4.913   0.845  11.519 -0.0871  0.1245 -0.4760
 6894W        W22511  11.095   2.066   2.464  0.1310 -0.2905  0.0800
 6895W        W22512  10.859   2.203  12.758 -0.0017  0.0022 -0.2187
 6896W        W22513   3.127  13.958   1.955  0.1434  0.6185 -0.1432
 6897W        W22514  10.583  12.940  15.673  0.2023 -0.0562 -0.4962
 6898W        W22515  13.335   2.271  15.389  0.0089 -0.1042  0.0890
 6899W        W22516   4.067  11.058  14.505  0.2915  0.2465  0.2433
 6900W        W22517  15.321  13.458  15.327  0.3431  0.1885  0.1597
 6901W        W22518   2.615   6.584  11.172  0.1689 -0.1918  0.0203
 6902W        W22519   8.104  16.549   3.923  0.1501  0.1290  0.0545
 6903W        W22520  11.959   8.664   0.040  0.1037  0.1335  0.0325
 6904W        W22521   5.004   7.168  11.374  0.2055 -0.1831  0.1916
 6905W        W22522   9.004  10.756  15.832 -0.0900  0.3341 -0.0381
 6906W        W22523  18.341   4.324   1.597 -0.0851  0.3144  0.0187
 6907W        W22524  14.436   8.760   2.362 -0.0847  0.2821  0.1759
 6908W        W22525   1.794   3.597  12.904 -0.0009  0.1063  0.0164
 6909W        W22526  16.836   4.492   1.252  0.0085 -0.2275 -0.3012
 6910W        W22527   0.695  11.578   3.688  0.0922  0.0979 -0.1963
 6911W        W22528  10.220  10.644  15.303 -0.1716 -0.2104  0.1385
 6912W        W22529  11.393   2.606   4.072  0.2058 -0.2392 -0.1421
 6913W        W22530   0.749  10.719   1.486  0.0396 -0.1457 -0.1605
 6914W        W22531  18.153   3.478  15.131 -0.3480  0.0978  0.1124
 6915W        W22532  14.958   4.156  11.936 -0.2307 -0.0296 -0.1409
 6916W        W22533   4.689   5.081   4.138  0.0622 -0.1672  0.0433
 6917W        W22534   6.038  13.033  11.470  0.0716 -0.1365 -0.1519
 6918W        W22535  10.430   9.795  14.082 -0.0992  0.0043 -0.1536
 6919W        W22536  11.918   4.138  13.938  0.0729  0.3276  0.0223
 6920W        W22537  10.633  18.138  14.557  0.3204  0.0367 -0.1374
 6921W        W22538  17.647   6.850   3.865 -0.1818 -0.1118 -0.0540
 6922W        W22539  13.610  12.086   1.495  0.2847  0.2168 -0.1132
 6923W        W22540   4.752  14.275  12.506 -0.0438  0.1023 -0.2412
 6924W        W22541  12.399  16.580  12.357 -0.2042 -0.1069 -0.2385
 6925W        W22542   0.320   9.389   2.053  0.0029 -0.0351 -0.4234
 6926W        W22543   8.962  12.903  14.103  0.0587 -0.0088  0.2474
 6927W        W22544   0.342   9.798  15.973  0.0373 -0.1404 -0.0256
 6928W        W22545   9.935  11.046   0.362 -0.1049  0.1465 -0.1698
 6929W        W22546   7.224  17.955  12.124  0.4645 -0.2300 -0.0721
 6930W        W22547  17.790   7.280  13.708  0.2550  0.0094  0.0170
 6931W        W22548  14.618   2.909   5.946 -0.0034  0.0091 -0.0041
 6932W        W22549  17.485  16.949  11.483  0.0373  0.1879  0.1437
 6933W        W22550   6.728   1.017   1.579  0.2442 -0.1797 -0.1013
 6934W        W22551   1.447  10.024  12.644 -0.0710  0.3314 -0.0002
 6935W        W22552   0.898   8.911  13.178  0.3554 -0.0034  0.1912
 6936W        W22553   9.594  16.487   2.567  0.0203  0.2355 -0.0805
 6937W        W22554  13.243   1.424   2.994 -0.3118  0.0587 -0.2601
 6938W        W22555   2.529  15.204   2.073 -0.1872  0.0519  0.0229
 6939W        W22556   6.255   3.909  11.271  0.1278 -0.2946 -0.0102
 6940W        W22557   4.877   4.356  13.282  0.0422 -0.1953 -0.2674
 6941W        W22558  10.184  13.189   4.034  0.4633 -0.0554  0.0350
 6942W        W22559  11.292  13.875   2.289  0.2422  0.2604 -0.0946
 6943W        W22560  15.879   9.772   4.679  0.3155  0.1966 -0.2527
 6944W        W22561   2.935   0.279  13.140  0.0594  0.1405 -0.0995
 6945W        W22562  10.880   8.603   1.804  0.0288  0.4913  0.2520
 6946W        W22563   7.108   2.676   0.811 -0.1919  0.1412  0.0332
 6947W        W22564   5.101  16.519   0.208 -0.0143  0.2837 -0.0627
 6948W        W22565   8.910   4.690  16.039 -0.0034 -0.2598 -0.2361
 6949W        W22566  14.273  12.390   2.455 -0.2031 -0.1547 -0.0330
 6950W        W22567   1.917  12.880   2.537  0.1243  0.3056 -0.1220
 6951W        W22568  15.373  11.146  11.168 -0.0023 -0.3317  0.4267
 6952W        W22569  13.967   5.264  11.570  0.0385  0.3999  0.0475
 6953W        W22570  16.089  16.840   3.047  0.0038  0.0235 -0.0809
 6954W        W22571   1.628   4.155   3.822  0.0437  0.0704  0.2005
 6955W        W22572  14.797   7.217   0.446  0.2011 -0.4081  0.2831
 6956W        W22573   1.826  14.571   0.701  0.0106 -0.0900  0.1111
 6957W        W22574   6.205   4.236   0.708  0.3807  0.2098  0.1395
 6958W        W22575  17.630  17.677   0.402  0.0103 -0.2616 -0.0201
 6959W        W22576  15.725  15.609  11.906 -0.1664 -0.3570 -0.2144
 6960W        W22577  15.479  17.603   0.256  0.1622  0.0776 -0.0319
 6961W        W22578  12.780  11.595   3.704 -0.1199 -0.2906  0.0513
 6962W        W22579   6.324  13.421  12.516  0.1064  0.4068 -0.1675
 6963W        W22580  10.379   8.067   0.873 -0.0286  0.0830  0.0064
 6964W        W22581   7.207  17.231   6.008  0.0815  0.0666 -0.1178
 6965W        W22582   8.608  15.235   0.683  0.3295  0.1823 -0.0412
 6966W        W22583  10.763  11.195   2.067  0.2056  0.1309 -0.2675
 6967W        W22584   6.522   2.331   1.918 -0.2781  0.1587 -0.4305
 6968W        W22585   3.391  15.996   0.370 -0.1751 -0.0230  0.1924
 6969W        W22586   5.699  15.065   2.701 -0.1287 -0.1897 -0.3565
 6970W        W22587  12.447   4.654   4.926  0.2906  0.1134  0.1156
 6971W        W22588  17.841   2.272  14.619 -0.2903  0.2918 -0.2174
 6972W        W22589   2.652  13.392   3.991  0.0724  0.2300 -0.2190
 6973W        W22590   5.427  18.086  10.916  0.1844 -0.2016  0.1248
 6974W        W22591   6.242  13.045   4.517  0.1344 -0.0889  0.1093
 6975W        W22592   8.159  14.120   4.644  0.2561 -0.0385  0.1656
 6976W        W22593   8.683  13.361   4.235  0.0962  0.2188 -0.0272
 6977W        W22594   5.557   9.371   3.602 -0.1571 -0.1763  0.0171
 6978W        W22595  11.925  16.960  11.695  0.1974  0.1530  0.2470
 6979W        W22596  18.102  13.489   2.097  0.1585 -0.4061 -0.0061
 6980W        W22597   7.067  18.452   5.775 -0.1864  0.1301  0.5200
 6981W        W22598   1.642   1.550  15.665 -0.2280  0.1020  0.0869
 6982W        W22599   0.133   7.267  12.625  0.1610 -0.0858  0.1020
 6983W        W22600   9.781  13.159   3.577  0.1788 -0.1145  0.1305
 6984W        W22601  12.822   0.785   3.223  0.1000 -0.3864  0.0699
 6985W        W22602  10.611   5.897   0.902 -0.1855  0.1604  0.0553
 6986W        W22603  13.282  11.300   0.401  0.1002  0.4788 -0.0607
 6987W        W22604   5.129   7.670   1.044 -0.0150 -0.0929  0.0587
 6988W        W22605  17.815   0.140  14.289  0.2687 -0.2135 -0.0535
 6989W        W22606   6.061   8.980   2.782 -0.1859  0.0126 -0.0830
 6990W        W22607  15.937  17.775  13.676  0.1670  0.1015  0.1084
 6991W        W22608   3.338  15.573  14.792 -0.0660 -0.0287 -0.0846
 6992W        W22609  10.954  16.376  12.247 -0.2073 -0.1727  0.0097
 6993W        W22610  11.766   4.708   3.861  0.0216  0.2059  0.1951
 6994W        W22611  12.871  14.868   0.813  0.1416  0.1531  0.0535
 6995W        W22612  15.616   1.529  14.682 -0.2445 -0.0116 -0.0821
 6996W        W22613  16.174  10.252   1.761 -0.1539  0.0478 -0.0313
 6997W        W22614  10.399   3.343  14.415 -0.1267 -0.0879 -0.2141
 6998W        W22615   2.096  16.717   5.341  0.2124  0.0207 -0.1076
 6999W        W22616  11.111   1.669  13.460 -0.3196  0.0503 -0.2544
 7000W        W22617   6.559   1.302   4.614 -0.2695  0.1267 -0.2193
 7001W        W22618   6.021  17.423  14.495 -0.2425  0.0554  0.1957
 7002W        W22619   2.096  10.375  15.561 -0.0485  0.2036  0.0891
 7003W        W22620   6.642  13.165   0.960 -0.0690  0.0462 -0.1349
 7004W        W22621   7.416  16.485   2.010  0.3254  0.2072  0.4522
 7005W        W22622   6.722   3.864   1.783  0.3217  0.0927  0.0022
 7006W        W22623   9.165   7.882  13.499  0.4181 -0.1006  0.1792
 7007W        W22624   9.112  16.819   1.550 -0.1966  0.4463  0.1136
 7008W        W22625  13.479   2.724   3.137  0.2724 -0.1514 -0.0460
 7009W        W22626  16.036  14.571  15.647 -0.0837 -0.2027 -0.0618
 7010W        W22627  13.482  16.134  14.834 -0.0260  0.4467  0.1490
 7011W        W22628  10.572   0.334  15.022  0.0905 -0.1125  0.1435
 7012W        W22629   6.296   1.834   1.732  0.0101  0.0359 -0.3150
 7013W        W22630  17.980  17.035  11.758 -0.1701 -0.0389  0.0539
 7014W        W22631  12.491   5.541  13.323 -0.2261 -0.1094  0.0778
 7015W        W22632  14.639  11.031  14.862 -0.2789 -0.3681 -0.1577
 7016W        W22633   5.995  10.352  11.071 -0.1066  0.0500  0.0893
 7017W        W22634  10.833   8.950  14.506  0.0399  0.2204 -0.0456
 7018W        W22635  13.714   3.934  10.762 -0.1085  0.1329  0.3081
 7019W        W22636   1.195  13.256   6.176  0.0890 -0.0166 -0.0781
 7020W        W22637   7.797  14.009   4.127  0.3434  0.0298 -0.0966
 7021W        W22638  18.292  16.745  15.975 -0.0103 -0.0076 -0.1415
 7022W        W22639  10.627   9.287   2.423 -0.0156 -0.1264 -0.1317
 7023W        W22640   4.110  10.626   0.317  0.2956 -0.3178 -0.3331
 7024W        W22641   8.284  15.309   3.619 -0.0402 -0.4146  0.4028
 7025W        W22642   0.179  11.707   4.535  0.1510  0.1818  0.0967
 7026W        W22643  11.707  12.996  13.593  0.2048  0.0425 -0.0885
 7027W        W22644  11.022   4.294   2.861  0.2695  0.0038 -0.0072
 7028W        W22645   3.218  13.440   2.108  0.2619 -0.1181  0.4221
 7029W        W22646  14.266   0.467  13.731 -0.4431 -0.2139  0.1304
 7030W        W22647   2.273   4.941   3.324 -0.0899  0.1214 -0.0112
 7031W        W22648   0.599   5.718   0.643 -0.1484 -0.0461 -0.1335
 7032W        W22649   4.510  13.641  10.919  0.3389  0.2864  0.0918
 7033W        W22650   0.428  12.970  15.229  0.0190 -0.4124  0.0399
 7034W        W22651   6.517   6.021  13.166  0.2208  0.1826  0.2998
 7035W        W22652   0.068  15.256  14.493  0.3266 -0.1548 -0.0858
 7036W        W22653   2.714   4.726  13.329  0.0752  0.3031  0.0120
 7037W        W22654  13.624  10.686  13.923  0.1472  0.0802 -0.1096
 7038W        W22655  13.766  11.344   5.565 -0.0528  0.1849 -0.0715
 7039W        W22656   2.254  11.178  13.086  0.1322 -0.2696  0.0421
 7040W        W22657  14.010   7.249  12.834 -0.1000  0.3761  0.0700
 7041W        W22658  15.652  10.956  14.659  0.2555 -0.1157  0.0918
 7042W        W22659   4.522   0.924   0.069  0.0906 -0.1608  0.0792
 7043W        W22660  10.100   5.055  11.139 -0.2113 -0.1488 -0.0630
 7044W        W22661   5.405  18.050   4.469 -0.1813 -0.1135 -0.0551
 7045W        W22662   2.057  12.976   4.955  0.1236 -0.2177  0.0762
 7046W        W22663   4.868   0.351   1.536  0.2185 -0.1050  0.4604
 7047W        W22664  11.070  13.037  10.598 -0.1405 -0.0590 -0.0845
 7048W        W22665   9.713   9.067  12.121  0.1010 -0.4184 -0.0755
 7049W        W22666   3.844  17.473   3.169 -0.0268  0.1609  0.4869
 7050W        W22667   7.299   0.497  13.583  0.2048 -0.0952 -0.2288
 7051W        W22668  14.077  15.172   2.622  0.0717  0.1769 -0.4925
 7052W        W22669  15.220   1.234  14.874 -0.0600 -0.3423 -0.0269
 7053W        W22670  11.844  15.024   0.896  0.0495 -0.0075  0.2901
 7054W        W22671  15.714  17.263  10.911 -0.2767 -0.1947 -0.0435
 7055W        W22672   0.674  13.011   2.874 -0.2465  0.2053 -0.2176
 7056W        W22673   7.357   2.931  15.294 -0.1036 -0.0961 -0.1916
 7057W        W22674   8.961   7.384   3.617 -0.0077 -0.0458 -0.1117
 7058W        W22675   6.714  13.692   4.204  0.3637 -0.1129  0.3251
 7059W        W22676   4.621   2.250   2.539  0.1856  0.0927  0.1222
 7060W        W22677   1.971   7.991  12.646 -0.1898  0.3352 -0.1137
 7061W        W22678   3.556  11.303   3.840 -0.1274  0.4240  0.3140
 7062W        W22679  18.082  11.783  12.203  0.0066 -0.4773  0.1833
 7063W        W22680   4.360   2.226   1.235 -0.1441  0.0170  0.1118
 7064W        W22681  16.023   7.363   1.862 -0.3012 -0.0367 -0.1522
 7065W        W22682   6.732   6.708  10.766 -0.3016  0.1173 -0.0935
 7066W        W22683   9.574   5.619  10.643  0.2224  0.1697 -0.0796
 7067W        W22684  13.380  14.548  13.297 -0.1256 -0.1454 -0.0536
 7068W        W22685  12.975   5.883   4.650 -0.0387  0.0108  0.0274
 7069W        W22686   5.059   1.062   2.327  0.2340  0.4797 -0.1577
 7070W        W22687   3.563  16.101  14.130  0.3115  0.0323 -0.0772
 7071W        W22688  17.233  11.272  11.996 -0.0282 -0.0992 -0.1867
 7072W        W22689   3.224  13.174   3.150 -0.3336 -0.2855 -0.0821
 7073W        W22690   0.866  17.613  14.243 -0.1362 -0.1744  0.0528
 7074W        W22691   6.428  17.129   3.370  0.2830 -0.0056  0.0228
 7075W        W22692  10.797  17.779  11.933 -0.0055 -0.4195  0.1616
 7076W        W22693   0.620  17.625   1.702  0.1403 -0.0204  0.1215
 7077W        W22694   8.752  17.498   0.691  0.0766 -0.1263 -0.3204
 7078W        W22695  17.226  15.816   3.700  0.0772 -0.0655  0.0737
 7079W        W22696  17.307   7.993  13.649 -0.0551  0.3243  0.1686
 7080W        W22697  13.543  13.675   2.245  0.2142 -0.1608 -0.2040
 7081W        W22698   2.088   9.561  15.505  0.2081 -0.1007  0.2231
 7082W        W22699   2.401  16.098   3.474  0.0756 -0.0880 -0.0064
 7083W        W22700  16.630   8.051  14.445 -0.1908  0.1541  0.0422
 7084W        W22701  13.152   1.190   1.443  0.2120  0.3088  0.0397
 7085W        W22702  11.744   8.771   3.521  0.2482 -0.0460  0.1922
 7086W        W22703   4.132  10.698  11.902 -0.0359 -0.2225  0.0744
 7087W        W22704  15.768  15.683  15.960 -0.3489 -0.1385  0.2133
 7088W        W22705  16.243  15.996   1.896 -0.1662 -0.4402 -0.0214
 7089W        W22706  16.207  10.744  11.199  0.0883  0.1177  0.1527
 7090W        W22707  16.009  16.610   6.015  0.1585  0.1962  0.2275
 7091W        W22708  14.861   6.272   3.499 -0.4030  0.0540  0.3221
 7092W        W22709   5.096   0.825  10.968 -0.0893  0.2092  0.0226
 7093W        W22710   8.332   8.975  14.112 -0.0160 -0.0837 -0.0283
 7094W        W22711   7.156  14.116  11.004  0.1989 -0.1383 -0.2421
 7095W        W22712  16.256   6.464  13.912 -0.2224 -0.0728 -0.0254
 7096W        W22713   9.339   2.512  15.066 -0.0330  0.2334 -0.2182
 7097W        W22714   0.429   4.058   3.383 -0.0369  0.0767  0.1520
 7098W        W22715  10.470   8.335  13.995  0.3747 -0.1284  0.2308
 7099W        W22716  14.041  11.565   4.593 -0.0920 -0.1634 -0.1704
 7100W        W22717  11.185   7.968  14.662  0.1375 -0.4152 -0.1373
 7101W        W22718  17.433  10.569  14.986 -0.3712 -0.0237 -0.2416
 7102W        W22719  17.764   9.713   0.460  0.0851  0.5056  0.0864
 7103W        W22720  11.964   3.488  12.212 -0.2568  0.0670 -0.0173
 7104W        W22721   6.849  17.368   1.832 -0.3872 -0.1955  0.0076
 7105W        W22722  14.393   6.336  14.568 -0.0645 -0.0138 -0.3820
 7106W        W22723   8.158  14.569   3.345 -0.3856 -0.0144  0.1968
 7107W        W22724   2.210  12.502   3.551  0.1004  0.0715 -0.2686
 7108W        W22725   8.290   8.771   1.244  0.0706  0.2435 -0.2123
 7109W        W22726   0.694  14.827   2.469  0.1030  0.2076  0.0410
 7110W        W22727  12.124   4.592  13.501 -0.3526 -0.0127 -0.0592
 7111W        W22728   9.990  17.826   1.873  0.3124  0.0950  0.3529
 7112W        W22729   5.860   5.499   3.979  0.0519 -0.1210 -0.1501
 7113W        W22730   8.495   2.512  10.852  0.2599  0.2805  0.1788
 7114W        W22731   8.743  11.405  14.843 -0.0173  0.2611 -0.1624
 7115W        W22732  13.060   4.031   2.219 -0.2013 -0.2752  0.2236
 7116W        W22733   6.575  13.798  14.977 -0.0082 -0.1368 -0.1487
 7117W        W22734   7.202  12.118   2.653  0.0058  0.1183 -0.0743
 7118W        W22735  13.864  18.189  15.257 -0.3961 -0.0790 -0.0106
 7119W        W22736  15.527  12.076  13.824  0.0162 -0.3994 -0.0149
 7120W        W22737   7.642   4.604  11.070 -0.0192  0.3243  0.1110
 7121W        W22738  15.899  11.731   5.267 -0.1185 -0.0258 -0.0724
 7122W        W22739   2.231  14.005   4.382  0.1661 -0.0333  0.1172
 7123W        W22740   0.664   7.297   2.076  0.1923  0.0121  0.3022
 7124W        W22741  10.411   5.674   0.360 -0.1138  0.0849 -0.1562
 7125W        W22742  13.669   1.096  12.489 -0.0788 -0.0884  0.1496
 7126W        W22743  11.629   8.207   4.531 -0.0404 -0.0144  0.0272
 7127W        W22744  11.689  10.804  12.236  0.1250  0.4403  0.2264
 7128W        W22745   2.410   8.243  11.211  0.2159  0.1354  0.0306
 7129W        W22746  16.264   0.614   0.423 -0.2910  0.3132 -0.2921
 7130W        W22747  11.670   5.260   0.878 -0.1754 -0.0194  0.0713
 7131W        W22748  15.185  17.747  14.504  0.0476 -0.0147 -0.0395
 7132W        W22749  14.415   5.359   3.821 -0.0713 -0.0333  0.0547
 7133W        W22750  12.358   9.579   1.489 -0.5309 -0.0779  0.0034
 7134W        W22751   2.588  15.672   3.380 -0.0507  0.1451  0.0174
 7135W        W22752  18.087  10.984   0.831  0.2699  0.1152 -0.0581
 7136W        W22753  10.341   5.399  16.056 -0.2072 -0.0662 -0.0212
 7137W        W22754   1.196   9.033   2.924 -0.4058 -0.1372  0.3156
 7138W        W22755   1.296   4.561  13.687 -0.0761 -0.1769 -0.2600
 7139W        W22756   7.636   0.884   1.542 -0.1981  0.3146 -0.4627
 7140W        W22757  10.752   4.052  12.039 -0.1819 -0.3036 -0.1191
 7141W        W22758  16.500  16.796  16.091  0.2538 -0.1076  0.1434
 7142W        W22759  15.249  13.391   3.121  0.0821 -0.0672 -0.0865
 7143W        W22760   1.536   1.917   3.245  0.4799 -0.2336 -0.0599
 7144W        W22761  10.438   2.346  15.966 -0.3317  0.0972  0.2804
 7145W        W22762  17.618  14.617   0.083 -0.2193  0.1070 -0.3248
 7146W        W22763   6.670  15.240   3.766 -0.6410 -0.1865 -0.0159
 7147W        W22764  10.023   5.835  12.550  0.1229 -0.0917  0.0168
 7148W        W22765  11.669  14.888   1.440 -0.3619  0.2547  0.0693
 7149W        W22766  10.073  17.742  13.658  0.3187 -0.1916 -0.1270
 7150W        W22767   7.737  11.283   0.416 -0.2907 -0.0266 -0.3336
 7151W        W22768   5.925   3.581  14.625  0.0831 -0.2649  0.0739
 7152W        W22769  12.495   9.537  12.917 -0.1361 -0.0477 -0.0951
 7153W        W22770  14.208  12.785  12.571  0.1468 -0.1827 -0.2522
 7154W        W22771  11.221   9.382  11.777  0.0248  0.2360  0.2865
 7155W        W22772   5.577  12.863   0.535  0.2002 -0.0256 -0.1382
 7156W        W22773  10.509   8.885   2.139  0.0332 -0.0885  0.1720
 7157W        W22774   0.111   8.895  14.533 -0.1393  0.1241  0.0596
 7158W        W22775   1.365   5.277   4.369  0.2082 -0.0433  0.1718
 7159W        W22776   6.370  13.356  14.850 -0.3860 -0.1066  0.2694
 7160W        W22777   8.185   7.326  11.538 -0.2263 -0.0060  0.1127
 7161W        W22778   8.902   2.778   0.453 -0.1464 -0.1033  0.0177
 7162W        W22779  11.603   8.689  14.208  0.5557  0.1743  0.0534
 7163W        W22780   0.420  10.852  11.832 -0.2295  0.0727  0.2566
 7164W        W22781  17.630  13.865  14.671 -0.0303 -0.0469 -0.2050
 7165W        W22782   6.497  15.306  11.893 -0.0103  0.0908 -0.1899
 7166W        W22783   3.650  11.156   2.098  0.2128  0.0246  0.2679
 7167W        W22784   7.726   8.532  14.696 -0.3973 -0.0125 -0.0423
 7168W        W22785   5.120  12.555   4.077  0.0074 -0.0717  0.1286
 7169W        W22786  17.965   9.261  11.153  0.2208 -0.0030  0.0549
 7170W        W22787  11.913  12.212   5.742 -0.0560  0.1983 -0.1842
 7171W        W22788   3.450  16.889   1.975  0.0848  0.1615 -0.0049
 7172W        W22789   7.681  18.077   2.629 -0.2190 -0.3654 -0.3608
 7173W        W22790   7.714  15.543   2.019 -0.0496 -0.0183 -0.0941
 7174W        W22791   5.814  16.230   4.721 -0.1095 -0.1257 -0.1607
 7175W        W22792  15.166  12.216   0.717 -0.1948  0.1197 -0.1207
 7176W        W22793  16.125  11.665   3.506 -0.0511 -0.1891  0.4446
 7177W        W22794  17.503   4.006  15.677  0.0944  0.0938  0.4110
 7178W        W22795  13.592   1.093   2.797  0.0995 -0.0695  0.1327
 7179W        W22796  18.368   0.825  12.074  0.0618 -0.0954 -0.1901
 7180W        W22797  16.147   6.902  13.729  0.0007 -0.1908  0.2052
 7181W        W22798   6.778   4.296   1.559 -0.2772 -0.0671  0.1400
 7182W        W22799  11.244  13.132   3.460 -0.3212  0.0737 -0.0979
 7183W        W22800  12.756  12.141  13.126  0.2786  0.0732 -0.1336
 7184W        W22801  13.766   9.576   4.244 -0.4264 -0.0770 -0.1224
 7185W        W22802   0.002  10.160   3.038  0.2007 -0.1319 -0.1908
 7186W        W22803   5.241   6.651   2.545 -0.0812 -0.0860  0.5526
 7187W        W22804  11.658   4.345  12.643  0.0629  0.0579 -0.4341
 7188W        W22805  13.265  13.275   2.499 -0.0915 -0.4081 -0.0526
 7189W        W22806   6.686   5.404  14.232  0.1162 -0.0747 -0.1518
 7190W        W22807   1.850  18.315  15.710 -0.1416 -0.2707  0.1792
 7191W        W22808   7.697   7.242   0.414  0.0528  0.2093  0.0043
 7192W        W22809  12.664  16.503  12.831  0.1543  0.1299  0.0224
 7193W        W22810  14.389   6.810   4.166 -0.3544 -0.1375  0.0490
 7194W        W22811   3.668   4.496  12.237  0.0006  0.1180  0.0411
 7195W        W22812  13.358   0.846   0.247 -0.2387 -0.0248 -0.1273
 7196W        W22813  13.613   5.011  15.827 -0.2568 -0.0411  0.0377
 7197W        W22814   6.469  14.906   4.173  0.3337 -0.0398  0.0335
 7198W        W22815  16.220   3.326  15.664 -0.1573 -0.1639  0.1886
 7199W        W22816   5.495   6.264  11.208 -0.2583  0.1112  0.3076
 7200W        W22817   0.970   6.953  11.940  0.1714 -0.0718  0.0489
 7201W        W22818  15.997  14.070  15.696  0.3106  0.2113  0.1075
 7202W        W22819   2.112   2.053  12.183 -0.0237  0.3979  0.3867
 7203W        W22820   5.741  14.579   5.225  0.0565  0.2016 -0.1995
 7204W        W22821   8.817   1.998   3.548 -0.3298 -0.2486  0.0726
 7205W        W22822  12.192   5.343  11.076 -0.0424 -0.0829 -0.0639
 7206W        W22823   3.183  11.116   1.398 -0.2137 -0.0857  0.0272
 7207W        W22824  17.172   3.649   1.926 -0.0820 -0.0065 -0.0565
 7208W        W22825  17.375  12.579  11.448 -0.0185 -0.1735  0.6130
 7209W        W22826  10.089   8.322   3.842 -0.3806  0.0503 -0.1940
 7210W        W22827   0.176   2.885   2.794  0.3091 -0.2391  0.0828
 7211W        W22828  18.453  18.152  15.225 -0.0637 -0.2008  0.0783
 7212W        W22829   5.528   4.140  10.733 -0.0833  0.0878 -0.0612
 7213W        W22830  16.628   2.971   5.404  0.0728  0.0570 -0.0054
 7214W        W22831   9.110  18.352   3.810 -0.1854 -0.1571 -0.1309
 7215W        W22832  17.972   0.524   0.522 -0.0761  0.0793 -0.0205
 7216W        W22833  13.211  10.088   0.478 -0.0175  0.0307 -0.2545
 7217W        W22834  10.502  13.212   2.361  0.0255 -0.0191 -0.0581
 7218W        W22835   6.602   2.892   2.062 -0.0040 -0.2328 -0.1372
 7219W        W22836   9.975   0.635  12.619 -0.0648  0.2064  0.0188
 7220W        W22837   7.129   5.378   2.800 -0.1257 -0.1649  0.0668
 7221W        W22838   0.673  10.928   0.570  0.2257 -0.1260  0.0674
 7222W        W22839  17.798  12.760   0.651  0.2218  0.1162  0.0304
 7223W        W22840   7.480   7.485  10.948  0.0808  0.3445  0.2010
 7224W        W22841  17.795   7.025  16.076  0.1884  0.4343  0.0151
 7225W        W22842  14.134  14.212   0.240  0.1200 -0.1674  0.0795
 7226W        W22843  10.101   5.317  12.700 -0.1162 -0.1332  0.2676
 7227W        W22844   5.486   8.374  13.992 -0.1362 -0.2328 -0.0146
 7228W        W22845  12.246  12.335  15.133 -0.1106  0.4675  0.0158
 7229W        W22846  14.415   7.225  13.152 -0.2609 -0.0243  0.3202
 7230W        W22847   2.465  15.532   2.483  0.0253 -0.1308 -0.0801
 7231W        W22848   8.603   0.055   3.872 -0.1867 -0.0448  0.0870
 7232W        W22849   7.124   8.894   1.035 -0.0944 -0.0080 -0.3782
 7233W        W22850  17.779   2.038  14.184 -0.0933  0.3898  0.1442
 7234W        W22851   2.908  11.237   1.874  0.0478 -0.4378  0.1578
 7235W        W22852  12.843  14.787  11.242 -0.4192 -0.1692 -0.1959
 7236W        W22853   0.933   4.944  13.801  0.1799  0.2919 -0.2190
 7237W        W22854  11.612   8.576   2.033 -0.1146  0.0673 -0.1194
 7238W        W22855   4.842   2.844  11.507  0.0092 -0.1712 -0.3978
 7239W        W22856   9.415  11.173  11.961  0.0251 -0.1201 -0.0267
 7240W        W22857   6.225   2.543   5.465 -0.0681  0.0718  0.1032
 7241W        W22858   3.127   9.259  12.507 -0.1763 -0.0063  0.2552
 7242W        W22859   6.447   2.097   5.166  0.1626 -0.1176 -0.0187
 7243W        W22860   8.769  16.455  15.217  0.0917  0.1660 -0.1817
 7244W        W22861   8.831   9.566   1.459 -0.2280  0.1567 -0.0485
 7245W        W22862  15.539  12.738   3.734  0.2448 -0.2774 -0.2577
 7246W        W22863   5.627  12.606  13.609  0.2244  0.2581  0.3611
 7247W        W22864  15.036   3.034   1.396 -0.1118  0.2679  0.3110
 7248W        W22865   6.902   7.342   3.874  0.1383  0.0335 -0.2102
 7249W        W22866   5.276  15.704   5.295  0.1841 -0.1769  0.1690
 7250W        W22867   7.578   4.694   5.304 -0.0385 -0.0775  0.0964
 7251W        W22868  18.450   0.984  16.013 -0.1051 -0.1337  0.0196
 7252W        W22869  13.442   9.026  14.056 -0.1247 -0.2423 -0.3175
 7253W        W22870   1.690  11.243   6.046 -0.1710 -0.2326  0.1147
 7254W        W22871  12.414   8.254   1.951  0.0739 -0.1358  0.0528
 7255W        W22872  16.002   0.251  14.438 -0.0748 -0.3002 -0.1432
 7256W        W22873   3.873   1.115   0.206 -0.1745 -0.0352  0.0356
 7257W        W22874   0.938   4.037  14.407  0.0060  0.4039 -0.2524
 7258W        W22875   5.251   0.250   2.773 -0.1484 -0.2996 -0.0079
 7259W        W22876  12.520   9.727   2.315 -0.3405 -0.3705  0.0458
 7260W        W22877   6.596   9.324  13.044  0.2621  0.2911  0.1338
 7261W        W22878  15.666  10.208   1.055  0.0857 -0.0743  0.2621
 7262W        W22879  17.679   1.766  12.620 -0.3346 -0.2681 -0.0797
 7263W        W22880  14.944   8.055   4.766 -0.0930  0.1158  0.1577
 7264W        W22881   8.272   7.985   5.625  0.0560  0.2970  0.1445
 7265W        W22882  11.497   1.854  14.805  0.0687  0.1547  0.1909
 7266W        W22883  11.848   4.889  12.012  0.0725  0.1047 -0.2607
 7267W        W22884  12.970  10.940  14.721  0.1190 -0.0326  0.1896
 7268W        W22885  11.152   6.853  13.117 -0.1224 -0.2093 -0.0502
 7269W        W22886  12.490  13.256   0.923 -0.2129  0.0752 -0.0075
 7270W        W22887   0.067  14.730  14.250  0.1012 -0.1547  0.0998
 7271W        W22888  18.381  14.072  15.392 -0.1660 -0.2282 -0.1950
 7272W        W22889   8.862   1.971   1.992 -0.4295 -0.2948  0.1016
 7273W        W22890   8.419  17.388   1.646  0.0965 -0.3580 -0.0192
 7274W        W22891  14.539  16.403  13.872  0.1802  0.2374  0.0639
 7275W        W22892  14.925  11.386   2.430  0.2660  0.0572  0.0514
 7276W        W22893  14.061   8.971  13.848 -0.1620 -0.3202  0.0755
 7277W        W22894   7.808   1.068   2.992 -0.1259 -0.2351  0.0830
 7278W        W22895  10.117   4.773  10.619  0.0271 -0.4001  0.3691
 7279W        W22896   5.715   9.456   1.892 -0.1400 -0.0074 -0.2962
 7280W        W22897  14.770   9.147  15.014 -0.1322 -0.0207 -0.0856
 7281W        W22898   1.493  17.027   5.376  0.0762 -0.3126 -0.0398
 7282W        W22899  14.472  12.396   0.909 -0.2955  0.1134 -0.4010
 7283W        W22900   8.540   1.463   4.732  0.2118 -0.0096 -0.0897
 7284W        W22901   7.006   3.099   1.247 -0.3069  0.3331  0.0727
 7285W        W22902   0.982  16.844  14.402  0.2524 -0.1023  0.2538
 7286W        W22903  18.108  18.410   3.347  0.0132 -0.0099 -0.1032
 7287W        W22904   6.272  11.465  13.138  0.1553 -0.2268  0.2234
 7288W        W22905   0.135   1.906  11.836  0.2568  0.0931 -0.3819
 7289W        W22906  13.588   3.811  14.620 -0.1081 -0.1066  0.0485
 7290W        W22907   9.221   3.757  15.131 -0.2142  0.0060  0.1167
 7291W        W22908   9.573  18.270   3.938  0.1018 -0.1070 -0.0105
 7292W        W22909  16.851  17.976   5.117  0.0230 -0.0181  0.0651
 7293W        W22910   7.630  10.380   0.019  0.0648 -0.1648 -0.0682
 7294W        W22911  11.438   7.533   1.420 -0.2244 -0.0059 -0.0015
 7295W        W22912  14.812   6.733   3.695 -0.0399 -0.0960  0.2232
 7296W        W22913  15.167  10.894   4.999 -0.3671 -0.0045  0.1806
 7297W        W22914   7.096   6.891   2.422  0.1057  0.0775 -0.1695
 7298W        W22915   7.527   2.558   3.614  0.4297  0.1877  0.0102
 7299W        W22916  11.281   4.788   0.931 -0.0599 -0.0842 -0.1271
 7300W        W22917   1.511  11.591   3.358  0.1584  0.1582  0.0204
 7301W        W22918  12.525   9.023   5.246 -0.0861  0.0953  0.0557
 7302W        W22919  12.042  10.239  12.413 -0.0625 -0.0326  0.2766
 7303W        W22920   6.692  11.325  12.479 -0.1489  0.0410 -0.2395
 7304W        W22921   9.664  14.430   4.100  0.2474  0.3874 -0.0727
 7305W        W22922  17.306  14.141   1.263  0.0395 -0.1902 -0.1202
 7306W        W22923   7.793   4.501   4.160 -0.0233 -0.1392  0.1299
 7307W        W22924  17.740  15.601  15.204  0.0955  0.0453  0.0333
 7308W        W22925  11.908  15.120  11.523  0.2486  0.0123  0.2041
 7309W        W22926  11.539  11.381   4.640 -0.3200 -0.2006  0.1524
 7310W        W22927   7.509   3.564  13.430  0.1469 -0.2583 -0.1428
 7311W        W22928   1.029   0.195  13.431 -0.0942  0.0694  0.1055
 7312W        W22929  11.595   0.068  13.618  0.0012  0.1185 -0.1022
 7313W        W22930   7.596  13.094  15.033  0.3746 -0.0732  0.0710
 7314W        W22931   4.366   4.338   1.838  0.1358  0.1023 -0.2720
 7315W        W22932   7.181   9.596   0.326 -0.2840 -0.0344  0.2686
 7316W        W22933   6.460  10.156   5.099  0.0069  0.1762  0.0919
 7317W        W22934  13.516   8.013  11.761  0.2922  0.1111 -0.2056
 7318W        W22935  13.276   3.194  15.596 -0.0583  0.0140 -0.2108
 7319W        W22936   5.082  14.485  13.565  0.3590  0.1718 -0.0003
 7320W        W22937  18.040   9.941  12.408 -0.2075 -0.1233 -0.0670
 7321W        W22938   1.328  15.060   3.445  0.2637  0.1254 -0.1853
 7322W        W22939  16.522   1.252  12.534 -0.1242  0.2287  0.1325
 7323W        W22940  14.085  15.248   6.412  0.1946 -0.0528  0.0272
 7324W        W22941   1.886   6.547   3.667  0.1916 -0.1513  0.2640
 7325W        W22942   8.442   9.873   1.484 -0.1108 -0.1613  0.0653
 7326W        W22943  14.423  15.387   4.357  0.0338 -0.2676  0.0312
 7327W        W22944  12.184  10.850   2.218 -0.0810 -0.2296  0.0710
 7328W        W22945   0.624   0.066   0.733 -0.0797  0.0703  0.0236
 7329W        W22946   5.098   2.216  12.857 -0.2810  0.0040  0.0518
 7330W        W22947   3.697  16.371  15.671 -0.1217 -0.0596  0.1447
 7331W        W22948  11.654   4.158   0.238  0.0241 -0.0740 -0.0864
 7332W        W22949  17.867  10.154  15.862 -0.0192  0.1973  0.0139
 7333W        W22950   8.213   1.886   2.151  0.1491 -0.2091  0.6479
 7334W        W22951  13.628   1.478  14.080  0.0133 -0.1675  0.3541
 7335W        W22952   5.528  14.201  14.326  0.1080  0.1459  0.1681
 7336W        W22953   2.933  15.585   4.995 -0.0971  0.1619 -0.0903
 7337W        W22954  10.673   5.469   4.407  0.1330  0.0450  0.1795
 7338W        W22955  11.806  16.085   3.007 -0.1370  0.1178 -0.1814
 7339W        W22956  12.616   2.122   3.309  0.1211  0.1980  0.4874
 7340W        W22957  17.035   8.601   1.103 -0.3479  0.1894 -0.3508
 7341W        W22958  12.881   7.984  14.413 -0.1049  0.2338  0.0078
 7342W        W22959  16.895  17.516   2.240  0.0937  0.0071  0.1303
 7343W        W22960   0.269  12.152  11.920 -0.0863 -0.0130 -0.4227
 7344W        W22961  14.213   7.678  13.067  0.2143  0.2246  0.0236
 7345W        W22962   9.894  11.863  13.523 -0.1216  0.1341 -0.0637
 7346W        W22963   2.802   8.007  10.948 -0.2291  0.1123 -0.1616
 7347W        W22964   6.108  16.822   3.139 -0.0664  0.2162 -0.1100
 7348W        W22965   2.853  11.039  13.404  0.1264  0.0656 -0.3832
 7349W        W22966  13.615  11.555   0.182 -0.2054 -0.0095  0.0175
 7350W        W22967   5.036  10.082  14.093 -0.4558  0.0708  0.2418
 7351W        W22968  10.990   5.139   3.434  0.1364  0.0122  0.0393
 7352W        W22969   4.966   0.473   0.051 -0.4476 -0.1716  0.3272
 7353W        W22970  16.548   7.636  14.811  0.1110  0.3032  0.0464
 7354W        W22971   9.224   8.323   3.780  0.2669 -0.1329  0.2688
 7355W        W22972  18.177   5.533   4.921 -0.0425  0.1918 -0.1245
 7356W        W22973   6.789   4.732   3.639 -0.1116 -0.0869 -0.2132
 7357W        W22974   8.276   1.852   3.643 -0.1980 -0.0895  0.1174
 7358W        W22975   2.555  13.099   4.456 -0.1747 -0.4153  0.2719
 7359W        W22976  11.936  15.374   2.578 -0.1010 -0.2152  0.0933
 7360W        W22977   2.986   8.766  15.382 -0.0966 -0.2618 -0.0032
 7361W        W22978  10.052   3.741   5.015 -0.0797  0.0920 -0.1810
 7362W        W22979   6.856   8.429   2.850  0.1199  0.2945 -0.0378
 7363W        W22980  12.831  17.099   6.404  0.0971  0.2549 -0.0632
 7364W        W22981  11.234  15.081  13.281 -0.1733 -0.1407  0.2039
 7365W        W22982   2.195  15.168  14.750 -0.2377  0.1420  0.3376
 7366W        W22983  14.341   1.588   5.254 -0.0382  0.1477 -0.1351
 7367W        W22984   5.514  16.703   6.231  0.3241 -0.1931 -0.2109
 7368W        W22985  13.950   3.309   3.607  0.1579  0.0502 -0.0335
 7369W        W22986  13.962  13.438   5.403 -0.4302 -0.2964 -0.0278
 7370W        W22987   0.755   0.857   0.276 -0.1753  0.2339 -0.0621
 7371W        W22988   2.773  16.200  13.966  0.0860 -0.0179 -0.2371
 7372W        W22989   0.340   5.717  13.508  0.0312  0.0417 -0.3543
 7373W        W22990   0.937  12.754  13.876 -0.0305  0.2981 -0.1772
 7374W        W22991  11.245  10.129  11.839  0.0884  0.2453  0.2476
 7375W        W22992   4.990   7.579   1.595 -0.0326  0.1127 -0.0200
 7376W        W22993   6.218  16.206   1.514  0.0422 -0.2634  0.1250
 7377W        W22994  17.485   4.513   1.419  0.1851  0.0051 -0.0029
 7378W        W22995   8.416  12.417   0.703 -0.0574  0.0554  0.2131
 7379W        W22996   8.339  16.204  10.883  0.2283 -0.2558 -0.1633
 7380W        W22997   3.332   4.291  13.643 -0.1776 -0.1354 -0.1017
 7381W        W22998  13.373   1.394   3.814  0.0892 -0.3681  0.0607
 7382W        W22999  12.702   2.360   4.950  0.1901 -0.3243  0.1421
 7383W        W23000  15.335  16.060  15.954  0.0276 -0.1971 -0.1514
 7384W        W23001  15.607  10.811  13.509 -0.0675 -0.2027  0.2683
 7385W        W23002   4.926   3.604   5.094  0.1410 -0.0138  0.1377
 7386W        W23003  18.055  14.541  15.232 -0.2438  0.0689  0.1417
 7387W        W23004   4.523   4.852   1.930  0.0788 -0.0657 -0.1119
 7388W        W23005  15.906   8.283   4.199  0.0414 -0.1418 -0.2020
 7389W        W23006  11.201   3.932   2.523  0.1362  0.1415  0.3363
 7390W        W23007  10.318   3.133   3.289  0.1851  0.0164  0.1077
 7391W        W23008   0.794   4.370  14.968 -0.3331 -0.0030  0.3468
 7392W        W23009  11.759  17.792  14.409 -0.1517  0.2758 -0.2962
 7393W        W23010  12.603   6.392  11.523 -0.0553 -0.0212 -0.2890
 7394W        W23011  14.150  13.543  13.358  0.1206 -0.0130  0.0611
 7395W        W23012  13.408   8.762  14.560 -0.0558 -0.0308 -0.0258
 7396W        W23013  15.157  11.286  14.719 -0.0442 -0.0533  0.2063
 7397W        W23014  14.248  15.851  14.750 -0.0642 -0.0142 -0.2190
 7398W        W23015   2.882   6.090   2.638 -0.1126  0.2603 -0.0920
 7399W        W23016  15.601   4.681  15.067  0.4217 -0.2649  0.5452
 7400W        W23017   2.984  18.189   1.786  0.0638 -0.2387 -0.3377
 7401W        W23018   2.782   4.871   0.099  0.1285 -0.1225 -0.1136
 7402W        W23019   4.511  15.641   3.483 -0.2449  0.0044  0.1385
 7403W        W23020   1.357  10.598   3.000  0.1357  0.4493 -0.0799
 7404W        W23021  11.256  17.760  14.335 -0.1704 -0.1895 -0.1243
 7405W        W23022  10.440  13.366  13.861 -0.0734 -0.0773  0.0245
 7406W        W23023   6.121   2.819  11.280  0.3231 -0.2026  0.2532
 7407W        W23024  14.869   1.517   2.901 -0.0201 -0.0556  0.0634
 7408W        W23025   0.767  17.395  12.230  0.1687 -0.1340  0.0798
 7409W        W23026  11.894  18.017  14.813 -0.2488  0.2067  0.2718
 7410W        W23027  13.174   2.781  14.512 -0.1338  0.1106 -0.1113
 7411W        W23028   2.153  13.743  12.230  0.3169  0.0067  0.0740
 7412W        W23029  15.068   0.035  12.817 -0.2316  0.0022  0.2346
 7413W        W23030  14.569  15.468   2.552 -0.0823  0.3720 -0.3175
 7414W        W23031   5.632  13.588  11.677  0.1543 -0.1955  0.1898
 7415W        W23032  11.496  16.250   3.374 -0.1411 -0.2317  0.0430
 7416W        W23033   6.392   1.070  12.592  0.1750 -0.0443 -0.2179
 7417W        W23034  11.845  17.487   4.443  0.2555  0.1349  0.3252
 7418W        W23035  13.866  16.473   2.594  0.0735  0.0862  0.1599
 7419W        W23036   5.763   0.603  11.586  0.1401 -0.0198 -0.3085
 7420W        W23037   4.341  13.910  11.552  0.2353 -0.0398  0.4651
 7421W        W23038   6.145  16.322  12.951 -0.1069  0.0539  0.2760
 7422W        W23039   9.014  12.718  15.036  0.1839 -0.0093  0.2249
 7423W        W23040  11.888   8.975   2.476  0.1494  0.0963  0.0139
 7424W        W23041  11.022   4.490  10.298 -0.0951  0.1386 -0.1138
 7425W        W23042  17.693   2.227  16.054  0.0684  0.0445 -0.2967
 7426W        W23043   4.992   7.582  15.644  0.2565 -0.1266 -0.1964
 7427W        W23044  18.073  14.220   3.415 -0.1327 -0.2680 -0.3276
 7428W        W23045   3.067   0.317   0.459  0.1753 -0.2343 -0.1569
 7429W        W23046   1.632  13.191   4.680  0.1759 -0.1729 -0.3346
 7430W        W23047  11.193   8.774  13.619  0.0408  0.2063 -0.2459
 7431W        W23048  18.431   6.554   4.685  0.1548 -0.3956 -0.0801
 7432W        W23049  10.072  10.137  14.292 -0.1864  0.0549 -0.1067
 7433W        W23050   7.549   2.257   4.585  0.1891 -0.1924 -0.4603
 7434W        W23051   3.434  10.914  13.671 -0.0680 -0.1208  0.0954
 7435W        W23052   5.030   8.110   0.791  0.0984  0.3045 -0.0113
 7436W        W23053   0.906   4.662  12.912 -0.0628  0.3831  0.3833
 7437W        W23054   0.076   4.186  12.842  0.0297 -0.0022 -0.0665
 7438W        W23055  11.202  16.392  13.255 -0.0817 -0.3075 -0.2989
 7439W        W23056  12.980  18.219   3.291  0.2714  0.3418 -0.1056
 7440W        W23057   5.570  11.216  14.138 -0.2775 -0.2114 -0.0753
 7441W        W23058   9.171  12.629   2.846  0.1088 -0.0496 -0.1578
 7442W        W23059   0.912   4.591   3.798  0.2525 -0.1727  0.0556
 7443W        W23060  13.687   6.866   3.619 -0.2175 -0.1218  0.1644
 7444W        W23061  15.518   1.209  15.246  0.2187 -0.2731 -0.0033
 7445W        W23062  14.447  16.410  15.679 -0.2244 -0.2003 -0.0640
 7446W        W23063   6.332   3.449  16.116  0.1912  0.1606 -0.1514
 7447W        W23064   1.889   4.637   3.805 -0.0211  0.1840 -0.2554
 7448W        W23065   9.298   7.747   5.698  0.2057 -0.0799 -0.0291
 7449W        W23066   3.318   9.278  12.027 -0.2802  0.1018  0.0059
 7450W        W23067  15.383   7.929  11.186  0.3308  0.2072 -0.0268
 7451W        W23068   1.483  10.245  11.602  0.0568 -0.1312  0.1648
 7452W        W23069   0.910   3.559   0.911  0.2673 -0.0058  0.0040
 7453W        W23070   6.097  13.916   3.373 -0.0713 -0.3312 -0.3698
 7454W        W23071   5.472   2.171  10.924  0.1194 -0.2007  0.1859
 7455W        W23072   8.433  11.499   3.224  0.0856 -0.1744  0.4091
 7456W        W23073   0.301   0.834  14.019  0.2316  0.5586  0.0785
 7457W        W23074   4.347  10.763  14.765  0.0504  0.0781  0.1498
 7458W        W23075  17.863   3.525   2.074 -0.4722 -0.2517  0.1844
 7459W        W23076   0.044   5.786   2.302  0.0844 -0.1671  0.0526
 7460W        W23077   2.945  11.687  12.541 -0.1011 -0.1963  0.1999
 7461W        W23078   8.935   4.849  11.776  0.0852 -0.0091  0.2755
 7462W        W23079  13.352   4.762   5.322  0.0689  0.4523  0.0243
 7463W        W23080  15.048  15.232  12.896  0.0267  0.0030 -0.0649
 7464W        W23081   2.864   4.517   4.627 -0.2929  0.2016  0.1849
 7465W        W23082   4.658  17.152   4.864 -0.1795  0.3011  0.1869
 7466W        W23083   2.925   8.930   2.675 -0.0431  0.1601  0.0478
 7467W        W23084   0.110  15.643  14.865 -0.1710 -0.2975 -0.1884
 7468W        W23085   6.657  13.356   4.584 -0.3148 -0.2456  0.4766
 7469W        W23086   1.565  10.018   1.703 -0.1146 -0.0067  0.0066
 7470W        W23087   7.820   7.603  15.663 -0.1044 -0.0787  0.0811
 7471W        W23088  17.029   7.187  15.961  0.0186 -0.0116 -0.2453
 7472W        W23089  10.979   3.294   1.381 -0.1524 -0.3321  0.2633
 7473W        W23090  17.710   4.254   2.366 -0.0647 -0.2027  0.1658
 7474W        W23091   8.958   9.437  13.672 -0.1129  0.0971 -0.0812
 7475W        W23092  12.168  17.822   1.978  0.4290 -0.0541  0.3398
 7476W        W23093   9.076  13.297  13.298 -0.4097  0.2926  0.0903
 7477W        W23094  12.890   0.059  12.537  0.1121 -0.3551  0.4670
 7478W        W23095  12.946  15.397  14.552  0.0094  0.0278 -0.0923
 7479W        W23096  11.010  13.704   4.430 -0.4300 -0.0753 -0.1820
 7480W        W23097  12.348   3.979  10.328  0.0934 -0.0098  0.1317
 7481W        W23098   0.841   1.181  12.930  0.1757 -0.0264 -0.0355
 7482W        W23099  17.439   2.623  13.166 -0.1667 -0.0863 -0.1258
 7483W        W23100   8.978  17.788   4.575  0.1988  0.2292 -0.0353
 7484W        W23101   9.773  14.967  11.717  0.3369 -0.1589  0.0386
 7485W        W23102   9.272   1.427  14.245  0.2094  0.1146  0.1909
 7486W        W23103   2.592   6.188  15.653 -0.1301  0.0316  0.0498
 7487W        W23104  13.438  11.427  11.291  0.3899  0.0444  0.2556
 7488W        W23105  16.215  11.150   3.650  0.0604  0.1491  0.0032
 7489W        W23106  13.405  12.206   2.547  0.0788  0.4155 -0.4207
 7490W        W23107   5.746   5.651  14.879  0.2795 -0.2102 -0.0537
 7491W        W23108   3.191   9.519  10.533  0.0109 -0.3077  0.1202
 7492W        W23109   2.014   2.395  13.828 -0.1804  0.1097  0.1321
 7493W        W23110   4.955   9.708  15.541  0.1821  0.0158 -0.1623
 7494W        W23111  16.179  17.911  15.997  0.0119 -0.4371  0.0724
 7495W        W23112   9.543  14.370   0.981  0.0539 -0.1840  0.2114
 7496W        W23113   5.642   4.318   4.274 -0.3386 -0.3353 -0.3114
 7497W        W23114  17.128   9.614  12.429  0.1517 -0.2851 -0.3156
 7498W        W23115   7.501  17.378  12.398  0.0478  0.0158  0.3705
 7499W        W23116   7.183  13.906  12.329 -0.1767 -0.0142 -0.0033
 7500W        W23117   0.610  17.618  13.211  0.0570  0.1519  0.1006
 7501W        W23118   2.542   7.593  14.382  0.0739  0.0359  0.0264
 7502W        W23119  12.986  15.126   2.871 -0.3439 -0.2632 -0.1871
 7503W        W23120   6.986   6.921  15.809  0.0805  0.0286 -0.2161
 7504W        W23121  15.340   7.449   4.277  0.0660 -0.2835 -0.2456
 7505W        W23122   6.746  13.553  14.533 -0.2388 -0.3468  0.1234
 7506W        W23123  17.918  10.897  13.026 -0.1198  0.1492  0.1980
 7507W        W23124   4.304   8.605   3.709 -0.2678 -0.1207 -0.1427
 7508W        W23125  10.519   3.875   4.032 -0.2924  0.0460 -0.2105
 7509W        W23126   9.196  18.261  15.300  0.2122 -0.2716  0.0807
 7510W        W23127   1.416   7.742   0.998  0.2180 -0.2368  0.0248
 7511W        W23128   0.456  16.495   1.563  0.2535 -0.0066  0.2641
 7512W        W23129   9.263  17.703  12.715  0.2472 -0.1358 -0.0916
 7513W        W23130   8.578  13.671  13.999  0.2215  0.0096  0.0466
 7514W        W23131  11.223  13.515  11.780 -0.1322  0.1510  0.2077
 7515W        W23132  11.071  15.859   5.520  0.0269  0.0942  0.1212
 7516W        W23133   7.420   6.618   2.779 -0.2729  0.3456  0.3021
 7517W        W23134  11.442   2.177  14.249 -0.0222 -0.4162  0.0662
 7518W        W23135   3.453   7.315  14.381  0.0123 -0.1959  0.4256
 7519W        W23136   3.588  13.330  14.224 -0.1154  0.1549 -0.3611
 7520W        W23137  17.462  16.872   2.850  0.1292 -0.0822 -0.1608
 7521W        W23138  14.590   9.049   3.450 -0.0017  0.2023 -0.2588
 7522W        W23139   5.170   3.797   2.284  0.0860  0.0238 -0.1339
 7523W        W23140  14.265  16.161   2.673 -0.2584  0.0098  0.0785
 7524W        W23141  10.125  15.956   0.570  0.2337  0.0883 -0.0713
 7525W        W23142  15.497   1.563  11.349 -0.4204 -0.0315  0.0634
 7526W        W23143  14.302  18.304  13.808 -0.0214  0.1389  0.0837
 7527W        W23144   5.920  14.585   0.857  0.2092  0.0409 -0.1777
 7528W        W23145  10.945  15.718  12.300 -0.1640  0.1803 -0.2237
 7529W        W23146  12.124   4.374   3.466 -0.0562 -0.1871 -0.2382
 7530W        W23147   4.468   3.798   1.709 -0.1981  0.0489 -0.2427
 7531W        W23148   4.254   4.313  15.365  0.0199  0.2466  0.0814
 7532W        W23149  12.551   6.032  13.628 -0.4515  0.2560  0.2245
 7533W        W23150  13.623   4.333  14.695  0.2070  0.0029 -0.3877
 7534W        W23151  15.164   9.526  10.499 -0.3349  0.2216  0.0240
 7535W        W23152  14.887  16.899   1.975  0.0178  0.0991 -0.3589
 7536W        W23153   7.522  10.182   2.907  0.1468 -0.0932  0.2399
 7537W        W23154  15.717   0.550   2.640  0.2051 -0.0050 -0.1828
 7538W        W23155  15.735  16.542   3.312  0.1169  0.0101  0.0799
 7539W        W23156  16.576  15.008  15.822  0.2348  0.1410  0.0720
 7540W        W23157   8.381   7.621   0.117  0.4384  0.2434 -0.0417
 7541W        W23158  14.812  12.792  12.725 -0.0724 -0.2080 -0.1642
 7542W        W23159   0.282   6.622   5.138  0.3337 -0.2233  0.2340
 7543W        W23160  11.444   0.693   1.369  0.0731 -0.5647  0.0013
 7544W        W23161  16.587   6.000  14.558 -0.2405 -0.0419 -0.5881
 7545W        W23162   1.728   3.303   3.870  0.1222 -0.0358 -0.0619
 7546W        W23163   0.553  17.767  14.607  0.0219 -0.2371 -0.0234
 7547W        W23164   3.351   3.865  15.263 -0.0293 -0.0952 -0.1764
 7548W        W23165  17.050   0.140   1.445 -0.0056  0.1976 -0.4357
 7549W        W23166  12.635  12.950  14.029  0.0160  0.1312 -0.1345
 7550W        W23167  12.411   4.514   0.695 -0.0897  0.0738 -0.0780
 7551W        W23168   7.735  12.865  12.822  0.5831 -0.0051  0.0874
 7552W        W23169   6.771   0.308   4.217 -0.0402  0.1169  0.1683
 7553W        W23170  17.633   9.562  14.054 -0.1299 -0.1440 -0.2027
 7554W        W23171   4.187   3.200   1.516 -0.0655  0.0125 -0.0056
 7555W        W23172   4.399  15.511  11.883 -0.2010 -0.2202 -0.1691
 7556W        W23173   4.379   3.648  13.965 -0.2548  0.0106 -0.0514
 7557W        W23174   3.142  15.068   1.701  0.0815  0.2402 -0.3045
 7558W        W23175   1.847  12.353  15.169 -0.2398 -0.1515  0.1478
 7559W        W23176   8.760  10.201  15.604 -0.3526 -0.0573  0.2202
 7560W        W23177  10.551   9.376   5.079  0.0679  0.1478  0.0770
 7561W        W23178   9.967  10.579  11.854  0.1917  0.0104  0.0701
 7562W        W23179   8.703   1.882  14.956  0.0594 -0.2580 -0.0449
 7563W        W23180   8.090   6.862   9.714 -0.2469 -0.0809  0.4575
 7564W        W23181  15.721   1.525   1.437  0.3597  0.0705 -0.0737
 7565W        W23182  14.588   7.643  13.904  0.1359 -0.0905  0.0613
 7566W        W23183   6.437  15.469  15.759  0.0716  0.3040  0.0945
 7567W        W23184  17.860   4.258  10.207 -0.3066  0.2450  0.0647
 7568W        W23185  14.325   2.149   2.776 -0.3498 -0.1371  0.0240
 7569W        W23186  15.695  11.924   2.728  0.0947  0.1005  0.0540
 7570W        W23187   2.509   3.281   1.626  0.0736 -0.1122  0.0426
 7571W        W23188   8.321   7.564  14.099 -0.1946 -0.2273 -0.0563
 7572W        W23189   7.651  16.952  13.621 -0.0848  0.3650  0.2770
 7573W        W23190   7.149  10.496  12.906 -0.1159 -0.1078 -0.0757
 7574W        W23191  14.095   3.707  10.951  0.1593  0.3058  0.2287
 7575W        W23192  13.663  13.030  11.010 -0.1537  0.4113  0.0424
 7576W        W23193   0.745  11.891   5.369 -0.0732 -0.2875 -0.0814
 7577W        W23194  10.365  11.960   0.067 -0.0041 -0.0907  0.2138
 7578W        W23195   8.602   1.808  15.470  0.2582  0.1141 -0.0338
 7579W        W23196   1.903   3.764   0.912  0.0350  0.1519 -0.3150
 7580W        W23197  14.695  10.156   4.359  0.0503  0.3227 -0.4455
 7581W        W23198   3.769   2.774   0.021  0.2518  0.0453  0.1471
 7582W        W23199   0.361  13.643   0.450 -0.2834  0.0532  0.2578
 7583W        W23200   8.307  10.448  12.416 -0.2558 -0.2648 -0.0357
 7584W        W23201  17.263   8.883  11.179  0.0993 -0.0980  0.1102
 7585W        W23202  15.141  15.166  14.031  0.0395 -0.4548 -0.0494
 7586W        W23203  12.760   9.057  10.650  0.2632 -0.1630  0.0192
 7587W        W23204  10.312   1.297  15.118  0.4650 -0.2860 -0.4894
 7588W        W23205   1.826   2.100   6.010  0.0429 -0.2689  0.0914
 7589W        W23206   7.336  17.033  14.890 -0.2979 -0.0377 -0.2198
 7590W        W23207   5.511  18.285   2.760 -0.1316  0.1434 -0.1022
 7591W        W23208  14.835   4.622  15.848 -0.0399  0.0638 -0.0920
 7592W        W23209  15.876   8.222  12.041  0.3286  0.2527  0.0167
 7593W        W23210   5.577  12.238   3.537 -0.2635 -0.1299 -0.0845
 7594W        W23211  16.810  18.133  10.043 -0.1088  0.0790  0.2607
 7595W        W23212   1.821   0.611  12.332 -0.2781  0.0463 -0.1288
 7596W        W23213   5.406   4.564   2.603  0.0636  0.1998  0.0609
 7597W        W23214   4.355  13.288   5.591 -0.0183 -0.1114 -0.0833
 7598W        W23215   0.195   7.631  13.944  0.3055 -0.1651  0.1685
 7599W        W23216  14.505   7.790  14.347 -0.0437 -0.0972  0.1660
 7600W        W23217  17.337  12.108   4.565  0.0628  0.0894  0.2427
 7601W        W23218   6.820   6.085  15.477 -0.2122 -0.4022  0.0669
 7602W        W23219   2.523  15.879  14.712  0.2313 -0.0432 -0.2860
 7603W        W23220  15.428  11.202  12.619  0.2338  0.3166 -0.2132
 7604W        W23221   7.980  14.894   0.419  0.1288  0.1959 -0.1735
 7605W        W23222   8.615   7.141  14.317 -0.0886 -0.0179 -0.2668
 7606W        W23223  17.878  13.732  11.534 -0.3691  0.4105 -0.3003
 7607W        W23224   5.777   7.133  15.492  0.2708  0.0419 -0.1735
 7608W        W23225   1.121   2.689   3.674  0.2085 -0.0085 -0.1037
 7609W        W23226   1.197   2.574  11.523  0.0950 -0.2407  0.1306
 7610W        W23227  13.644   4.634  13.105  0.0195 -0.0269  0.1766
 7611W        W23228  12.299   0.470   5.954 -0.0812 -0.0953  0.1886
 7612W        W23229   5.659  11.360   3.314 -0.0733  0.1123  0.1676
 7613W        W23230   6.779  13.215  13.525 -0.0960 -0.0137  0.1255
 7614W        W23231   4.999  12.887  15.223 -0.1323  0.1620  0.1075
 7615W        W23232   8.297  15.583   3.228 -0.0628 -0.3050  0.2180
 7616W        W23233  16.500  13.405   2.312  0.1919 -0.0189 -0.3474
 7617W        W23234   2.532   7.090  14.742 -0.1399 -0.2095  0.1374
 7618W        W23235  11.295   4.861  15.786  0.1434 -0.3022  0.0744
 7619W        W23236  17.465  13.126   6.087 -0.4630  0.0070  0.3938
 7620W        W23237   0.834  12.984   3.721  0.0786  0.0227  0.3290
 7621W        W23238   2.087  18.096   2.860 -0.4163  0.2901  0.2268
 7622W        W23239   9.886   7.852  14.033  0.0240  0.0492 -0.0764
 7623W        W23240  16.313   8.701   0.000 -0.0640 -0.0238 -0.0320
 7624W        W23241   8.587  18.149   4.596 -0.0480 -0.1066  0.1893
 7625W        W23242  10.753   0.773  14.215 -0.2799  0.2744 -0.0722
 7626W        W23243   4.964  10.562   2.891  0.4502 -0.0721 -0.0753
 7627W        W23244   3.063   6.957  12.134  0.0194  0.1168 -0.4437
 7628W        W23245  15.232   9.358   0.918  0.0458 -0.3291  0.1048
 7629W        W23246   2.282  16.952   0.338  0.0684 -0.0063 -0.1079
 7630W        W23247  14.864  13.157   2.415  0.1958 -0.1308  0.0828
 7631W        W23248  17.767   4.645   2.755 -0.0687 -0.1226  0.0233
 7632W        W23249  13.007  12.608  13.306  0.1748 -0.1454  0.1564
 7633W        W23250   9.199  17.215   3.329 -0.2211  0.1465  0.1711
 7634W        W23251   5.108  15.719  16.020 -0.3278  0.0736 -0.1749
 7635W        W23252  15.495  14.621   0.879  0.2587 -0.1240 -0.0557
 7636W        W23253  18.431  14.746  13.070  0.2262  0.0780  0.1291
 7637W        W23254   0.793   0.506   4.428  0.0275 -0.1812  0.2497
 7638W        W23255  12.902  10.889  15.680  0.0801 -0.3864 -0.2113
 7639W        W23256  17.160   2.970  13.399 -0.4799  0.0803 -0.3902
 7640W        W23257   2.732  12.660  11.751 -0.1225  0.1341  0.2215
 7641W        W23258   2.105  10.987  11.106 -0.1468  0.1508  0.1395
 7642W        W23259   3.573   4.528   1.390 -0.2443  0.4465 -0.1440
 7643W        W23260   9.799  13.384  15.120  0.1728  0.0107 -0.0664
 7644W        W23261   7.854  10.773  13.569  0.0387 -0.3964  0.2785
 7645W        W23262  14.338  12.953   0.888  0.2062 -0.0668  0.0781
 7646W        W23263   3.102   9.947   3.482 -0.1159  0.1630  0.4070
 7647W        W23264   4.555   5.801   2.337 -0.3484 -0.0825  0.0202
 7648W        W23265   2.746   4.236   0.733  0.2249 -0.0102 -0.3433
 7649W        W23266  17.974   3.561   3.221  0.2315 -0.0101 -0.0809
 7650W        W23267   3.304   5.124  11.951  0.1428  0.0405  0.0311
 7651W        W23268  13.878  14.252  14.451  0.0018  0.0315 -0.1867
 7652W        W23269  14.632  16.491   5.235  0.4201  0.0123  0.1298
 7653W        W23270   9.230   5.521  15.296  0.1297  0.1934  0.0414
 7654W        W23271   6.887   4.569   2.149 -0.0045 -0.2681  0.2296
 7655W        W23272  17.057   9.978   5.887  0.0628  0.0272 -0.0412
 7656W        W23273  10.979  12.181   1.688  0.0147 -0.0229 -0.2637
 7657W        W23274  16.303   2.786   4.193  0.2113 -0.0278 -0.1342
 7658W        W23275   9.660   9.436   2.727  0.1323  0.1608 -0.1233
 7659W        W23276   6.414   4.755  12.886  0.3818  0.2470  0.0149
 7660W        W23277   0.226  17.138   4.957 -0.1593  0.0315 -0.4098
 7661W        W23278  11.392   3.881  10.544 -0.2157  0.0907  0.2488
 7662W        W23279   2.710  13.344  14.775  0.0292 -0.1249 -0.0357
 7663W        W23280  16.072  16.866  11.076 -0.0078 -0.2139 -0.0868
 7664W        W23281   1.220   7.914  14.969 -0.2450  0.6602  0.3276
 7665W        W23282  17.739   2.900   4.925  0.0447  0.1587  0.1471
 7666W        W23283   2.917   3.614   4.135 -0.1940  0.3079  0.0785
 7667W        W23284  16.255  17.877   5.191 -0.0381 -0.1307  0.2458
 7668W        W23285   4.173  14.493  12.535  0.1022 -0.1458 -0.1096
 7669W        W23286   0.252   8.972  14.055 -0.1248  0.1469 -0.0058
 7670W        W23287  10.408   8.270   5.321 -0.2645 -0.1448  0.0202
 7671W        W23288   8.255  12.331   4.593 -0.1878 -0.0310  0.2949
 7672W        W23289   3.585  10.080  12.120  0.0018 -0.1093  0.0844
 7673W        W23290   5.850  17.782   2.322  0.0689  0.2949 -0.1078
 7674W        W23291  18.022   0.504  11.920 -0.1074  0.3784 -0.2046
 7675W        W23292   4.533  17.531   1.154  0.1049  0.0797  0.0597
 7676W        W23293  10.454   3.398  12.373  0.2839 -0.3136 -0.0337
 7677W        W23294   2.717  15.061   4.940 -0.0316 -0.0788  0.2430
 7678W        W23295  18.100  10.506   5.007  0.1282  0.0665  0.3558
 7679W        W23296  13.752   9.329   4.656  0.0705 -0.2979  0.1502
 7680W        W23297  16.310  10.190  13.895  0.0408 -0.0283  0.3931
 7681W        W23298  14.302  17.678   5.652  0.0655  0.4056 -0.0279
 7682W        W23299   1.294   4.322  15.144 -0.0975 -0.2011  0.2921
 7683W        W23300   6.851   8.864  16.002  0.0203 -0.3001  0.0302
 7684W        W23301   1.756  16.972   0.072 -0.0489  0.2500 -0.0544
 7685W        W23302   5.599   9.805   4.767  0.2603 -0.1140  0.1973
 7686W        W23303  11.044  13.249   6.208 -0.2984 -0.2218  0.0885
 7687W        W23304   9.175   4.587   0.414 -0.0501 -0.2159 -0.2925
 7688W        W23305   6.187   8.020   2.490 -0.2101  0.0572 -0.0271
 7689W        W23306  13.082  13.969   1.653 -0.1141  0.0287 -0.1329
 7690W        W23307  17.574   0.810  15.515  0.0990 -0.0873 -0.0171
 7691W        W23308   5.918  13.576  12.203 -0.1198  0.1207 -0.1951
 7692W        W23309   3.279   7.215  15.861  0.2032 -0.3039  0.0653
 7693W        W23310   6.053  16.480   4.026 -0.0612 -0.1436 -0.1865
 7694W        W23311   4.729   3.281  11.169 -0.0787  0.1718 -0.1001
 7695W        W23312  12.617  16.184   5.730 -0.2128  0.1718 -0.1269
 7696W        W23313  17.587  13.824  15.600  0.0229  0.1463  0.4337
 7697W        W23314  15.864   1.162  14.891  0.0941 -0.1122  0.0628
 7698W        W23315  15.789   8.396  12.514  0.2146  0.0112  0.0110
 7699W        W23316   4.925   0.649  12.622 -0.1452 -0.0820  0.2893
 7700W        W23317   8.172   2.961  14.313  0.0310 -0.2492 -0.2045
 7701W        W23318   6.666  11.940  13.800  0.0442 -0.1082  0.0424
 7702W        W23319  15.289   1.899  12.137  0.0672 -0.0279  0.0711
 7703W        W23320  17.608   4.833  14.935  0.0081  0.2813 -0.1822
 7704W        W23321   5.195   1.855  14.070 -0.0032 -0.1268 -0.0692
 7705W        W23322   9.301  12.669   1.747 -0.0592 -0.0390  0.2297
 7706W        W23323  13.893   6.465   3.811 -0.0915 -0.0035  0.0353
 7707W        W23324  10.505  13.533  12.996  0.2664  0.2866 -0.1320
 7708W        W23325  12.580   9.070   3.227 -0.3129  0.1898  0.0736
 7709W        W23326  10.596   9.992  12.818  0.0672 -0.1296 -0.1012
 7710W        W23327  16.905   8.250  12.157 -0.1711  0.0020  0.0684
 7711W        W23328   6.995   2.771   4.486 -0.2272 -0.3993 -0.0221
 7712W        W23329   3.377   5.820   4.625  0.0601  0.2957  0.0662
 7713W        W23330   5.713   0.518  14.209  0.1426  0.0748 -0.1104
 7714W        W23331   2.011  10.288  14.202 -0.0001  0.2610 -0.4215
 7715W        W23332   9.821  18.057   4.352  0.0796 -0.3648  0.0484
 7716W        W23333  10.957   3.009   2.959 -0.0379  0.2375  0.1249
 7717W        W23334   2.960  12.056   0.528 -0.3624  0.1312  0.1720
 7718W        W23335   8.484  16.586   3.487  0.1315  0.2885 -0.0600
 7719W        W23336  10.160  14.250   0.330 -0.0697 -0.0739  0.1961
 7720W        W23337  14.173  13.291  11.615  0.1149 -0.0132  0.0435
 7721W        W23338   4.990  12.554   3.174 -0.0301 -0.0185  0.2104
 7722W        W23339  16.775  16.527  11.548  0.2281 -0.1883 -0.2050
 7723W        W23340  12.210   8.127  12.664 -0.1054  0.1311 -0.1191
 7724W        W23341  16.777   9.818   1.295  0.1613 -0.0912  0.1505
 7725W        W23342   6.551   0.332  13.446  0.0211 -0.4335  0.0237
 7726W        W23343   7.376   8.881   5.071  0.1859 -0.0220 -0.0075
 7727W        W23344   8.176  18.077  11.925 -0.2568 -0.2730  0.1165
 7728W        W23345   4.801  11.502   3.887 -0.0914 -0.2205 -0.2624
 7729W        W23346  17.847   9.419   4.241  0.2430 -0.0008 -0.1008
 7730W        W23347  17.113   3.524  12.412  0.1598 -0.0313  0.1445
 7731W        W23348   2.443   5.453   5.772  0.0994  0.0569  0.4049
 7732W        W23349  11.853  16.448  15.830  0.0481 -0.2350 -0.1541
 7733W        W23350   2.854   4.544  15.855 -0.0854 -0.1303 -0.1680
 7734W        W23351  13.105  17.500   4.514 -0.2649  0.0455  0.0157
 7735W        W23352  12.520   6.943   1.911 -0.1527  0.2179 -0.1329
 7736W        W23353   6.507  12.018   4.889  0.0110  0.1078  0.1802
 7737W        W23354   1.324   9.617  13.762  0.2055  0.1190 -0.3531
 7738W        W23355   5.251  14.121   2.236 -0.1157 -0.1259 -0.0054
 7739W        W23356   5.361   0.224   1.428 -0.0529 -0.2783 -0.3336
 7740W        W23357  17.571   4.948   1.171 -0.0319 -0.0981  0.1001
 7741W        W23358  14.503  15.139  11.095 -0.0192  0.0895 -0.2064
 7742W        W23359  14.700   8.417   0.078 -0.2282 -0.1145 -0.1572
 7743W        W23360  10.826  16.709   0.084  0.3105  0.1354 -0.1045
 7744W        W23361   7.944  10.098   4.268  0.3986  0.1978 -0.2706
 7745W        W23362   1.208  16.229   3.538  0.0444  0.0305 -0.0299
 7746W        W23363  13.689   3.133   0.899 -0.0429 -0.1638 -0.2574
 7747W        W23364   9.460   9.065  11.071 -0.0423  0.1386  0.0561
 7748W        W23365   2.216  17.282   3.857  0.1911  0.1648 -0.4596
 7749W        W23366   1.959   7.623  12.194  0.3176 -0.0740 -0.0441
 7750W        W23367   2.995   8.186   1.525 -0.3699  0.1089  0.2293
 7751W        W23368  11.942   5.446  13.132 -0.3547 -0.0171 -0.2734
 7752W        W23369  11.029   5.209   1.625  0.2007  0.2239  0.0679
 7753W        W23370  16.476   5.582  14.234  0.3807  0.0387  0.0968
 7754W        W23371  17.204   6.735   1.526  0.1086  0.1189  0.0068
 7755W        W23372  16.628   4.004  15.060  0.1999 -0.2902 -0.3041
 7756W        W23373   7.810   2.066   1.854 -0.2418 -0.0722  0.0962
 7757W        W23374   3.575   1.510   2.797 -0.1837 -0.0098 -0.2511
 7758W        W23375   3.115   7.253   2.557  0.0187  0.2777  0.1036
 7759W        W23376   8.745   3.586   4.612  0.1980 -0.2415  0.0074
 7760W        W23377   6.882   8.540  10.865 -0.0719 -0.1103 -0.1550
 7761W        W23378   8.489   4.168   0.037 -0.2174  0.1108  0.1955
 7762W        W23379   0.357   1.361  13.798 -0.2158  0.3270  0.1208
 7763W        W23380   9.713   7.170   4.890 -0.0395  0.0522  0.2168
 7764W        W23381   1.759   6.091   3.007  0.0952  0.2777  0.0829
 7765W        W23382   6.933  16.268  11.620  0.0624  0.0143 -0.2984
 7766W        W23383   8.270   4.788  10.504 -0.3445  0.0044 -0.1003
 7767W        W23384   1.593  10.229   1.217  0.1934 -0.0700 -0.1500
 7768W        W23385   6.281   9.620   4.110  0.3581  0.2441 -0.0578
 7769W        W23386  14.392   6.372   3.571 -0.3785  0.3094 -0.2515
 7770W        W23387  17.015   2.971   0.863  0.1449  0.1706 -0.1619
 7771W        W23388  16.562  14.008   5.150  0.0237 -0.2497  0.0970
 7772W        W23389   8.255  18.098   1.134 -0.3606  0.4691  0.1093
 7773W        W23390  13.141  13.512   1.922 -0.0793  0.0025 -0.0870
 7774W        W23391   4.198   4.053   9.508 -0.3486 -0.1567 -0.1018
 7775W        W23392   5.749  12.781   5.522  0.1930 -0.1065  0.0005
 7776W        W23393   4.141   2.258  14.868  0.0276  0.1278  0.1333
 7777W        W23394   3.108  17.573  13.398  0.0222  0.1150 -0.3000
 7778W        W23395  18.191   9.027   3.060  0.2302  0.1667 -0.0973
 7779W        W23396  17.941   2.108   2.648 -0.3373  0.0150 -0.0182
 7780W        W23397  14.937   6.577  10.503  0.1427 -0.0348 -0.0636
 7781W        W23398  14.038   0.067  11.315  0.2202  0.1931  0.0880
 7782W        W23399   3.560  13.066  14.929  0.2013  0.0323 -0.1091
 7783W        W23400  10.751   1.465   4.909 -0.0147 -0.3941  0.3207
 7784W        W23401   1.212   2.704   3.156  0.2564  0.3594 -0.0848
 7785W        W23402   9.892   1.861   2.907  0.1857 -0.2579 -0.2280
 7786W        W23403   8.779   0.969   2.752 -0.1488  0.0245 -0.1627
 7787W        W23404   9.094  17.048  13.592 -0.3710 -0.1582 -0.0057
 7788W        W23405  17.248   9.840   1.081  0.3885  0.1328 -0.0668
 7789W        W23406   5.433   3.575   3.551  0.1877 -0.1820 -0.1679
 7790W        W23407   1.667   7.625  14.959 -0.0291 -0.1644 -0.2416
 7791W        W23408  16.047   7.493  11.550  0.0213 -0.3648  0.0394
 7792W        W23409  15.907   3.830   0.432 -0.0302  0.0118 -0.0459
 7793W        W23410  10.223   8.745   4.991  0.1887  0.0262 -0.2365
 7794W        W23411   3.866   0.387   0.407  0.1835 -0.0996 -0.0790
 7795W        W23412   0.116   8.616   1.316 -0.0050 -0.0251  0.0051
 7796W        W23413  10.491   3.166   0.274  0.0151 -0.1889  0.1764
 7797W        W23414  13.751  18.030   1.992 -0.1088  0.1108  0.1367
 7798W        W23415  13.861   7.019   4.707  0.2542  0.2641 -0.0696
 7799W        W23416  12.385  17.339  13.348  0.0059 -0.1206  0.0793
 7800W        W23417  17.675   7.891   1.399 -0.1129  0.1979 -0.2135
 7801W        W23418  14.042   6.019   4.665  0.0008  0.3337  0.0873
 7802W        W23419   3.262   6.305   2.839 -0.1019 -0.2985 -0.1200
 7803W        W23420  12.492  11.566   5.075  0.0135  0.3911 -0.0086
 7804W        W23421   7.995   3.516  14.201 -0.0953 -0.0778  0.1503
 7805W        W23422  10.756   9.192  12.198 -0.0361  0.0247 -0.1453
 7806W        W23423  13.482  16.553  12.846 -0.2906 -0.0679  0.1174
 7807W        W23424  16.938   4.946   3.349 -0.0024  0.0109 -0.3324
 7808W        W23425   3.105  14.642  15.589  0.1824  0.3204 -0.0494
 7809W        W23426   6.747   7.549   4.423  0.1481  0.1900  0.5950
 7810W        W23427   0.268  15.610  11.652 -0.2993  0.1846  0.0346
 7811W        W23428   4.949   4.474   2.389  0.0565 -0.0463 -0.0128
 7812W        W23429   6.307  17.041  14.800  0.1802 -0.0375  0.1033
 7813W        W23430   6.459  14.256   2.347 -0.0212 -0.1996  0.0850
 7814W        W23431  14.852  16.798   5.915 -0.1438 -0.2681  0.1992
 7815W        W23432   2.454  12.949  12.451 -0.0357 -0.1914 -0.0127
 7816W        W23433   3.931   6.580  15.509 -0.1678  0.1015  0.0894
 7817W        W23434   5.869   0.673   2.873  0.2573  0.0309  0.0365
 7818W        W23435   7.987   4.839  15.707  0.2123 -0.2640 -0.3131
 7819W        W23436   9.400  11.921  13.820 -0.0328 -0.1387  0.2164
 7820W        W23437   9.412   2.239  11.370 -0.2104  0.1483 -0.0789
 7821W        W23438  15.691  16.918  15.184 -0.1880  0.0768 -0.0860
 7822W        W23439   1.002  15.673   5.349 -0.0364  0.0098 -0.0824
 7823W        W23440   0.124  11.718  15.431 -0.1630  0.2812  0.1523
 7824W        W23441  15.849  16.349  15.181  0.4889  0.0644 -0.0769
 7825W        W23442   3.470  16.290  14.674  0.0785  0.1744  0.0678
 7826W        W23443   9.697   3.567   4.587  0.0832 -0.1003 -0.4120
 7827W        W23444  10.990   0.134  11.769 -0.1259 -0.0188 -0.2442
 7828W        W23445  10.460  16.536   4.169  0.0571 -0.2184  0.3469
 7829W        W23446  17.294   4.236   5.082 -0.0607  0.1094 -0.0983
 7830W        W23447   2.657   3.451  13.794 -0.0488  0.1390  0.2474
 7831W        W23448  16.626   6.949   2.176  0.2406  0.1721 -0.0077
 7832W        W23449  14.671   8.887   9.984  0.1982  0.0236  0.0211
 7833W        W23450  14.753   1.612  12.088 -0.1469  0.0282 -0.2282
 7834W        W23451  15.243  13.871   5.287  0.1470 -0.1617 -0.4108
 7835W        W23452   4.452  16.111   3.695  0.0744  0.0856  0.1325
 7836W        W23453  11.135   1.086   4.939 -0.1901  0.1146  0.0006
 7837W        W23454   8.066  15.920   2.914  0.0898  0.0573 -0.3260
 7838W        W23455   3.408  10.565  12.223 -0.2548  0.1044 -0.3025
 7839W        W23456   4.740  15.314   3.776  0.1779  0.0575  0.1073
 7840W        W23457   8.493  14.606  15.736 -0.2022 -0.1881 -0.4841
 7841W        W23458  13.137   3.472   0.296  0.3112 -0.0191 -0.3845
 7842W        W23459   4.685  15.542   2.569 -0.1731 -0.0456  0.1988
 7843W        W23460   0.239  12.582   1.843  0.0472  0.3484 -0.0611
 7844W        W23461   5.036  12.152  15.033 -0.1183  0.1204  0.0523
 7845W        W23462   5.083  11.386  14.860  0.1725  0.1971 -0.4977
 7846W        W23463  13.801  17.488  10.125  0.2381 -0.2105  0.0170
 7847W        W23464   2.929  14.713   4.454 -0.3466  0.1776 -0.3933
 7848W        W23465   1.313  10.044   3.160  0.0044 -0.2878 -0.3816
 7849W        W23466  13.473  12.802   5.037 -0.0378  0.0896 -0.1146
 7850W        W23467   9.856  11.983  12.972 -0.3550 -0.1064  0.0639
 7851W        W23468   2.051   7.962  14.525  0.1752  0.0989  0.0038
 7852W        W23469   4.759   6.062  13.191 -0.1248  0.1940  0.2387
 7853W        W23470  13.152   3.086   2.753  0.0276 -0.0881  0.1416
 7854W        W23471  18.167  13.258   2.548 -0.1283  0.3093  0.0349
 7855W        W23472  11.264   2.963  11.864 -0.0686  0.0510  0.0315
 7856W        W23473  17.116   4.589  13.541  0.0300 -0.3208 -0.0831
 7857W        W23474   6.821  15.235   0.365 -0.0499  0.4436  0.3200
 7858W        W23475  18.419   4.704  14.573  0.0814  0.1593  0.0461
 7859W        W23476   6.885   0.751   1.966  0.3303 -0.1673 -0.4065
 7860W        W23477   1.515  10.081  10.778 -0.1505 -0.0019 -0.0323
 7861W        W23478   2.163   2.699  13.091 -0.1501 -0.0698 -0.0452
 7862W        W23479   5.394   8.830  15.939  0.3212  0.0841 -0.0941
 7863W        W23480  12.016   2.157   3.346  0.1422 -0.2726  0.1105
 7864W        W23481   9.940  16.669   5.567 -0.0990  0.1004  0.2344
 7865W        W23482   4.564  15.511   1.131 -0.2227 -0.1840 -0.0279
 7866W        W23483  12.764  10.175  13.821 -0.1466 -0.0693 -0.2919
 7867W        W23484   2.047   0.454   4.626 -0.0588  0.2769  0.2840
 7868W        W23485   0.787   0.087  13.041 -0.1626 -0.0683  0.0893
 7869W        W23486  13.190   0.202  13.134  0.1279  0.1658  0.0747
 7870W        W23487  12.285  15.568  15.520  0.0601  0.2911 -0.0285
 7871W        W23488   3.428  11.339   0.626  0.0876  0.4113  0.3360
 7872W        W23489   8.831  11.111   2.965 -0.1515  0.1005 -0.0309
 7873W        W23490   3.849   4.573  14.178 -0.1929  0.1569  0.0225
 7874W        W23491   5.543   7.755   4.966  0.4640  0.1379 -0.1472
 7875W        W23492  16.744   1.723  13.624 -0.1792  0.0330 -0.1184
 7876W        W23493  15.008  16.454   5.616 -0.0564 -0.1260 -0.0823
 7877W        W23494   9.389  13.709  15.020 -0.0975  0.0186  0.1640
 7878W        W23495   8.636   8.193   2.192 -0.1114 -0.0164 -0.2420
 7879W        W23496   4.311  12.063   5.093 -0.0597  0.0805 -0.0322
 7880W        W23497   8.673  16.651  14.709 -0.2413  0.1455  0.0482
 7881W        W23498  14.298   0.374   4.363 -0.3179 -0.0745  0.0905
 7882W        W23499   5.154  12.998  12.223 -0.4246  0.1140 -0.0445
 7883W        W23500   3.900  11.919   3.757  0.0591 -0.1315  0.0185
 7884W        W23501   5.128   8.047  14.896  0.3840  0.1671 -0.0132
 7885W        W23502  13.557   0.392   2.630  0.0001  0.1811 -0.0726
 7886W        W23503   5.047  14.514   3.376 -0.1407  0.2103  0.1242
 7887W        W23504  10.770   3.770  14.257  0.0482 -0.1033 -0.0964
 7888W        W23505  16.785   6.348   2.185 -0.1517  0.1510 -0.0663
 7889W        W23506  14.895   6.688   0.496  0.0694  0.2008  0.0617
 7890W        W23507  15.443   9.521   1.354  0.1893 -0.4501  0.0284
 7891W        W23508  13.761  11.337   3.787 -0.3092 -0.0177 -0.1682
 7892W        W23509  13.723  12.687  13.696  0.1920 -0.0117 -0.1266
 7893W        W23510   3.575   2.815   5.176 -0.0156 -0.1112  0.0097
 7894W        W23511  18.155   2.117  15.643 -0.1661 -0.1535  0.0220
 7895W        W23512  15.624  18.030   4.576 -0.1041  0.1806 -0.1109
 7896W        W23513  15.528   7.262   1.682  0.0195 -0.1591 -0.1944
 7897W        W23514   1.845  11.000  10.681 -0.0083  0.2174 -0.0146
 7898W        W23515  10.601   1.987  14.140  0.3648 -0.1267  0.3906
 7899W        W23516  18.176  12.447   3.122 -0.0084  0.0642  0.0589
 7900W        W23517   6.866  13.455   2.899  0.3227  0.2139 -0.3200
 7901W        W23518  16.538  15.512   3.207 -0.1956 -0.0935 -0.3904
 7902W        W23519   3.953   4.104  12.289 -0.1981  0.2874  0.0690
 7903W        W23520   7.441   0.053   3.558  0.0631 -0.3762 -0.0119
 7904W        W23521   4.897   6.405   4.821 -0.0335 -0.0453  0.1002
 7905W        W23522   7.212   1.019   5.367  0.3031  0.4045 -0.1805
 7906W        W23523   4.923  16.522   3.528 -0.0954 -0.2645  0.2822
 7907W        W23524  12.190   8.139   0.780 -0.0041  0.1669  0.3379
 7908W        W23525   4.665  17.261  11.792  0.0633  0.0316 -0.2738
 7909W        W23526  16.489  12.058  15.425 -0.1231 -0.1379  0.2083
 7910W        W23527  13.287  14.830  12.456  0.1451 -0.0665  0.0540
 7911W        W23528   3.713  17.494  14.435 -0.0266  0.2625 -0.1251
 7912W        W23529  14.259   9.591  13.943  0.0675  0.1177  0.2510
 7913W        W23530  11.949  14.784   3.378  0.2050 -0.1311  0.0837
 7914W        W23531  13.472  15.605   0.752 -0.0021 -0.1117  0.1519
 7915W        W23532   2.169   1.310   3.917 -0.1288  0.2272 -0.2947
 7916W        W23533   3.904   4.959   4.347  0.2679  0.4085 -0.0069
 7917W        W23534   7.877  16.748   1.268  0.2034  0.5011  0.1111
 7918W        W23535  14.555  11.559  12.738  0.0206 -0.0563 -0.0173
 7919W        W23536   7.312  15.564  15.268 -0.2662 -0.0160 -0.1414
 7920W        W23537   4.348  15.411   5.315 -0.0561  0.0468 -0.1493
 7921W        W23538   9.427  14.365  15.804 -0.1083  0.0671  0.2973
 7922W        W23539  13.238   9.726  10.649  0.2287  0.0578  0.2759
 7923W        W23540   6.510   2.887  11.006  0.3141 -0.1588  0.4372
 7924W        W23541  11.120  10.015   4.375 -0.1021  0.1230  0.2448
 7925W        W23542  10.603  13.036  12.380  0.0824  0.3860 -0.0413
 7926W        W23543  18.009   8.475   0.125  0.1111  0.1629  0.1693
 7927W        W23544  11.990   7.437   4.876  0.4581  0.1400 -0.1604
 7928W        W23545   2.170  15.158   5.274  0.2774  0.0337 -0.2845
 7929W        W23546   5.127  10.105   3.723 -0.1357  0.1451 -0.0674
 7930W        W23547   0.852   0.123   3.981 -0.2086  0.1320 -0.1506
 7931W        W23548   2.057   7.027  15.570  0.0491  0.0562  0.1646
 7932W        W23549  10.011  10.916   4.982  0.3946 -0.0635 -0.0326
 7933W        W23550  17.522   7.990   0.800 -0.0340  0.3674 -0.4819
 7934W        W23551  13.852  14.999  12.506 -0.1593  0.0515 -0.1505
 7935W        W23552  14.484   3.157  12.113 -0.2430  0.0632 -0.1010
 7936W        W23553  15.888   1.895   0.683  0.3185 -0.0983  0.3761
 7937W        W23554  13.796  18.001  15.743 -0.4164  0.1833 -0.2613
 7938W        W23555   0.569  14.540   0.845  0.3459 -0.1114  0.2125
 7939W        W23556  13.977   9.862  14.399 -0.0540 -0.1584 -0.0639
 7940W        W23557  11.604  16.457   0.712  0.1823 -0.0814 -0.2027
 7941W        W23558  16.692  10.292   0.622  0.1842 -0.0628  0.0045
 7942W        W23559   4.872   2.741   1.709 -0.1052  0.1727  0.2610
 7943W        W23560   6.702  14.206  15.809  0.0079  0.1004 -0.0935
 7944W        W23561   6.844  13.889  11.976 -0.2041  0.1802  0.2176
 7945W        W23562  12.116   5.284   5.506  0.0725 -0.2760  0.0990
 7946W        W23563  10.288   9.386  15.594  0.0456  0.1582 -0.2811
 7947W        W23564  15.803   7.278  12.585  0.0084  0.0711  0.1230
 7948W        W23565  12.249  14.564   2.209 -0.3251  0.2421 -0.3079
 7949W        W23566  13.979  17.545   4.440  0.1554  0.1434 -0.0658
 7950W        W23567  10.986   9.565   4.512  0.1327 -0.0293 -0.0231
 7951W        W23568   6.197   0.707  12.291  0.3636 -0.0310  0.0340
 7952W        W23569   7.949   7.239   2.394 -0.0018  0.1793  0.0218
 7953W        W23570  14.961  14.168  14.185  0.0776 -0.0858  0.1752
 7954W        W23571   6.692  11.416  16.015 -0.3393 -0.0295  0.0272
 7955W        W23572  18.451   6.973  13.031  0.2623 -0.2087  0.2404
 7956W        W23573  10.168   0.161  11.227  0.0752  0.2010 -0.3265
 7957W        W23574   1.191   9.909  12.185 -0.2061  0.1696 -0.1875
 7958W        W23575   4.780  12.257  14.541 -0.1211 -0.3471 -0.1773
 7959W        W23576   8.118  17.493  11.611 -0.2600  0.0487  0.0362
 7960W        W23577  13.731   3.739   2.302  0.2302  0.0641 -0.1061
 7961W        W23578  16.191  15.568   4.764  0.1008 -0.0998  0.2241
 7962W        W23579   8.793   0.782  11.955 -0.2371 -0.0660 -0.1726
 7963W        W23580  12.346  14.992   0.804  0.1620 -0.3045  0.1400
 7964W        W23581  17.512  11.471   1.216  0.0678  0.0832 -0.0673
 7965W        W23582   5.176  11.272   3.618  0.0513 -0.2790 -0.2883
 7966W        W23583  15.802  18.119   3.657  0.0728 -0.1301 -0.0187
 7967W        W23584  16.729   2.728   2.192  0.1305 -0.0669  0.1492
 7968W        W23585   6.941  10.860  14.272  0.3182 -0.1683  0.2937
 7969W        W23586   0.985   6.495  13.901  0.0110 -0.0367  0.1600
 7970W        W23587   7.590   0.153  11.149  0.1241 -0.3564 -0.1485
 7971W        W23588  17.812   9.488  12.543  0.0998 -0.1670 -0.2755
 7972W        W23589  15.301  14.105   5.797 -0.1665 -0.4517  0.2224
 7973W        W23590  12.332   3.480   2.738  0.2233  0.1822  0.1934
 7974W        W23591   4.459  16.323  15.000 -0.1977  0.3191  0.0654
 7975W        W23592   6.955   3.175   0.657  0.2286  0.0698 -0.1975
 7976W        W23593  16.427   9.287  15.384 -0.2764 -0.0974  0.0635
 7977W        W23594   4.288   0.119   2.462 -0.1095  0.2553 -0.1248
 7978W        W23595   6.535  14.028   1.181 -0.0719  0.1199  0.2908
 7979W        W23596   3.872  15.178   4.610  0.4536 -0.1310  0.0430
 7980W        W23597  10.367   9.681  11.463 -0.3696  0.1397  0.3224
 7981W        W23598  16.705   3.585  12.643  0.2443  0.1981 -0.1477
 7982W        W23599  16.745   9.770   3.606 -0.5649 -0.0719 -0.3212
 7983W        W23600   9.575  10.919   1.361  0.0966 -0.0202  0.2928
 7984W        W23601  17.749  14.384   1.232 -0.3256 -0.3406  0.2099
 7985W        W23602   0.690  14.901   1.292 -0.0209  0.0159 -0.1730
 7986W        W23603  16.699   3.416  13.625  0.0541 -0.2996 -0.0578
 7987W        W23604   5.890   6.292   1.922  0.0527 -0.2860  0.1448
 7988W        W23605   6.429  16.686   0.908 -0.0294 -0.0191 -0.1538
 7989W        W23606  16.299   6.713   2.467 -0.0949 -0.0621 -0.0980
 7990W        W23607   3.014   3.275   4.595 -0.0161 -0.1662 -0.0955
 7991W        W23608   8.333   7.089  14.835  0.0936  0.0294 -0.0963
 7992W        W23609  13.817  14.052  11.993 -0.0355 -0.1693  0.1987
 7993W        W23610  10.279   3.866   4.473 -0.0055 -0.0842  0.0523
 7994W        W23611  10.780   0.756   0.629  0.0271  0.0394 -0.2096
 7995W        W23612   6.913   3.616   3.990  0.1089 -0.2498  0.0202
 7996W        W23613  14.235   8.046  13.877  0.1410 -0.0496  0.0066
 7997W        W23614   6.046  11.243  15.263 -0.1634 -0.1572  0.1703
 7998W        W23615  15.749   4.618  15.567  0.1022  0.0594 -0.1883
 7999W        W23616  14.241   7.031   1.221 -0.0042 -0.0718  0.1976
 8000W        W23617   3.529  10.875  15.277 -0.2820  0.6870  0.0553
 8001W        W23618   4.878   7.069  15.526  0.2510 -0.3227 -0.0277
 8002W        W23619   1.315   7.138   9.785 -0.2070 -0.1372  0.3306
 8003W        W23620  14.196   8.580   1.293 -0.0082  0.0285  0.0886
 8004W        W23621   2.291  16.727   1.700  0.0249  0.0303  0.0447
 8005W        W23622   0.714  10.449   6.274 -0.1559 -0.1494 -0.1500
 8006W        W23623  11.502  15.797   3.457 -0.1247 -0.2979 -0.1372
 8007W        W23624  13.552  10.088  11.139  0.1191  0.0135  0.2291
 8008W        W23625   8.311   1.659  13.842 -0.4014  0.1008 -0.0007
 8009W        W23626  10.830  17.499  12.510  0.1655  0.1469  0.1548
 8010W        W23627   6.787   4.946  14.981  0.1451  0.1404 -0.0065
 8011W        W23628   4.110   7.768   1.052  0.0566 -0.1732 -0.2644
 8012W        W23629   0.656  13.306  15.573 -0.3393 -0.0833  0.0287
 8013W        W23630  10.135  10.778   1.139 -0.3144  0.1025  0.0883
 8014W        W23631   9.974  14.754   4.320 -0.1907  0.0406 -0.0409
 8015W        W23632   5.453   7.515   0.667  0.0817  0.0066 -0.3636
 8016W        W23633  14.538  16.621  12.039 -0.0656 -0.1705 -0.0290
 8017W        W23634   4.851   8.786   2.306  0.1838  0.1365  0.1749
 8018W        W23635   8.568   1.165   5.122 -0.3649 -0.0481  0.1612
 8019W        W23636  17.337   5.872   1.160  0.0620  0.6056  0.1682
 8020W        W23637   2.519  14.574   2.766  0.0486 -0.1185 -0.3454
 8021W        W23638   7.293   1.784   4.644 -0.1160 -0.1191  0.0710
 8022W        W23639   0.924   4.499  14.127  0.0357 -0.1732  0.0389
 8023W        W23640   4.487   0.567  14.790  0.3299 -0.0196 -0.2706
 8024W        W23641   1.729  10.553   2.466 -0.2309 -0.3639 -0.1165
 8025W        W23642   4.452   2.978   2.109 -0.2404 -0.1808  0.1710
 8026W        W23643  14.600  11.012   0.785  0.1185  0.1158 -0.1693
 8027W        W23644   1.846   6.043   2.440 -0.1177 -0.3426 -0.2273
 8028W        W23645  11.365  11.031   0.370  0.2801  0.0285 -0.1226
 8029W        W23646   3.741   4.046   3.039  0.0511 -0.0151 -0.1989
 8030W        W23647  18.181  12.522   0.889 -0.1665 -0.1169  0.0173
 8031W        W23648   0.837   8.091   2.209 -0.0776  0.0611  0.0860
 8032W        W23649   5.997   1.415  15.549 -0.0258  0.1626 -0.3760
 8033W        W23650   3.703  10.005   2.835  0.0056 -0.1433  0.0617
 8034W        W23651  17.190  13.193  11.911  0.0553  0.2208 -0.0182
 8035W        W23652  12.431  15.318   5.030 -0.1336  0.2450 -0.0595
 8036W        W23653   2.172   1.020  11.715  0.3299 -0.3908 -0.1677
 8037W        W23654   6.487  13.658   3.223  0.3072  0.0646 -0.3533
 8038W        W23655   6.277   5.918  15.060 -0.1840 -0.3659  0.0860
 8039W        W23656  10.287  15.089  13.034 -0.3553  0.0297  0.2267
 8040W        W23657   6.302   7.036   3.709 -0.0773 -0.1988  0.0758
 8041W        W23658  17.412   7.899   4.966 -0.1259  0.1564 -0.0190
 8042W        W23659  14.875   5.730   1.040 -0.1382  0.1472 -0.2109
 8043W        W23660   4.583  15.737   2.968 -0.1821 -0.0112 -0.2731
 8044W        W23661  14.838  17.713   5.606  0.1066  0.0740 -0.2649
 8045W        W23662  13.321  14.396   4.793  0.1629 -0.1810  0.0790
 8046W        W23663   0.852   6.161  12.164 -0.3042  0.3446  0.0619
 8047W        W23664   3.164   8.009   4.102  0.5696 -0.1022 -0.1799
 8048W        W23665   3.260   8.540  15.734 -0.0006 -0.1584 -0.1518
 8049W        W23666  13.539   8.582   0.396 -0.0397  0.2004 -0.0006
 8050W        W23667  10.437  17.359  15.807  0.3488  0.1632 -0.4945
 8051W        W23668   7.121   1.467  15.512 -0.3069  0.0353 -0.0162
 8052W        W23669   6.550   5.834  14.619  0.1056 -0.0251  0.1409
 8053W        W23670   8.917  13.115  12.847 -0.0729 -0.0058  0.2467
 8054W        W23671   8.111  13.755  13.475  0.0253 -0.1442 -0.0645
 8055W        W23672   6.525  15.168   1.952  0.3929  0.0547  0.0677
 8056W        W23673  16.500  10.151  11.804 -0.2581 -0.0985  0.0199
 8057W        W23674   3.488  14.224  13.840 -0.0620 -0.2924 -0.0022
 8058W        W23675  14.110  15.561   1.436  0.1174  0.0174  0.0949
 8059W        W23676   8.722   0.621  15.481  0.0361 -0.1381 -0.2049
 8060W        W23677   1.593  15.514   2.221  0.2173 -0.0442 -0.0731
 8061W        W23678  13.022   6.591  14.575  0.3993  0.1291 -0.0604
 8062W        W23679  14.565  15.022   2.927  0.4534 -0.0828 -0.0979
 8063W        W23680   9.105   2.420  15.909 -0.1873  0.0264  0.0367
 8064W        W23681  10.267   8.358   2.473 -0.0199 -0.1906 -0.0333
 8065W        W23682   2.603  18.203   5.782  0.0202  0.0739 -0.1019
 8066W        W23683  17.578   2.953  10.515 -0.0261 -0.0954 -0.0052
 8067W        W23684   4.705   8.412  12.560  0.0120 -0.1215 -0.3023
 8068W        W23685   4.444  18.081  12.290 -0.0734  0.0813  0.0143
 8069W        W23686   4.448   1.732   2.695 -0.0704 -0.1001 -0.2086
 8070W        W23687  14.256   7.701  14.831 -0.1439  0.2647 -0.3792
 8071W        W23688   8.499   9.052   0.878  0.1333  0.5580 -0.2174
 8072W        W23689  13.816  10.193   2.821 -0.1323 -0.1658 -0.2838
 8073W        W23690   7.617   0.043   1.662  0.1677 -0.1067 -0.0065
 8074W        W23691   4.775  17.634  14.520 -0.2439 -0.0324  0.0053
 8075W        W23692   8.905  14.454  11.853 -0.1186  0.0209 -0.0200
 8076W        W23693  16.419   6.270   2.512 -0.2072  0.1114  0.1742
 8077W        W23694   2.957  11.664   0.896  0.0133 -0.1124  0.1986
 8078W        W23695   6.253  13.487   4.294  0.1383 -0.0219  0.1889
 8079W        W23696   1.275  10.427  14.726 -0.0263 -0.4216  0.3278
 8080W        W23697   2.859   1.819   4.463  0.3397 -0.0255  0.1955
 8081W        W23698  11.361  16.796   2.066  0.0374 -0.0182  0.1310
 8082W        W23699  15.535  14.484   4.588 -0.1653  0.4288  0.2050
 8083W        W23700  13.139  12.234   1.564 -0.0153  0.0285 -0.1584
 8084W        W23701   7.186  18.397   2.548  0.1880  0.0096  0.1522
 8085W        W23702   0.663   4.942   4.466  0.1234  0.1622 -0.0499
 8086W        W23703  15.594  14.158   5.073  0.1414 -0.1140  0.2254
 8087W        W23704   1.297  10.247   0.488 -0.0450  0.0400  0.0131
 8088W        W23705   7.189  10.279  15.101 -0.3888 -0.0053  0.0830
 8089W        W23706   1.444  13.366   0.937  0.2006 -0.1123  0.3524
 8090W        W23707  13.178   4.028   5.724 -0.0512  0.1403  0.5493
 8091W        W23708  12.148   3.557   5.595 -0.0465 -0.3135  0.0439
 8092W        W23709  11.567  10.146   4.008  0.2889 -0.3117  0.0898
 8093W        W23710  10.634   2.468  14.845 -0.0121 -0.3323  0.2604
 8094W        W23711  14.331  14.240   2.569 -0.2596 -0.1701  0.2951
 8095W        W23712  16.012   2.611   6.028 -0.4232 -0.0104  0.0008
 8096W        W23713  14.411   7.874  11.322  0.1468  0.1460 -0.1552
 8097W        W23714   9.439  13.010   0.843 -0.0058  0.1004  0.2237
 8098W        W23715   1.890  13.221   0.709  0.1269  0.2604  0.2853
 8099W        W23716   1.348  13.948   4.434 -0.1843  0.1559 -0.0764
 8100W        W23717   7.517  18.398  14.839  0.0662  0.1551  0.2358
 8101W        W23718   1.116   2.575  14.741  0.0149  0.1905 -0.1293
 8102W        W23719   7.579   2.808  13.941 -0.2256 -0.0403  0.0907
 8103W        W23720  14.887   7.983   1.215 -0.0306  0.2878  0.0754
 8104W        W23721   6.318   6.055   1.015 -0.2363  0.0166 -0.0518
 8105W        W23722   2.412   9.607  11.182 -0.1742  0.0618 -0.0444
 8106W        W23723   7.416   4.597  12.640 -0.1345 -0.0352  0.1595
 8107W        W23724  16.978  17.011   3.097  0.1019  0.1244  0.0698
 8108W        W23725   0.462   1.927  15.127  0.2317 -0.0725 -0.3394
 8109W        W23726  11.982   6.272   0.044  0.4396 -0.2171 -0.2926
 8110W        W23727   0.149   4.686   2.692 -0.2530  0.0314 -0.1200
 8111W        W23728  16.182   0.175   4.849 -0.1792  0.0185 -0.0364
 8112W        W23729   7.545   7.162  15.031 -0.1304 -0.3551 -0.0781
 8113W        W23730  16.669   8.612   1.518 -0.3321  0.0028  0.0432
 8114W        W23731   7.853  16.030  11.677 -0.2762  0.1738 -0.0393
 8115W        W23732   0.025   4.869   3.781  0.1857 -0.0592  0.1679
 8116W        W23733  12.342   1.417   2.757  0.3364 -0.1399 -0.1634
 8117W        W23734   7.340  11.293  15.854 -0.0899  0.2415  0.1967
 8118W        W23735  10.409  18.102  10.571  0.2169  0.1226 -0.2767
 8119W        W23736  11.693   0.674   2.029 -0.3263  0.1150 -0.0627
 8120W        W23737   7.558  14.026   2.391  0.0491 -0.1110 -0.0985
 8121W        W23738  13.899  11.071   4.759  0.3073  0.0748  0.0699
 8122W        W23739   0.982  12.616   2.864 -0.1972 -0.2423  0.2456
 8123W        W23740   1.536   0.412   4.827 -0.2070 -0.0100 -0.0712
 8124W        W23741  17.583   4.527   0.487 -0.0704 -0.2232 -0.2795
 8125W        W23742  16.233   8.621   2.500 -0.0549 -0.1655 -0.0840
 8126W        W23743   1.247  17.672   1.141 -0.0840  0.0271 -0.1140
 8127W        W23744   4.081   7.334   3.100  0.1574 -0.4068  0.1367
 8128W        W23745   5.641   5.823  10.977  0.1441 -0.0378  0.0220
 8129W        W23746   8.382   9.743   0.233 -0.1569  0.2464 -0.1393
 8130W        W23747  14.908   8.805  12.827  0.2836  0.2439 -0.1064
 8131W        W23748  14.418   5.366  14.876  0.3644 -0.1795  0.4347
 8132W        W23749   8.328   0.711  13.708  0.2976  0.2491 -0.3970
 8133W        W23750   0.404  18.436   1.445 -0.4206 -0.0396 -0.3675
 8134W        W23751   1.057   9.586   3.227  0.1494  0.1275 -0.2237
 8135W        W23752  17.022   1.884   1.398  0.0379 -0.1348 -0.1658
 8136W        W23753   1.653  14.354  15.397 -0.2858 -0.1703 -0.0977
 8137W        W23754  15.823  16.416  11.901  0.0648  0.0119 -0.0096
 8138W        W23755  12.925   2.662   5.334  0.2961  0.0292 -0.1450
 8139W        W23756   9.324   7.260  14.567  0.0916  0.2039  0.0551
 8140W        W23757   6.745   4.620  11.208  0.2689  0.0644  0.2565
 8141W        W23758  17.586  13.248  16.017  0.1181 -0.0099 -0.1060
 8142W        W23759  11.043  11.434  14.893  0.1041 -0.1710 -0.1303
 8143W        W23760   1.198  17.920   3.071 -0.0456  0.3481 -0.3296
 8144W        W23761  11.666   6.690   2.282  0.1596 -0.1862 -0.0712
 8145W        W23762  12.087   4.315  10.660  0.2345  0.0675  0.1061
 8146W        W23763   4.475  10.425  15.092  0.0866  0.0859 -0.2311
 8147W        W23764   0.196  13.129  15.790 -0.2495  0.0479 -0.0555
 8148W        W23765   8.270  14.255   4.180 -0.3052  0.0564  0.3987
 8149W        W23766   6.099  16.989   2.140 -0.3005 -0.1085  0.1919
 8150W        W23767  12.307  15.988   2.605  0.3331 -0.2224 -0.2400
 8151W        W23768   4.782  11.942  12.100  0.1951  0.0478  0.0764
 8152W        W23769  15.913  13.222  12.307 -0.0055  0.0501  0.0291
 8153W        W23770   2.687   8.491  10.836  0.0873 -0.0875  0.3651
 8154W        W23771  17.450  16.046  13.624 -0.2212 -0.0877 -0.1376
 8155W        W23772  11.454   8.348  10.882 -0.3249  0.2292  0.5237
 8156W        W23773   1.208  14.492  11.734 -0.0029 -0.1384  0.0473
 8157W        W23774   4.393  11.207  14.071  0.1567  0.1526 -0.1360
 8158W        W23775  11.323  13.257  14.421 -0.3003  0.1331 -0.3324
 8159W        W23776   3.129  14.791   5.038 -0.1513  0.2418 -0.1412
 8160W        W23777  15.318   2.337   5.788  0.3884  0.0117 -0.0464
 8161W        W23778   3.546   1.579   3.891 -0.0616  0.2031 -0.1864
 8162W        W23779  10.661   5.998   1.852  0.1522 -0.2746  0.2767
 8163W        W23780   5.268  17.574   4.434  0.1947  0.3602 -0.1138
 8164W        W23781   3.469   6.233  15.321  0.1515 -0.0470  0.1170
 8165W        W23782  12.254   6.680   0.921  0.2047 -0.1748 -0.1742
 8166W        W23783  14.723  14.833  12.145 -0.2947  0.1093 -0.3686
 8167W        W23784  10.236  15.414   2.285  0.1247  0.0887  0.4738
 8168W        W23785   8.520  18.210   2.141 -0.2101 -0.1041 -0.2373
 8169W        W23786   0.696  16.338  13.716 -0.3078  0.0164  0.1798
 8170W        W23787   9.671   4.135   3.740 -0.0048 -0.0820  0.1047
 8171W        W23788   0.765   7.957  13.566  0.1377  0.4373 -0.0515
 8172W        W23789   4.583   1.355  15.367 -0.3976 -0.0766 -0.1948
 8173W        W23790  10.455  14.402   5.160  0.2028  0.3356  0.1139
 8174W        W23791   6.252  10.696  15.887 -0.0282  0.0889  0.0931
 8175W        W23792   5.261   4.915   1.155 -0.2676  0.0950  0.0509
 8176W        W23793   0.207   2.533   5.089 -0.0132  0.0934 -0.2975
 8177W        W23794   5.577  14.344  13.414  0.1851  0.1905  0.0433
 8178W        W23795   0.417   9.659   2.469 -0.1986 -0.1442  0.0511
 8179W        W23796  16.358   3.888  11.445 -0.2073  0.0969  0.2396
 8180W        W23797   8.736   4.355   3.354  0.0139 -0.0187  0.1822
 8181W        W23798  15.561  17.521  11.601  0.1016  0.0200  0.2912
 8182W        W23799  16.061   1.071   2.258  0.3126 -0.2087  0.2491
 8183W        W23800   9.772   3.231  15.380  0.0333 -0.1493 -0.1358
 8184W        W23801   9.716  18.034  13.460  0.2152 -0.0323  0.0496
 8185W        W23802   1.166   7.139   1.160 -0.0024 -0.0116  0.0800
 8186W        W23803  17.378   1.747   5.533  0.2047  0.2575  0.0384
 8187W        W23804   2.541   4.569  13.744 -0.0127 -0.0120 -0.0429
 8188W        W23805  11.788  14.693  13.099 -0.2350 -0.0035 -0.0695
 8189W        W23806   1.811  13.750   4.294  0.0332 -0.3010 -0.2162
 8190W        W23807   3.271  17.952   0.773 -0.0926 -0.2886  0.2961
 8191W        W23808   2.192   9.548   2.323 -0.1343  0.1742  0.2930
 8192W        W23809   9.035  11.595   5.781 -0.0392 -0.1192 -0.2148
 8193W        W23810  16.126   0.545   4.557 -0.3023 -0.0135 -0.1035
 8194W        W23811  14.711  15.128   4.813 -0.2384 -0.2362 -0.0566
 8195W        W23812   5.788  10.688  15.216  0.0649 -0.1176 -0.0704
 8196W        W23813  13.942   8.711   2.364  0.0057  0.1747  0.1259
 8197W        W23814  17.871  15.426  14.153 -0.0290  0.0759 -0.0977
 8198W        W23815  16.622  11.907  12.120  0.0113 -0.0377 -0.2320
 8199W        W23816   1.225  13.543   0.027  0.0792  0.1040  0.0824
 8200W        W23817  10.096   6.447  11.836 -0.1470 -0.1430 -0.1031
 8201W        W23818   8.751   6.004   0.767 -0.0827 -0.0717  0.0612
 8202W        W23819   9.981   6.698   1.828 -0.0309 -0.0634  0.1494
 8203W        W23820  18.294   9.857  13.273  0.0831 -0.1542  0.2095
 8204W        W23821   4.298  10.418   1.526 -0.1472 -0.3213 -0.0960
 8205W        W23822   1.682  12.014   2.972  0.1898 -0.1551 -0.4244
 8206W        W23823  17.037  11.406   3.414  0.1115  0.0804  0.1872
 8207W        W23824   2.407  17.164  14.469  0.2293  0.2657  0.0998
 8208W        W23825   1.786   1.180   5.670 -0.1273  0.0870 -0.1821
 8209W        W23826   3.457  17.182   0.912  0.1752 -0.1102  0.0543
 8210W        W23827  12.775  16.148   1.192  0.2979 -0.0491 -0.3433
 8211W        W23828  10.794   7.919   1.872 -0.0305  0.0374  0.1717
 8212W        W23829  15.688  10.736  15.586  0.2629 -0.2709  0.0096
 8213W        W23830  13.467  17.903  12.426 -0.1197 -0.2998 -0.1569
 8214W        W23831   9.409   7.535   3.305 -0.0743 -0.0277  0.0736
 8215W        W23832   8.678  13.432   4.876 -0.1670 -0.0353  0.2144
 8216W        W23833  16.633  13.389  13.182 -0.0272 -0.1144 -0.2967
 8217W        W23834  15.105  16.031   2.470 -0.2435  0.0590 -0.0189
 8218W        W23835   4.084  11.804   5.502 -0.2316 -0.2263  0.0785
 8219W        W23836   9.408  13.451  12.707 -0.2034  0.2007  0.0072
 8220W        W23837   8.938  14.505   2.857  0.1470  0.1460  0.2192
 8221W        W23838   0.331  15.274   2.407  0.1432 -0.1175 -0.0048
 8222W        W23839   2.666   6.212  15.192 -0.2354  0.0623  0.4858
 8223W        W23840   3.037   3.235   1.688 -0.3727 -0.1048 -0.0134
 8224W        W23841   2.175  15.401  13.489 -0.4015 -0.1905  0.0307
 8225W        W23842  18.406   9.173   5.128  0.0698  0.2457  0.5139
 8226W        W23843   6.366   3.255   4.203  0.1188 -0.0232  0.2442
 8227W        W23844   8.452  15.918  12.960 -0.1832  0.2377  0.0165
 8228W        W23845   9.149  15.914   3.845  0.0598  0.1414  0.1099
 8229W        W23846  11.171   0.740  15.437 -0.3021 -0.0916 -0.0224
 8230W        W23847  12.438   7.788  15.885  0.0659  0.0674  0.0414
 8231W        W23848   0.970   2.082   4.502  0.1334 -0.0624  0.1180
 8232W        W23849  11.637   5.577   4.479 -0.1842 -0.1226 -0.0725
 8233W        W23850   0.967   0.623  11.790  0.1248  0.5857  0.1021
 8234W        W23851  11.460   3.440  12.331 -0.0848  0.3274 -0.0351
 8235W        W23852   1.805  10.724  14.674  0.1587 -0.2512 -0.0788
 8236W        W23853   7.421  10.934  13.346 -0.0853  0.1007  0.1481
 8237W        W23854  11.174   6.122   5.218 -0.1901  0.0007  0.0759
 8238W        W23855   9.225  10.608   6.098  0.1496 -0.0500  0.1501
 8239W        W23856   3.172   9.927  14.822  0.1402 -0.1057  0.1317
 8240W        W23857  15.103   3.806  11.068 -0.0615  0.1705  0.2115
 8241W        W23858   2.865   8.954  10.919  0.0022 -0.1143 -0.0698
 8242W        W23859   3.630  15.930  15.517  0.4325  0.0136  0.2037
 8243W        W23860  15.851  10.914  12.613 -0.0511  0.1135 -0.2449
 8244W        W23861   7.852  16.873  12.115  0.2420 -0.0445  0.2674
 8245W        W23862  13.839   7.480   2.583  0.2440 -0.2997  0.2293
 8246W        W23863   3.235  18.438   0.942 -0.0022  0.3323  0.0521
 8247W        W23864   0.762   2.958   1.418  0.0672 -0.0082  0.2423
 8248W        W23865  13.770  15.582  15.934  0.1185  0.0548  0.4479
 8249W        W23866  15.735   1.295  12.689 -0.0401 -0.0001 -0.0756
 8250W        W23867   3.682  18.437  11.424  0.2594  0.0474  0.5958
 8251W        W23868  11.603   3.731   0.591  0.2153 -0.3818 -0.0981
 8252W        W23869   7.726   0.428  11.582 -0.1326  0.1050  0.1086
 8253W        W23870  15.378   0.578   1.824  0.1851 -0.0982  0.3313
 8254W        W23871   2.846  18.266   6.234  0.2124  0.1456 -0.2300
 8255W        W23872   1.478   2.851   1.870 -0.0567  0.3325  0.0577
 8256W        W23873  12.349   7.636  14.993 -0.2991  0.2153 -0.3249
 8257W        W23874   0.981  15.177  14.194 -0.2194 -0.2719  0.1201
 8258W        W23875  11.190  13.984   0.887 -0.0239  0.0968 -0.0026
 8259W        W23876   6.108   4.682  10.679  0.3875 -0.4323 -0.1100
 8260W        W23877   3.741   9.222  11.230 -0.0093  0.0479  0.0576
 8261W        W23878  13.986   8.910   4.673 -0.1790  0.0457  0.0380
 8262W        W23879  13.902   0.199  14.322  0.3711 -0.0164 -0.2255
 8263W        W23880  14.946  17.558  14.044  0.0225  0.3103 -0.0688
 8264W        W23881   4.208   3.526   4.098  0.1074 -0.4473 -0.0588
 8265W        W23882  17.675   1.890   2.985  0.1891 -0.0057  0.0799
 8266W        W23883  14.146   6.478   1.470  0.0321 -0.1617 -0.0715
 8267W        W23884   9.169   5.017   1.214 -0.1951 -0.0651 -0.1202
 8268W        W23885  10.131   2.122   0.779  0.0373 -0.0508  0.2855
 8269W        W23886   0.459   7.281  12.175 -0.2517  0.2230  0.0318
 8270W        W23887   9.930   6.064   2.421 -0.0065 -0.1914 -0.4205
 8271W        W23888  16.653   5.058   2.474  0.0050  0.2979 -0.0807
 8272W        W23889   4.816   4.941  13.341  0.1059  0.0268  0.1543
 8273W        W23890  13.537   2.373   1.199  0.1733  0.0686 -0.2039
 8274W        W23891   7.231   6.318  11.522  0.5765  0.2010 -0.0564
 8275W        W23892  12.669   7.409  11.545 -0.2714 -0.1334 -0.0384
 8276W        W23893   0.620   1.360  14.714  0.0418 -0.1320 -0.4938
 8277W        W23894   9.923   6.893   3.372 -0.2514  0.1245 -0.0013
 8278W        W23895  17.296   4.962  15.764  0.0933  0.1876 -0.0485
 8279W        W23896  14.264  12.582  13.856  0.0648  0.0140 -0.3802
 8280W        W23897   2.827  13.170  15.706  0.0708  0.2873 -0.2394
 8281W        W23898   9.565   5.919   4.237  0.0863  0.2817  0.0423
 8282W        W23899   5.438  14.413  11.775 -0.0075  0.0116  0.1969
 8283W        W23900  18.440   2.184   4.753 -0.0519  0.1497 -0.1550
 8284W        W23901   9.911   1.361   1.216  0.4470 -0.2709  0.1883
 8285W        W23902  15.155   5.574   2.019 -0.0688  0.4123  0.1951
 8286W        W23903   7.656  14.499  14.194  0.1395  0.3954  0.1519
 8287W        W23904  13.020  18.060   4.464 -0.1990 -0.0857 -0.1400
 8288W        W23905  14.273  14.532  11.075  0.1136 -0.2568  0.2506
 8289W        W23906   4.175  11.431  15.103  0.2138 -0.1785 -0.0939
 8290W        W23907  17.490  13.673   0.173 -0.2639 -0.1186  0.0054
 8291W        W23908   7.207  17.656  13.198 -0.0020  0.0973 -0.0666
 8292W        W23909  11.766  13.045  11.110 -0.0422 -0.1284 -0.1293
 8293W        W23910  13.618  16.783   4.060  0.0111 -0.0044 -0.2750
 8294W        W23911  16.849  17.839   2.694  0.2538 -0.2255 -0.0356
 8295W        W23912   0.442  14.822   3.840 -0.5700  0.0618 -0.0906
 8296W        W23913   1.139   2.924   2.210 -0.2283  0.1236  0.2014
 8297W        W23914   8.819   9.697   2.181 -0.1723  0.1399 -0.2321
 8298W        W23915  15.328  12.229   1.983 -0.2004 -0.0197  0.0328
 8299W        W23916  16.549   2.084   1.429  0.0186  0.2577  0.0732
 8300W        W23917  17.054   3.915  11.277 -0.1229  0.1831  0.1169
 8301W        W23918   0.227   9.557   1.572  0.0868  0.3576  0.0065
 8302W        W23919   7.478  14.979  13.516 -0.1725 -0.2112 -0.3078
 8303W        W23920   2.590   0.996  13.555  0.0923  0.2675 -0.0981
 8304W        W23921  17.719  11.401  14.089  0.3301 -0.0707 -0.2835
 8305W        W23922   9.882   8.023   0.725  0.1687 -0.1855 -0.0083
 8306W        W23923  17.100   0.552  12.334 -0.1374  0.0619  0.1460
 8307W        W23924  10.735   0.171   3.800 -0.0381 -0.3187 -0.1288
 8308W        W23925  14.579   5.281   0.795 -0.0294 -0.0354 -0.1005
 8309W        W23926   2.925  18.309   0.592  0.2834 -0.5208 -0.0314
 8310W        W23927   7.261   9.478  12.491 -0.3996  0.0270 -0.0970
 8311W        W23928  18.244  12.383   0.393  0.2674 -0.0572  0.0232
 8312W        W23929  12.963  11.960  11.174  0.1139  0.2527  0.1162
 8313W        W23930   2.448  13.743   3.135  0.2773  0.4013  0.1396
 8314W        W23931  17.041   4.970   1.120 -0.1923 -0.2593  0.2890
 8315W        W23932  17.734   1.247  12.556  0.1681  0.0467  0.0344
 8316W        W23933   6.167   1.802  15.928 -0.0722  0.2044  0.3513
 8317W        W23934  11.232  16.347  11.540  0.3798 -0.1725  0.1420
 8318W        W23935  11.124  14.075   3.302  0.3359  0.1004 -0.0950
 8319W        W23936   9.645   1.566   3.217 -0.0393 -0.1946  0.1673
 8320W        W23937  15.321   1.110  11.149  0.1418 -0.0351  0.4609
 8321W        W23938   2.368   3.990   0.962  0.2118 -0.0653  0.0237
 8322W        W23939   7.482  18.325   0.048 -0.0207  0.3600  0.0208
 8323W        W23940  17.374   2.941   3.807  0.1729  0.0968 -0.0040
 8324W        W23941  16.427   3.119   5.020 -0.1044 -0.4163  0.1045
 8325W        W23942   6.566  14.916  13.936 -0.0278 -0.1464 -0.1071
 8326W        W23943   1.809   0.057   5.634 -0.2144 -0.0724 -0.0958
 8327W        W23944   5.086  17.727  14.068 -0.1151 -0.2521 -0.0820
 8328W        W23945  16.493   0.599  14.556  0.0714 -0.0814  0.4253
 8329W        W23946  13.931  15.080   0.125  0.1468  0.1125 -0.1193
 8330W        W23947  12.035   1.231  14.280 -0.2765  0.3337  0.4750
 8331W        W23948  15.331   8.840  15.885  0.1770  0.0106  0.1865
 8332W        W23949   2.808   3.745   4.651 -0.2011 -0.1199  0.1530
 8333W        W23950   9.879   2.828   4.014  0.1182 -0.2746  0.2093
 8334W        W23951  11.687   7.645  12.085  0.0051  0.3510 -0.1205
 8335W        W23952  12.413  16.105   4.449 -0.1525  0.2316  0.1952
 8336W        W23953   7.924  16.391   0.620  0.1308 -0.2412  0.1759
 8337W        W23954   5.286  14.604   2.450 -0.0443  0.1977 -0.1104
 8338W        W23955   2.314   5.265  14.192  0.0474 -0.2307 -0.5127
 8339W        W23956   5.657   1.727   0.432 -0.0261  0.2194  0.3101
 8340W        W23957  10.096  14.442   3.778  0.3291 -0.0931 -0.0537
 8341W        W23958  18.454   7.320   2.816  0.1427  0.1451 -0.0294
 8342W        W23959  13.365  17.105  14.673 -0.2933 -0.1666 -0.3767
 8343W        W23960   2.100   7.575   3.503 -0.0846 -0.0572 -0.0157
 8344W        W23961  17.370  14.458  11.479  0.0111  0.0335 -0.3049
 8345W        W23962   9.690   1.931   0.474  0.4672  0.0624  0.1376
 8346W        W23963   8.191  15.652   0.916  0.0970  0.0065 -0.2279
 8347W        W23964   0.980   5.893  14.061 -0.1035  0.2525 -0.2893
 8348W        W23965  11.124  17.167  14.370  0.0079 -0.1747  0.1898
 8349W        W23966  13.909   4.717  11.304  0.0265 -0.1121 -0.2098
 8350W        W23967  17.620  10.592   2.750 -0.0480  0.3542  0.0078
 8351W        W23968   2.060  11.405   1.299 -0.2560 -0.0420  0.0344
 8352W        W23969   3.286   2.335   2.317 -0.1557  0.1534  0.0653
 8353W        W23970  13.526   8.696   4.606  0.1538  0.0556 -0.0188
 8354W        W23971  12.611  17.138   1.043  0.0394  0.0029  0.2770
 8355W        W23972  14.167  11.654   3.538 -0.0790 -0.1543  0.4879
 8356W        W23973   4.034  14.115  14.240 -0.2207  0.0345  0.3435
 8357W        W23974   8.136   1.198  13.941  0.0095 -0.1730 -0.3093
 8358W        W23975  12.305   1.645  15.153  0.2335 -0.0037  0.0896
 8359W        W23976  12.026  16.289   3.519  0.1885  0.1582  0.0709
 8360W        W23977  13.883   4.352   3.955 -0.2449 -0.2407 -0.0156
 8361W        W23978  12.800   7.180   2.866  0.0542  0.1046 -0.1993
 8362W        W23979  14.126  15.817   0.908  0.0890  0.0153  0.0339
 8363W        W23980  17.178  15.395  11.726  0.3751  0.1837  0.2362
 8364W        W23981   1.974   5.802  14.814  0.0647  0.0025 -0.1698
 8365W        W23982   7.103   2.631   1.907 -0.3051  0.3340  0.0004
 8366W        W23983   4.432  11.531   2.460  0.0323  0.0168 -0.2028
 8367W        W23984   8.092   3.008   0.736  0.1636  0.4250 -0.2094
 8368W        W23985   9.582   5.432  10.187  0.1903  0.0019 -0.1872
 8369W        W23986   1.339  12.464  11.430  0.0382 -0.1690 -0.3462
 8370W        W23987  15.417  14.182   1.533 -0.2543 -0.2578  0.0317
 8371W        W23988  11.734  13.943   2.589 -0.3418 -0.1988 -0.1064
 8372W        W23989   1.241  15.809   4.334  0.1905  0.0300 -0.0230
 8373W        W23990   2.546  10.009   3.795 -0.2327 -0.0637 -0.1070
 8374W        W23991   1.266  16.767   4.991  0.1503  0.2567  0.1319
 8375W        W23992  17.545   4.253  11.752  0.1347 -0.0224 -0.0424
 8376W        W23993   9.657  11.766   5.240  0.1968  0.0560 -0.1373
 8377W        W23994  14.390   6.210   4.334  0.0583 -0.1535 -0.1007
 8378W        W23995  13.701  18.088  11.436  0.0507  0.3465  0.3354
 8379W        W23996  14.430  16.270  11.671  0.1712 -0.3052  0.0427
 8380W        W23997  13.413  17.626  10.646 -0.3593  0.0904  0.0757
 8381W        W23998  14.402  14.891   6.085 -0.1098 -0.0436 -0.0598
 8382W        W23999  12.429  10.686   4.130  0.0254  0.0480  0.0800
 8383W        W24000   9.900   0.882  11.554 -0.0559 -0.1196  0.1935
 8384W        W24001   1.801   2.573   5.576  0.2322  0.5135 -0.1963
 8385W        W24002   4.434   8.497   4.636  0.2287 -0.1989  0.1168
 8386W        W24003  15.826  16.352  12.392  0.1174  0.1806 -0.3563
 8387W        W24004  12.044  13.505  12.023  0.4352  0.0586 -0.0477
 8388W        W24005   4.148   6.258   1.001  0.0920 -0.4271  0.1429
 8389W        W24006   1.545  11.614  14.831  0.1830  0.3316 -0.0315
 8390W        W24007   9.388  13.478  12.177 -0.2957 -0.1829 -0.0860
 8391W        W24008  13.871   4.461  16.044 -0.1043 -0.2998  0.1044
 8392W        W24009  11.390   1.512  10.351 -0.1216 -0.1437 -0.1013
 8393W        W24010  14.493  10.861   5.417  0.1628 -0.1161  0.0390
 8394W        W24011   9.129  13.372   0.986  0.0116 -0.0208  0.0023
 8395W        W24012  10.249  10.719   3.152  0.0388 -0.2013  0.0438
 8396W        W24013   8.695  14.496   1.997  0.1803  0.0868 -0.0063
 8397W        W24014   3.110   1.566   0.357  0.0682  0.1221  0.1769
 8398W        W24015   6.282  18.244   1.178  0.0383  0.2264 -0.0139
 8399W        W24016   5.579  17.337  13.627 -0.0499  0.2037  0.1426
 8400W        W24017   6.223  13.882  12.681  0.1697 -0.0686 -0.1139
 8401W        W24018   6.848   3.627   3.024 -0.3359  0.0258  0.0937
 8402W        W24019  10.388   0.383  12.761  0.0373  0.2643  0.0342
 8403W        W24020  10.522   7.720  13.198  0.1152 -0.0675 -0.2541
 8404W        W24021   7.939   2.394   1.108  0.2514  0.1115 -0.0762
 8405W        W24022   0.114  10.586  14.001  0.1722 -0.3180  0.0435
 8406W        W24023   7.899   0.937   4.826 -0.2985  0.3268 -0.4672
 8407W        W24024  16.912   2.159  13.281  0.0996  0.1307 -0.1367
 8408W        W24025  17.624  16.412   4.301 -0.0180  0.3183  0.0373
 8409W        W24026  13.412   7.738  13.895 -0.1311  0.0952  0.2289
 8410W        W24027  16.706  15.740  13.366  0.0032 -0.3306  0.0860
 8411W        W24028  18.082   2.233  11.456 -0.0140 -0.0575  0.1483
 8412W        W24029  10.140  13.442  10.615  0.0799  0.1524 -0.1067
 8413W        W24030   2.949  13.698   2.963  0.1195 -0.1173  0.0442
 8414W        W24031   3.877  10.069   0.756 -0.0232 -0.0137 -0.3085
 8415W        W24032  18.323  11.599   3.115 -0.4648  0.1366 -0.0883
 8416W        W24033  16.130   3.351   0.968 -0.0759 -0.1132  0.0670
 8417W        W24034   1.881   4.464   5.395 -0.1318  0.6067  0.0102
 8418W        W24035   0.968  13.492  12.765 -0.0926 -0.2872  0.3548
 8419W        W24036  10.348   7.725   4.485  0.0363  0.3439  0.1860
 8420W        W24037  14.444   8.906  10.988 -0.0696  0.0242  0.1198
 8421W        W24038  12.425   4.023   5.370  0.0666 -0.1017 -0.2561
 8422W        W24039   8.941   7.951  15.539  0.1638  0.0462 -0.1211
 8423W        W24040  15.834   1.506   4.662  0.3518 -0.2613  0.2796
 8424W        W24041  16.743   7.759  12.434  0.0884 -0.1611 -0.0051
 8425W        W24042   8.280   9.217   3.570  0.0892  0.2575  0.0953
 8426W        W24043  15.663   5.319  12.990  0.0435 -0.3431 -0.1556
 8427W        W24044   3.557  12.710   1.763 -0.1823  0.1750 -0.2000
 8428W        W24045  10.890  14.635   4.985  0.3806 -0.0455 -0.0044
 8429W        W24046  12.784  17.713  11.721 -0.1547 -0.3104 -0.1398
 8430W        W24047  13.571   2.389  11.535 -0.3758  0.1201  0.1649
 8431W        W24048  18.059   7.559   2.568  0.3179 -0.0102  0.0891
 8432W        W24049   2.822  10.257   5.601 -0.2776 -0.3276  0.0951
 8433W        W24050   4.719   9.759   0.619  0.0731  0.2234 -0.1529
 8434W        W24051  14.154  10.768   4.531 -0.4156  0.2670  0.2232
 8435W        W24052  15.273   5.704  12.727  0.0324 -0.1677 -0.3206
 8436W        W24053  14.328   2.004   4.231  0.1744 -0.0498  0.0223
 8437W        W24054   7.885   5.171  16.064  0.2167  0.0345 -0.1199
 8438W        W24055  12.692   6.613   1.209 -0.1493  0.2309 -0.0700
 8439W        W24056   9.008  13.371  13.801  0.1118 -0.1537  0.1463
 8440W        W24057  18.050  14.826   4.679 -0.1035  0.1913 -0.0832
 8441W        W24058   0.366   6.505  15.641 -0.3300 -0.0536 -0.1700
 8442W        W24059  10.963   6.259   4.495  0.1326 -0.1071  0.0314
 8443W        W24060  16.202  14.469   2.896 -0.2592 -0.2278  0.0591
 8444W        W24061  17.869  10.255   4.631 -0.0398  0.1272  0.0099
 8445W        W24062  12.469  11.914   0.909  0.1203 -0.2767 -0.0209
 8446W        W24063   4.193   3.125   0.984  0.0884 -0.1316 -0.0200
 8447W        W24064   9.145   0.674   0.214  0.0073 -0.0139  0.1463
 8448W        W24065   3.211   1.475   4.677 -0.1243  0.0570  0.0168
 8449W        W24066   5.974  18.316  10.157  0.0730  0.0380 -0.0600
 8450W        W24067   7.663  11.406  13.193 -0.1860  0.0946  0.1745
 8451W        W24068   2.778  11.841   4.363  0.3371  0.0535 -0.1015
 8452W        W24069  17.089   1.290   0.460 -0.1719 -0.0092 -0.2294
 8453W        W24070   5.837   5.609  13.458  0.1800  0.0132 -0.1993
 8454W        W24071  17.301   1.322  15.703 -0.0504 -0.4161 -0.1718
 8455W        W24072   8.649   4.115  13.634  0.1151 -0.1661 -0.0939
 8456W        W24073   4.178  16.217   5.840 -0.1453  0.1414  0.0702
 8457W        W24074   2.719   3.178  11.030 -0.0116  0.0472 -0.2202
 8458W        W24075   8.157   5.671  12.366  0.1021 -0.1568 -0.2453
 8459W        W24076  14.744   0.660   4.437 -0.0618  0.2339  0.0754
 8460W        W24077  10.797   5.939   2.918 -0.0799 -0.1910 -0.0562
 8461W        W24078   8.556   8.811  14.519 -0.0440  0.0797  0.2198
 8462W        W24079   3.585  13.597   4.012  0.2365 -0.2403  0.4370
 8463W        W24080   2.973  10.765   2.875  0.2391 -0.2804 -0.4088
 8464W        W24081   2.330   9.187   2.793 -0.0894 -0.0625  0.4959
 8465W        W24082   8.581  13.766  16.120 -0.0795 -0.1806  0.1291
 8466W        W24083   5.382  16.656   2.344 -0.2539  0.0222 -0.3670
 8467W        W24084   3.800  13.237  13.774  0.2984  0.0165  0.3493
 8468W        W24085  14.929   2.556  15.075  0.0958 -0.1861 -0.0845
 8469W        W24086  17.954   5.037  11.468 -0.2395 -0.0262  0.0934
 8470W        W24087   6.642   7.373   1.466  0.2178 -0.1157  0.1967
 8471W        W24088   5.622   5.948  11.542 -0.1468 -0.1011 -0.2179
 8472W        W24089   6.348   8.513   3.061  0.0879  0.1297 -0.2734
 8473W        W24090  12.555  14.874   0.352 -0.0121  0.3192 -0.1406
 8474W        W24091  13.630  15.458  12.852 -0.0661  0.0573  0.0780
 8475W        W24092  14.228  12.800  11.635 -0.1808 -0.0532  0.3291
 8476W        W24093  11.517   6.262   2.483  0.0935 -0.0735  0.0038
 8477W        W24094   1.641  11.194  11.114  0.0504 -0.1542 -0.3347
 8478W        W24095  13.498   7.385   0.223  0.1616 -0.2525  0.0520
 8479W        W24096   2.875  15.992   2.751  0.2459  0.0375  0.4896
 8480W        W24097   9.339   2.513   0.326  0.0563 -0.0756  0.0225
 8481W        W24098  10.734  16.166  13.628 -0.1606 -0.0857 -0.0905
 8482W        W24099   5.968   6.445   1.074  0.0200 -0.0936  0.0329
 8483W        W24100   9.571  12.323  11.964  0.0515  0.0256  0.1680
 8484W        W24101  17.748  12.267   3.510  0.1281 -0.1471  0.3141
 8485W        W24102   2.714   4.571   1.519  0.0024 -0.1393  0.1582
 8486W        W24103  11.352   3.060  11.026 -0.2778  0.2680 -0.0104
 8487W        W24104  17.134  16.303  12.799  0.3962 -0.3381  0.0766
 8488W        W24105   8.909   5.347   3.998  0.1316  0.3255  0.0042
 8489W        W24106  11.708  17.358   2.840  0.1306  0.1897  0.2710
 8490W        W24107  10.946  14.989   5.905 -0.1144  0.2332  0.0843
 8491W        W24108  15.611   1.997   2.278  0.3012 -0.0058  0.0428
 8492W        W24109   2.253   8.621   4.243  0.0352  0.2411 -0.1720
 8493W        W24110   7.473   0.490   1.787  0.3365 -0.1729 -0.0968
 8494W        W24111   6.759  15.071  15.471  0.0749 -0.0247 -0.0113
 8495W        W24112  10.373   9.031  11.329 -0.1911  0.1599 -0.2692
 8496W        W24113  13.309   3.573   2.600 -0.3188  0.1075 -0.2176
 8497W        W24114   2.784  12.810   2.444  0.0255  0.1386  0.0243
 8498W        W24115  12.788   8.286  14.001 -0.2755  0.3141  0.2289
 8499W        W24116  13.012   2.312  11.510 -0.2733  0.2667 -0.2163
 8500W        W24117   1.392   4.481  11.249  0.0143  0.0438 -0.1506
 8501W        W24118   1.647  14.222   1.626 -0.2585 -0.0410 -0.2872
 8502W        W24119   9.840   9.693   3.192 -0.0712  0.0904  0.1123
 8503W        W24120  14.163   3.982  13.573 -0.2343 -0.0095  0.2123
 8504W        W24121  16.270  13.176   0.205  0.2091 -0.0595  0.1050
 8505W        W24122   4.677  13.545   3.298 -0.1747 -0.0041  0.1429
 8506W        W24123   8.925   3.084   0.872 -0.2170  0.0266  0.1648
 8507W        W24124  12.004   5.079   1.245  0.0508  0.2295  0.0333
 8508W        W24125   2.334  14.035  12.962  0.4535 -0.0726  0.3195
 8509W        W24126   7.323  11.864  16.020 -0.0799 -0.0336 -0.2897
 8510W        W24127   5.920   9.756  14.937 -0.0215 -0.0883 -0.1570
 8511W        W24128   2.543   8.953  11.724 -0.1852  0.1566 -0.5173
 8512W        W24129   9.749   4.606  13.524 -0.1172 -0.2260 -0.1033
 8513W        W24130  14.010   1.001   4.863 -0.1189  0.1572  0.2378
 8514W        W24131  16.215   7.576  12.622  0.1695 -0.0368  0.2640
 8515W        W24132  15.225  18.310   1.175  0.1252 -0.1735 -0.0201
 8516W        W24133   1.745   1.678   5.250 -0.1766  0.2193  0.0181
 8517W        W24134   8.537   1.203  13.644  0.1043 -0.0712 -0.0197
 8518W        W24135   8.245  12.425  13.523 -0.2753 -0.1320  0.2352
 8519W        W24136   0.088   1.636  16.127 -0.0964 -0.0099  0.1648
 8520W        W24137   4.497   8.211   0.732 -0.0802  0.0278 -0.0180
 8521W        W24138   5.858   4.626  11.716 -0.2925  0.0055  0.0749
 8522W        W24139   2.891   6.157   5.177 -0.3056  0.2194 -0.0680
 8523W        W24140   9.965   9.203   3.282  0.1400 -0.0955  0.0280
 8524W        W24141  11.969   6.724  10.802 -0.3348 -0.1429 -0.2455
 8525W        W24142  12.553  10.951   5.075 -0.1212 -0.2996 -0.4149
 8526W        W24143   9.409  12.868  16.004  0.2567  0.0491  0.1615
 8527W        W24144   0.427   8.304   1.034 -0.2734  0.3265 -0.0166
 8528W        W24145  16.526   5.962   1.229 -0.1141  0.0823  0.2091
 8529W        W24146   9.877  11.890   1.337  0.3416  0.2018 -0.1702
 8530W        W24147   8.248   8.506   2.438  0.0190  0.1022  0.1816
 8531W        W24148   3.816   8.831  14.118  0.0611  0.1134 -0.0814
 8532W        W24149  16.317  10.364  13.360  0.1347 -0.1892 -0.0111
 8533W        W24150  18.275   2.744   3.213 -0.1838  0.0466 -0.2224
 8534W        W24151   0.866   5.355  15.301  0.1215 -0.2603  0.1088
 8535W        W24152  10.846   0.240   2.914  0.0770  0.1895  0.1990
 8536W        W24153   8.585   6.530   3.382  0.0866 -0.1194  0.1339
 8537W        W24154   1.572   0.512  14.934  0.0483 -0.2027  0.2443
 8538W        W24155  13.524   3.157  16.139  0.0590  0.1775 -0.1933
 8539W        W24156  12.983  13.895  11.080 -0.3524  0.2254 -0.1286
 8540W        W24157   4.257   3.761  13.182  0.3428 -0.5866  0.0426
 8541W        W24158   9.808  17.768  14.451 -0.0447  0.1565  0.2099
 8542W        W24159   6.587  15.820  11.267  0.0489  0.2211  0.0771
 8543W        W24160   9.148   2.063   0.603 -0.2032 -0.1019 -0.2915
 8544W        W24161   7.103   4.126   1.949  0.1416 -0.0888  0.0401
 8545W        W24162  12.324   8.596   4.392  0.0228 -0.1041  0.2786
 8546W        W24163   2.470  13.553  15.732  0.2587  0.1753  0.1684
 8547W        W24164  17.036  12.399   0.264 -0.1353 -0.3513  0.0625
 8548W        W24165   9.674   0.469  14.817 -0.0822  0.1864 -0.1825
 8549W        W24166   0.105  14.684   4.639 -0.0013 -0.2529 -0.1288
 8550W        W24167  17.926  11.813   0.924  0.2596  0.0990 -0.2082
 8551W        W24168   1.189  15.705   3.871 -0.0020 -0.0649 -0.3916
 8552W        W24169  11.115  14.522   0.653 -0.0944  0.2513 -0.0250
 8553W        W24170   5.855   4.710   0.892  0.0051  0.3081 -0.0503
 8554W        W24171   5.009  16.550  12.023 -0.2321  0.1645 -0.0339
 8555W        W24172   9.466  14.040  10.715  0.2535  0.0909 -0.0513
 8556W        W24173   1.034  17.284   5.742 -0.2801 -0.2541  0.0639
 8557W        W24174  11.876   1.534  13.926  0.1094 -0.0816  0.1201
 8558W        W24175   3.245  18.095   1.316  0.0866  0.2006  0.0503
 8559W        W24176   6.772  13.369  14.005  0.3309  0.0227  0.1697
 8560W        W24177   3.870  16.790  13.271  0.0765 -0.0908  0.1160
 8561W        W24178   1.246  10.991   9.879  0.0819 -0.1287 -0.0127
 8562W        W24179   9.181  10.492   1.338  0.0065 -0.2829  0.0157
 8563W        W24180   2.731   2.153  13.852  0.0589  0.2018  0.0655
 8564W        W24181  17.376  17.675  13.284 -0.1045 -0.1452  0.0175
 8565W        W24182  12.553   1.000  13.433 -0.0037  0.0038  0.1754
 8566W        W24183   5.794   2.332   1.272 -0.2951 -0.1251  0.0760
 8567W        W24184  14.266   7.925   1.682 -0.4253 -0.0435 -0.1175
 8568W        W24185   7.376  16.286  15.566 -0.0166  0.3467  0.1334
 8569W        W24186   7.602   9.425  15.818  0.1749 -0.1715  0.0092
 8570W        W24187  13.367  17.975   3.652  0.2502 -0.3706 -0.0194
 8571W        W24188   7.903   0.682   0.556  0.0912 -0.1032  0.1245
 8572W        W24189  14.384  11.426  10.985  0.0803 -0.0364  0.0542
 8573W        W24190  17.544  15.497   4.580  0.0995 -0.2526  0.2380
 8574W        W24191  11.983  11.073  15.658 -0.0009 -0.3716  0.2253
 8575W        W24192  14.536  17.796  14.108 -0.0516 -0.1323  0.0335
 8576W        W24193   4.288   7.306   0.998 -0.3386  0.1583 -0.0269
 8577W        W24194  14.111  15.815   4.015  0.1140 -0.0343 -0.2873
 8578W        W24195   4.211  15.601   0.004 -0.0240 -0.1957 -0.4340
 8579W        W24196   2.718   8.427  11.842  0.0700  0.0754 -0.0026
 8580W        W24197  13.964   5.551  10.695  0.1571 -0.1094  0.1009
 8581W        W24198   3.784   2.076   3.698 -0.0214 -0.0633 -0.1990
 8582W        W24199  15.611  13.781  13.908 -0.0333  0.1692  0.1075
 8583W        W24200  17.350  14.659  15.153 -0.0444  0.0003 -0.1226
 8584W        W24201  15.535   0.497  14.532 -0.0437 -0.2634 -0.1454
 8585W        W24202  11.941   2.081   4.564  0.0910  0.0454 -0.1315
 8586W        W24203   1.560   3.994  11.328  0.0117 -0.1146  0.2520
 8587W        W24204   7.618  17.419  13.329 -0.2703 -0.2731  0.0732
 8588W        W24205   4.843  11.654  12.915 -0.2753  0.0893 -0.1852
 8589W        W24206  12.156  10.693  12.331  0.1742  0.0769  0.0226
 8590W        W24207   8.853  18.302   0.090 -0.2172  0.0324 -0.0640
 8591W        W24208   6.137  14.605   2.104  0.0010  0.0457 -0.0295
 8592W        W24209  12.197  13.849   5.151  0.1435  0.1101 -0.1061
 8593W        W24210  17.291  12.914   0.540  0.1461 -0.2323 -0.1359
 8594W        W24211   2.227   1.690  11.512  0.4170 -0.0418 -0.0636
 8595W        W24212   0.551   4.848  14.148 -0.0137 -0.2542 -0.0331
 8596W        W24213   0.840   6.116  13.642 -0.1409 -0.2939 -0.0169
 8597W        W24214   2.452  17.448  13.573  0.1345 -0.2508 -0.1092
 8598W        W24215   7.677  14.746  11.725  0.1881  0.2309  0.2049
 8599W        W24216  13.122  10.719   6.315 -0.3878 -0.2514  0.1872
 8600W        W24217   0.301   1.925   1.505 -0.0737  0.1714  0.0996
 8601W        W24218   4.976  15.463  15.042  0.2752 -0.0262  0.0687
 8602W        W24219   8.595  10.345   1.541  0.3038  0.2020  0.1015
 8603W        W24220   0.226  18.172   2.472 -0.0348  0.2699  0.1647
 8604W        W24221  16.706   6.540  11.693 -0.1565 -0.1270  0.0109
 8605W        W24222   6.569   8.443  13.874 -0.0034  0.0358 -0.2618
 8606W        W24223   0.343   0.081   2.005 -0.0156  0.0491 -0.2529
 8607W        W24224  11.377  11.486   0.642  0.1718 -0.0464 -0.1261
 8608W        W24225  14.777  14.006   5.110 -0.3059  0.0311  0.0854
 8609W        W24226  16.699   5.738  13.712  0.0965 -0.0584  0.2673
 8610W        W24227  16.282  11.378  16.032 -0.1615 -0.2573  0.2038
 8611W        W24228   0.471   1.272   0.081  0.3368 -0.2376 -0.0987
 8612W        W24229   5.590  13.147  12.038 -0.1749 -0.4139  0.3650
 8613W        W24230   8.161   7.600  12.404 -0.0533 -0.0982 -0.2111
 8614W        W24231  15.671  12.783   1.178 -0.2091  0.1137 -0.3602
 8615W        W24232  14.044  17.113  10.767  0.2775  0.2997  0.0823
 8616W        W24233   6.775   3.603  11.488 -0.0584  0.1906  0.0235
 8617W        W24234   5.791  14.254  14.812  0.0388 -0.1276 -0.1094
 8618W        W24235   4.994  10.395  11.698  0.0663 -0.1578  0.0049
 8619W        W24236  12.969  13.138  14.554 -0.0830 -0.4058 -0.3247
 8620W        W24237  10.941   6.621  11.689  0.2475  0.1885 -0.0119
 8621W        W24238   8.854  10.039   0.181  0.0442 -0.1948 -0.0403
 8622W        W24239  11.490   1.808   0.656  0.1401  0.2303  0.1791
 8623W        W24240   6.035  16.643   1.796  0.3946  0.3128  0.1370
 8624W        W24241   1.291  16.486  14.561 -0.1420  0.0935  0.0874
 8625W        W24242  16.368   8.519   4.491  0.2719 -0.2335 -0.0700
 8626W        W24243   7.498   2.873  12.233 -0.0794 -0.0616 -0.1426
 8627W        W24244   8.423   2.059   1.643 -0.1854  0.1033 -0.2174
 8628W        W24245   2.104  10.012   2.334 -0.0610  0.2340 -0.4639
 8629W        W24246   4.016   7.160  12.807  0.2612 -0.1343 -0.2680
 8630W        W24247   7.054  16.549   2.997  0.0420 -0.1172  0.0026
 8631W        W24248   3.954   1.662  13.555  0.1965 -0.0932  0.0535
 8632W        W24249   4.108   2.399  12.522  0.2417 -0.0724  0.0494
 8633W        W24250   4.405  13.964   1.712 -0.1596  0.0518 -0.3441
 8634W        W24251   1.043   5.911  15.384  0.1336 -0.2910 -0.0661
 8635W        W24252  10.641  11.111  14.104 -0.3018 -0.1751 -0.2001
 8636W        W24253  14.719   4.504  14.743 -0.0946  0.1964 -0.3614
 8637W        W24254   6.782   5.098   1.832  0.0536 -0.2820 -0.0158
 8638W        W24255   1.610   2.534   0.548 -0.1809  0.1502  0.2120
 8639W        W24256  16.643   8.004  11.445 -0.0498 -0.0495 -0.1188
 8640W        W24257   7.586  14.372  13.121 -0.2881  0.1454 -0.1700
 8641W        W24258   5.952  11.470   2.598 -0.1843  0.4213  0.1399
 8642W        W24259  18.155  10.771  15.145  0.1822  0.3542  0.1516
 8643W        W24260   1.156  12.102   2.846 -0.1088 -0.1312  0.0842
 8644W        W24261   7.595   2.160  15.636 -0.1902  0.0342 -0.1785
 8645W        W24262  13.185  13.520  13.342 -0.0756 -0.0389 -0.2542
 8646W        W24263  17.570   2.154  12.339 -0.2165 -0.3957 -0.2041
 8647W        W24264  16.302  14.785   2.544 -0.0278  0.0485 -0.1509
 8648W        W24265  10.780   3.401  14.779 -0.2062  0.2084 -0.0485
 8649W        W24266  17.134  13.963  14.657 -0.6430 -0.1600  0.1996
 8650W        W24267   5.903   1.702  11.380  0.1939 -0.0527 -0.0363
 8651W        W24268  10.161   3.964   3.715  0.0502  0.4289  0.3494
 8652W        W24269   3.675   3.616   1.236  0.1753  0.1290  0.2855
 8653W        W24270  10.523  16.642   3.013  0.0762 -0.3030  0.1486
 8654W        W24271  12.626  14.650  11.743  0.0286 -0.1620 -0.1688
 8655W        W24272  17.940  17.467   0.853 -0.6669 -0.3936  0.2272
 8656W        W24273   7.589  15.685   0.015  0.0182 -0.0827 -0.0514
 8657W        W24274   3.737  15.193  11.978 -0.0969 -0.1452 -0.3319
 8658W        W24275   1.207   7.016  12.447  0.1197 -0.0781 -0.1309
 8659W        W24276   7.695  16.766   4.823 -0.0724 -0.0708 -0.1949
 8660W        W24277  15.262  14.977   4.212 -0.3004  0.2547 -0.3939
 8661W        W24278   5.866   4.853   0.429 -0.1487 -0.2510  0.0107
 8662W        W24279   2.257  17.457   0.760  0.3090  0.0226 -0.2121
 8663W        W24280  12.375   9.087   2.399 -0.0519 -0.0337 -0.3864
 8664W        W24281  16.550   2.251   4.399 -0.0045 -0.1936 -0.3132
 8665W        W24282  12.896   4.578   1.262  0.2000  0.0713  0.2799
 8666W        W24283   9.351  10.584   2.201 -0.1475  0.0722  0.3745
 8667W        W24284  17.943  16.735  12.257  0.1884 -0.0378  0.0567
 8668W        W24285  17.878   0.946  14.430 -0.0074  0.3711 -0.4877
 8669W        W24286  10.250   6.496  13.268  0.2328  0.2951 -0.0931
 8670W        W24287   9.074   2.694  14.583  0.0805  0.3560  0.0438
 8671W        W24288   1.754  11.086  15.953 -0.0938 -0.0059  0.1206
 8672W        W24289   2.782  13.526   3.500 -0.0420  0.0314 -0.1319
 8673W        W24290   0.996   9.419  14.058  0.0799  0.1201  0.1579
 8674W        W24291   1.393  13.368  13.243  0.3085  0.0861  0.1958
 8675W        W24292  13.326  16.945   3.647  0.0699 -0.0144  0.4943
 8676W        W24293  16.172  12.642   0.209  0.0655  0.3479  0.1880
 8677W        W24294  11.689   2.692  14.149 -0.0777 -0.0070 -0.2170
 8678W        W24295   4.335   8.262   0.268  0.1727  0.1466  0.1445
 8679W        W24296  12.492  16.594   1.123 -0.0851 -0.0724 -0.2104
 8680W        W24297  16.882  17.795  13.256 -0.2448  0.1744  0.0006
 8681W        W24298  18.224  15.643  12.444 -0.0401  0.1666 -0.2416
 8682W        W24299   7.189  17.874  13.886  0.0875 -0.1710  0.1608
 8683W        W24300   5.815  16.128  15.819 -0.1976  0.0776 -0.2658
 8684W        W24301   5.435   2.742   1.349  0.0997 -0.0478  0.1956
 8685W        W24302   6.087   2.816  13.107  0.3237  0.0824 -0.0998
 8686W        W24303  10.476   9.519   4.548 -0.1684 -0.2463  0.4248
 8687W        W24304   8.150  16.661  14.539 -0.1617  0.0391 -0.2538
 8688W        W24305  17.636   0.352   3.874  0.1491  0.0635  0.1805
 8689W        W24306  11.660   1.144   0.570  0.4605  0.0444 -0.0458
 8690W        W24307  10.239   5.763   3.723  0.0952 -0.0976  0.0381
 8691W        W24308  16.154   5.544  15.958  0.5489  0.0513 -0.0191
 8692W        W24309  10.830  10.286   2.382  0.0162  0.1042  0.1865
 8693W        W24310   3.396  18.046   6.650  0.1676  0.0551 -0.1929
 8694W        W24311   6.058  18.449  12.646 -0.1793  0.0698  0.1941
 8695W        W24312   2.803   8.596  14.597 -0.1366 -0.3099 -0.2192
 8696W        W24313  14.856   8.569   3.151 -0.0069  0.1562 -0.2327
 8697W        W24314  16.441  11.683   2.812 -0.2832  0.1291  0.1320
 8698W        W24315  14.221   2.238  14.877 -0.2572  0.3255  0.2988
 8699W        W24316  15.685   3.810   2.479  0.1197 -0.3222 -0.1089
 8700W        W24317  16.514  15.041  14.898 -0.0423  0.4931 -0.2236
 8701W        W24318  13.441   1.664  12.184 -0.2208 -0.0494 -0.0972
 8702W        W24319  15.853  13.763   0.951 -0.0564  0.0327  0.2049
 8703W        W24320   0.046   8.059  15.692  0.3372  0.0415 -0.1181
 8704W        W24321  16.875  11.916   6.213  0.0073 -0.1804  0.3960
 8705W        W24322   9.893  14.421  10.775  0.3313 -0.0433  0.0895
 8706W        W24323  17.403   8.277  12.350 -0.1641 -0.2636 -0.2553
 8707W        W24324   8.786  11.870   2.692 -0.0004 -0.1256 -0.1159
 8708W        W24325   9.710   6.641  13.236  0.1814  0.0022  0.3644
 8709W        W24326   3.418   1.862  11.432  0.0525 -0.0010 -0.1272
 8710W        W24327   3.848   2.164  15.304 -0.1528  0.0699  0.1199
 8711W        W24328   3.448  13.540   5.447 -0.0019  0.1716  0.4055
 8712W        W24329  12.801  10.917  13.060  0.1537  0.1280  0.0361
 8713W        W24330   2.715   7.525  12.852 -0.0196 -0.0834  0.0914
 8714W        W24331   4.313  15.717  14.626 -0.2710 -0.0162 -0.0193
 8715W        W24332   5.932   0.202  13.743 -0.1725 -0.1515  0.2924
 8716W        W24333  15.664   5.172   0.646  0.0068 -0.0096 -0.1015
 8717W        W24334  12.992  16.938   1.162  0.1647  0.0311 -0.1518
 8718W        W24335   1.227   7.975  13.275  0.1721 -0.1549 -0.0868
 8719W        W24336  15.876   4.638   1.089 -0.4460 -0.2648  0.0115
 8720W        W24337   1.316  11.792  11.904 -0.0801 -0.1438  0.3478
 8721W        W24338   0.759   8.034   2.969 -0.0654 -0.0751 -0.0945
 8722W        W24339   8.895   9.474   4.767 -0.0744 -0.1832 -0.2334
 8723W        W24340  14.641  17.452   0.795 -0.1528 -0.0405 -0.2530
 8724W        W24341  16.146  12.160   2.573  0.0646  0.2759  0.0851
 8725W        W24342  12.429  12.765   2.621 -0.0780 -0.0642  0.0695
 8726W        W24343   0.536  13.091  14.716  0.1275 -0.1772  0.0679
 8727W        W24344  15.277   8.878  12.308 -0.2314  0.0601 -0.0886
 8728W        W24345   9.327  17.335   1.595 -0.3108 -0.0454 -0.0060
 8729W        W24346  16.178  17.750   1.958  0.1668  0.1182  0.0064
 8730W        W24347  13.980   5.409   2.748 -0.2820 -0.2847  0.1554
 8731W        W24348  15.736  13.678  13.358  0.2400 -0.3043 -0.1950
 8732W        W24349  11.502   5.856  11.570 -0.2596 -0.0029  0.1364
 8733W        W24350   2.325  12.565   0.218  0.0903  0.2522  0.0618
 8734W        W24351  17.495   2.435  15.226 -0.2451 -0.0573 -0.6430
 8735W        W24352  14.406  12.948  14.298  0.2137 -0.1224 -0.0040
 8736W        W24353   8.338   6.973  15.487  0.4765  0.1138  0.0882
 8737W        W24354  15.910  13.581   3.600  0.1776 -0.0352 -0.2943
 8738W        W24355  10.570   0.834  12.668 -0.3139  0.0025 -0.2465
 8739W        W24356   3.734   9.115   0.617  0.0475  0.1194 -0.6006
 8740W        W24357   7.568   0.961   4.452  0.0902  0.0979 -0.1502
 8741W        W24358  10.401   4.461   4.542  0.2132 -0.1187 -0.4937
 8742W        W24359  10.249   6.359  12.364 -0.3759  0.2516  0.2503
 8743W        W24360   4.616  15.020   6.435  0.0399  0.0671 -0.1339
 8744W        W24361  16.813  11.984   0.709 -0.1564  0.3134 -0.4107
 8745W        W24362   0.317  14.519  11.827 -0.0067  0.3630  0.1937
 8746W        W24363   5.409  15.417   4.929  0.1836  0.0178 -0.2457
 8747W        W24364   7.598   5.781  11.080  0.0321 -0.2594 -0.1960
 8748W        W24365  18.206  10.017   0.541  0.0601  0.1030  0.0073
 8749W        W24366  16.420   5.621   4.579 -0.0493  0.0561 -0.2464
 8750W        W24367   8.857   7.517  12.145  0.0279 -0.2877 -0.1768
 8751W        W24368   2.586   5.141   0.860 -0.0087  0.2509  0.0800
 8752W        W24369  17.992   9.417   5.169  0.3281  0.0978 -0.0957
 8753W        W24370   5.783  12.543  14.586 -0.2206 -0.1795 -0.2980
 8754W        W24371   4.941   5.996  16.014  0.3997 -0.1416 -0.2024
 8755W        W24372   7.965   6.972  11.820  0.0067 -0.0548  0.0111
 8756W        W24373   3.362   3.789   2.566  0.3326 -0.0259  0.0683
 8757W        W24374  13.360  17.903   4.741 -0.0688 -0.1723  0.0025
 8758W        W24375  11.496  10.501   0.466  0.1707  0.2122 -0.1310
 8759W        W24376  14.740  16.281   3.123  0.1347 -0.2300  0.1834
 8760W        W24377  16.073   9.666  15.663  0.1536 -0.0154 -0.0657
 8761W        W24378   5.862  12.476   0.747 -0.1222 -0.0708 -0.0845
 8762W        W24379  11.010   2.252  15.176  0.2348 -0.1655 -0.6952
 8763W        W24380  17.215  10.320  12.946 -0.4060  0.1372 -0.3140
 8764W        W24381   1.996  10.469   1.058  0.1306  0.0930 -0.2904
 8765W        W24382   1.670  13.805   3.437  0.0309  0.0330  0.2348
 8766W        W24383  11.365  17.395  14.715 -0.0393  0.1583 -0.0018
 8767W        W24384  11.104  17.634  11.303 -0.3548 -0.1421 -0.2707
 8768W        W24385  15.522   6.654   2.812  0.2312 -0.0406  0.5407
 8769W        W24386   7.839   9.511   5.067  0.1423 -0.1703 -0.4339
 8770W        W24387  16.850  16.210   0.171  0.0400 -0.1362  0.1019
 8771W        W24388   6.069   4.796  12.298  0.1197  0.2222  0.0161
 8772W        W24389   3.313   6.383   3.948  0.0529  0.1246  0.0000
 8773W        W24390  12.196  11.222   5.268  0.0424 -0.0854 -0.0744
 8774W        W24391   7.580   5.748  13.516  0.0368  0.1585  0.2854
 8775W        W24392  12.571  13.639   3.218  0.1438  0.1024  0.0708
 8776W        W24393  15.276   9.142   2.841 -0.0512  0.4046  0.1516
 8777W        W24394   8.866  10.350  13.943 -0.0886 -0.1268 -0.0326
 8778W        W24395   9.812   2.970  13.329  0.3173  0.0185  0.0002
 8779W        W24396   7.353   3.127  12.658  0.0087 -0.0669 -0.0524
 8780W        W24397  12.593  11.092   5.604  0.2887  0.1642  0.2156
 8781W        W24398   7.006   0.446   1.149 -0.1724 -0.3773 -0.0080
 8782W        W24399   4.817   3.780   1.242 -0.1877 -0.0821 -0.1235
 8783W        W24400  11.633  10.302  12.155 -0.0087  0.0934  0.0092
 8784W        W24401  10.255  12.968  14.112 -0.3481  0.0368  0.2768
 8785W        W24402  12.489  10.464   1.869 -0.2036 -0.0100  0.2014
 8786W        W24403  17.320  12.490   4.139 -0.1429  0.0500  0.1393
 8787W        W24404  10.006   1.640   0.752 -0.1820  0.0124  0.0170
 8788W        W24405   4.598   9.329  14.714 -0.0491  0.1589  0.2367
 8789W        W24406  16.029   2.318   3.553 -0.1147 -0.0196 -0.0574
 8790W        W24407  13.289   8.632   4.180  0.0298  0.1115 -0.1095
 8791W        W24408  17.251   5.665  14.997 -0.0990  0.2762  0.1126
 8792W        W24409  16.174   5.277   3.469  0.3075  0.0265  0.3255
 8793W        W24410  16.847   5.342  13.056  0.0758  0.0223 -0.0665
 8794W        W24411  15.386   8.529  11.863 -0.0215 -0.1643 -0.0656
 8795W        W24412  15.292   6.155  12.976 -0.0518 -0.0781  0.0473
 8796W        W24413  12.624  11.858  12.165  0.0283  0.2329  0.0549
 8797W        W24414   1.448   8.484   1.724  0.0903 -0.1750 -0.0404
 8798W        W24415  14.698  15.113   0.522  0.0219 -0.2343 -0.2097
 8799W        W24416  12.221   5.633  10.594  0.0376 -0.1807 -0.0431
 8800W        W24417  11.554   9.829  11.568  0.1440 -0.0547  0.0179
 8801W        W24418   2.744  17.176  13.989  0.0821 -0.0257  0.1251
 8802W        W24419  11.949  10.723   1.620  0.4202 -0.4116  0.2555
 8803W        W24420   3.799   6.170   2.803  0.4006  0.0195 -0.0898
 8804W        W24421   6.406  18.255  11.820 -0.5377 -0.0326 -0.0888
 8805W        W24422   2.025  13.046  13.690 -0.0232  0.4482  0.3316
 8806W        W24423   3.202  12.517   2.061  0.2287 -0.2396  0.1693
 8807W        W24424  12.910   3.366  12.352  0.2302 -0.1343  0.1704
 8808W        W24425   3.565  11.116  14.285  0.3602  0.0286  0.2130
 8809W        W24426  13.285  10.980   1.917 -0.2161 -0.4013  0.2553
 8810W        W24427   2.156  10.877  15.048  0.2026 -0.3379 -0.2664
 8811W        W24428  13.216  15.727  12.515 -0.2151 -0.0444 -0.1306
 8812W        W24429   6.387   8.878  10.015  0.3050  0.0941 -0.0557
 8813W        W24430   3.194   1.575  13.783 -0.0094  0.0239  0.1067
 8814W        W24431  15.172  10.449   0.985 -0.0855  0.3701  0.0093
 8815W        W24432   6.942   6.699   4.428  0.0963  0.2102 -0.1857
 8816W        W24433   4.074  18.180  11.626 -0.0893  0.3730 -0.1952
 8817W        W24434   9.438   2.573   3.890  0.0391  0.0767  0.3412
 8818W        W24435  16.218   0.793  16.089 -0.4146 -0.3467 -0.2995
 8819W        W24436   9.357   4.459  11.408 -0.1306 -0.1010  0.1479
 8820W        W24437   3.015   7.449   3.391 -0.0676  0.0411  0.1271
 8821W        W24438  12.882   5.625  13.599 -0.4679 -0.0921 -0.1070
 8822W        W24439   5.123   8.583   5.201 -0.2517 -0.1107  0.0209
 8823W        W24440   5.712   0.408  14.686 -0.0782 -0.0348  0.0166
 8824W        W24441   0.991  13.284   1.227  0.0602 -0.1388  0.1389
 8825W        W24442   4.328  14.503   2.520 -0.1972 -0.2496 -0.0407
 8826W        W24443   5.661   1.963   4.494  0.1764  0.1772  0.0171
 8827W        W24444   4.666  12.167   2.037 -0.2779 -0.0232 -0.0640
 8828W        W24445   1.999  12.785  12.346 -0.0906 -0.1423  0.1372
 8829W        W24446  13.919  12.277  12.564 -0.1211  0.2702  0.3234
 8830W        W24447  13.517  17.554   5.752  0.0559  0.2545  0.0639
 8831W        W24448  12.366   6.289   3.806 -0.0017 -0.0724  0.2142
 8832W        W24449   1.575  16.155  11.979  0.0525 -0.1840 -0.3744
 8833W        W24450   7.802   3.452   1.578  0.1389 -0.0466 -0.1600
 8834W        W24451  15.484  14.093  14.378  0.1148  0.2168 -0.2507
 8835W        W24452   3.168  17.820  12.877  0.1683  0.2200 -0.4950
 8836W        W24453  15.060   2.238  14.204 -0.1651 -0.3747  0.0967
 8837W        W24454   0.402   7.738  15.505 -0.1880  0.2403 -0.3755
 8838W        W24455  15.178   0.884   4.780  0.2000  0.0291  0.0884
 8839W        W24456  12.724  10.368   9.878  0.2655 -0.2372  0.2344
 8840W        W24457   7.116   5.341  15.175 -0.0897  0.4140 -0.0924
 8841W        W24458  16.888   6.900  13.609  0.1666  0.3939 -0.0358
 8842W        W24459   7.508  12.342   1.207  0.0369  0.0308  0.2744
 8843W        W24460   6.256   7.815  11.461 -0.0523 -0.0618 -0.3326
 8844W        W24461   7.810   9.583   2.938  0.1874  0.1114 -0.1676
 8845W        W24462  18.178   8.989  16.047 -0.0050  0.3422 -0.0251
 8846W        W24463   5.936  14.411  13.921  0.2631 -0.0839 -0.2042
 8847W        W24464   7.174  11.790  11.637  0.1446  0.0273  0.2081
 8848W        W24465  16.749   5.882   2.536  0.3229 -0.4445 -0.0655
 8849W        W24466  15.148   1.331   5.034  0.0028 -0.2605 -0.2525
 8850W        W24467   3.919  14.247  14.677  0.2657  0.0041  0.1889
 8851W        W24468  16.629   2.982  13.403  0.0907 -0.2772 -0.0182
 8852W        W24469  13.201   2.425   1.928 -0.0368  0.1765  0.3840
 8853W        W24470   4.635   3.882  14.330 -0.2941 -0.1663 -0.4308
 8854W        W24471  11.103   7.423   3.507 -0.0984  0.1469  0.1629
 8855W        W24472  10.456  10.851   0.283 -0.0490  0.2712 -0.2391
 8856W        W24473  12.620   8.038  12.248  0.2650 -0.2158  0.0248
 8857W        W24474   8.633  17.986   3.043 -0.0138 -0.1321  0.2467
 8858W        W24475  18.002   6.777  15.190 -0.4420 -0.0455 -0.1636
 8859W        W24476  12.809   2.738   3.477  0.0009 -0.0611  0.0463
 8860W        W24477   6.398  17.362   2.028 -0.2218  0.0749  0.0542
 8861W        W24478   0.280  16.238  12.521  0.4213  0.1833 -0.0744
 8862W        W24479   5.407  17.736  11.730  0.0017  0.0652  0.3308
 8863W        W24480   4.995   2.073  14.936 -0.0008 -0.1053 -0.0362
 8864W        W24481  15.000  14.587   2.365 -0.0760  0.2292  0.3406
 8865W        W24482  16.012  12.459   4.916  0.1467 -0.2897  0.1234
 8866W        W24483   5.165   9.111   5.147 -0.6089  0.2299  0.0591
 8867W        W24484   1.585  14.802  11.702 -0.0433 -0.1755  0.0826
 8868W        W24485  10.482   0.343  15.975  0.0206 -0.1962 -0.0916
 8869W        W24486   9.900   3.989   5.525 -0.1355 -0.0353 -0.1149
 8870W        W24487  16.509   7.462   3.005  0.2945  0.0359  0.2399
 8871W        W24488   7.301   8.824  12.347  0.0378 -0.3214 -0.3923
 8872W        W24489   2.435  14.751  15.212 -0.1163  0.2057 -0.1327
 8873W        W24490  13.038  10.633  13.891  0.1032  0.1171  0.0611
 8874W        W24491   8.860   3.578   4.050  0.1131  0.1049 -0.2552
 8875W        W24492  14.858  15.322   0.008 -0.2721 -0.0527  0.1603
 8876W        W24493  16.884  13.808  11.762 -0.1892 -0.2844 -0.0730
 8877W        W24494  12.762   8.767   1.320  0.0769 -0.1281 -0.0987
 8878W        W24495   5.869  17.652   1.805 -0.0034 -0.1073 -0.2334
 8879W        W24496   1.918  15.159  11.971  0.2200 -0.0065  0.1405
 8880W        W24497   3.532   8.970  10.818  0.0278  0.0153  0.2234
 8881W        W24498   2.805  11.496   5.206 -0.1651  0.1820  0.0813
 8882W        W24499   1.949   1.337   0.571 -0.0058  0.1014 -0.1455
 8883W        W24500   2.840  12.478  15.708  0.0705  0.2477 -0.0087
 8884W        W24501  11.555  16.480  11.921  0.0957 -0.0558  0.1479
 8885W        W24502  11.955   4.961  13.095 -0.1150  0.2373  0.0835
 8886W        W24503   3.904   3.628  11.580 -0.0668 -0.0226 -0.3740
 8887W        W24504   5.569  11.222   2.401 -0.1039 -0.0902  0.1847
 8888W        W24505  12.754  12.394   0.707  0.1469 -0.0597 -0.0245
 8889W        W24506   6.558  11.669   3.343  0.2895  0.2715  0.1693
 8890W        W24507   0.854   0.377   2.776  0.0655  0.1874  0.1736
 8891W        W24508   3.786   1.550   0.650  0.0282 -0.0247  0.1510
 8892W        W24509  14.846  10.785  13.770  0.1862  0.2252 -0.2018
 8893W        W24510  10.499  13.685   4.595 -0.1343  0.0543 -0.0188
 8894W        W24511   4.199   8.817   0.444  0.1478  0.3067  0.1119
 8895W        W24512   1.704   0.982   2.480 -0.2693  0.0903  0.1623
 8896W        W24513   0.884  12.793  14.960 -0.0443 -0.1366 -0.0161
 8897W        W24514   4.392   0.733  12.378 -0.0132  0.1692  0.1107
 8898W        W24515  14.279  14.700  14.527 -0.1059  0.0340 -0.0631
 8899W        W24516   6.048   3.868   2.076  0.2553 -0.0030 -0.1413
 8900W        W24517   0.024  10.144   4.611  0.2445  0.0567 -0.0581
 8901W        W24518   4.076  10.883  12.627 -0.1334 -0.0241  0.0668
 8902W        W24519   1.482   7.048  10.960 -0.4411 -0.0804 -0.0542
 8903W        W24520  11.866  14.539  12.170  0.1708  0.1166 -0.3011
 8904W        W24521   7.108   1.875  11.476  0.1669  0.0449  0.0550
 8905W        W24522   0.438   7.300  10.343  0.4399 -0.1698 -0.0793
 8906W        W24523   5.125   2.010  11.230  0.0015 -0.1429  0.0718
 8907W        W24524  11.486   2.529  11.845 -0.1142 -0.1095 -0.1235
 8908W        W24525   7.278   3.752   3.205  0.0292 -0.2119  0.2117
 8909W        W24526   5.225  14.960   2.138  0.1351 -0.1806  0.1709
 8910W        W24527  10.616   8.493  15.248 -0.0922 -0.2030  0.2177
 8911W        W24528  12.023   8.388   2.263  0.2718  0.1326 -0.0732
 8912W        W24529  11.348   9.449  12.627  0.2329  0.1338 -0.1167
 8913W        W24530   8.269  10.619   1.212 -0.0711 -0.1909 -0.1950
 8914W        W24531   3.529   6.744  12.252 -0.1937  0.1904 -0.1623
 8915W        W24532  16.995   1.286  14.463 -0.0067  0.0397  0.0009
 8916W        W24533  10.878  16.819   2.120 -0.2102  0.2299  0.0496
 8917W        W24534   5.340   4.520   1.537  0.0459 -0.1710  0.2761
 8918W        W24535  17.694   4.210   0.904  0.0716  0.1948  0.1516
 8919W        W24536   6.686  16.345  12.882 -0.0743  0.3107  0.0085
 8920W        W24537  18.380   9.037  13.643 -0.2582  0.3463  0.1629
 8921W        W24538  16.937  15.172  14.749  0.1824 -0.1104  0.0993
 8922W        W24539   7.699  12.213   1.665  0.1500  0.1405 -0.2749
 8923W        W24540   2.519   3.026   2.997 -0.0770  0.0577  0.0109
 8924W        W24541  15.173   5.721  13.212 -0.0166 -0.2262  0.0887
 8925W        W24542   0.758  10.667   2.803 -0.0529 -0.2070 -0.0449
 8926W        W24543   6.148   1.572   0.299 -0.0438  0.0586  0.0487
 8927W        W24544  15.932  10.461   0.170  0.3779  0.2365  0.1175
 8928W        W24545   4.348  10.949  13.660 -0.0871  0.3146  0.0155
 8929W        W24546   2.124   5.762   2.907  0.0710  0.0264 -0.2073
 8930W        W24547   6.413   9.631   5.112 -0.3106 -0.1339  0.2140
 8931W        W24548   6.403   8.848  14.798 -0.2128  0.1793 -0.0313
 8932W        W24549  12.466   5.089  12.998 -0.4699 -0.4598  0.1224
 8933W        W24550  12.655   7.842   0.756 -0.1220 -0.0546 -0.1342
 8934W        W24551  16.304   0.828   2.702 -0.1461 -0.4051 -0.1177
 8935W        W24552   3.759   3.282   3.402 -0.0320 -0.1914 -0.0199
 8936W        W24553   8.019   0.933  11.408 -0.0800 -0.2052  0.0418
 8937W        W24554  10.445  11.623   2.127 -0.1421 -0.2387 -0.0263
 8938W        W24555   1.995   3.683   3.779 -0.0787 -0.0510  0.3106
 8939W        W24556  16.285   6.923   5.985  0.1204 -0.1449  0.1316
 8940W        W24557  16.956   9.069   1.386  0.0972 -0.0627  0.2815
 8941W        W24558  10.486   1.518  11.064  0.0214  0.1548 -0.1534
 8942W        W24559   7.627   1.004  14.092  0.0380  0.0086  0.2158
 8943W        W24560   0.262   9.814  12.846  0.0198  0.1906  0.0396
 8944W        W24561   5.103  15.072   4.973 -0.2822  0.0897  0.4493
 8945W        W24562  16.746   7.964  10.884 -0.1465 -0.2098  0.1184
 8946W        W24563  16.476   8.075  10.486 -0.0966  0.1083  0.0841
 8947W        W24564   8.637  11.739   1.671 -0.0557  0.0435 -0.2600
 8948W        W24565  17.517  16.762  13.073  0.1874 -0.1460  0.0739
 8949W        W24566   1.068  17.406   1.577  0.0409 -0.1382  0.0533
 8950W        W24567  13.075   5.863  14.883 -0.0212  0.1089  0.1319
 8951W        W24568   9.221  15.262  13.191  0.0504 -0.3174 -0.1447
 8952W        W24569   0.428  10.966  11.236 -0.1246  0.0090  0.0021
 8953W        W24570   0.071  12.057  12.431 -0.2820  0.1402 -0.3836
 8954W        W24571  14.222   6.839   3.623 -0.6012  0.0061  0.1055
 8955W        W24572   3.423   0.503  13.059  0.3529 -0.0545 -0.3784
 8956W        W24573  10.998  13.171  11.499  0.0747 -0.4462 -0.0323
 8957W        W24574   6.162   1.538  12.676 -0.0894 -0.0307 -0.2126
 8958W        W24575   8.490   8.710  11.858  0.2405  0.3127 -0.1739
 8959W        W24576  14.292   5.938  13.688  0.1997  0.1958 -0.0455
 8960W        W24577  10.993  14.855  13.681  0.1230 -0.0032  0.0792
 8961W        W24578  14.718   1.980  14.502  0.1144 -0.2531 -0.0388
 8962W        W24579   0.729   2.692  11.183 -0.1713 -0.2117 -0.1227
 8963W        W24580  12.539   7.088   3.907  0.0175 -0.1688 -0.1801
 8964W        W24581  16.807   5.055  14.318  0.4860  0.0562  0.1665
 8965W        W24582   2.786   7.182  13.646  0.1338  0.1482 -0.1787
 8966W        W24583   9.040  10.850   3.734 -0.1955 -0.1924 -0.1161
 8967W        W24584  13.691   6.565  15.270  0.1543 -0.3758  0.0200
 8968W        W24585  13.683   0.834  15.968  0.2495 -0.1227 -0.0105
 8969W        W24586  11.227   5.785   0.375  0.0917 -0.1259 -0.0477
 8970W        W24587   7.032  10.624   0.765 -0.0912  0.0524  0.1917
 8971W        W24588   7.009  16.074  13.203  0.0136  0.1156  0.1489
 8972W        W24589  12.418  11.341   2.299 -0.0977  0.1965 -0.0228
 8973W        W24590   5.975   5.908   5.368 -0.0468  0.1740  0.1802
 8974W        W24591  14.092  18.199   0.543 -0.2523  0.3391  0.1947
 8975W        W24592  16.268   6.933   5.442 -0.1117  0.0807 -0.1161
 8976W        W24593   5.015   4.804  12.895  0.0723 -0.0863  0.3444
 8977W        W24594  10.867  17.314   1.856  0.4069  0.1117 -0.4600
 8978W        W24595   0.271   1.209   2.639  0.0835 -0.0799 -0.1706
 8979W        W24596  13.661  15.419   4.719 -0.3226 -0.1972  0.1988
 8980W        W24597  10.504  11.602   3.785 -0.1250  0.4337 -0.0894
 8981W        W24598   7.129   6.164  13.717 -0.3228 -0.0711  0.0824
 8982W        W24599  17.287  15.762  12.599  0.0645  0.1441  0.0337
 8983W        W24600  17.634  17.305   1.778 -0.0711 -0.2757 -0.0214
 8984W        W24601  10.859  17.044   5.663 -0.2088 -0.1090  0.0581
 8985W        W24602   8.251  17.375  13.989  0.0740  0.3695 -0.1112
 8986W        W24603   9.433   1.839   4.977  0.1054  0.0176 -0.3527
 8987W        W24604  11.084  13.375   1.567 -0.0408  0.1509 -0.1444
 8988W        W24605   1.373   0.919   5.681 -0.2505  0.1747  0.1828
 8989W        W24606   2.531   0.916   1.779  0.0004 -0.1702 -0.4265
 8990W        W24607   3.953   0.890   3.007  0.1332 -0.2106  0.0265
 8991W        W24608   1.772   5.996  15.218 -0.0684 -0.0705 -0.0982
 8992W        W24609   3.179   4.482  14.575  0.0913  0.0314  0.3271
 8993W        W24610   4.867  12.327   3.640 -0.3657  0.0625  0.2669
 8994W        W24611  12.070   9.611  11.753  0.5376  0.1502 -0.0996
 8995W        W24612   5.757   9.205   5.228  0.2734  0.0262  0.0810
 8996W        W24613   0.779  15.336  15.209  0.3764  0.1226  0.1005
 8997W        W24614  11.478   1.886   2.262  0.0972  0.0429  0.0703
 8998W        W24615  18.348  10.317  12.234 -0.0544 -0.2126 -0.2101
 8999W        W24616  10.726  12.255  12.020  0.2681 -0.1717  0.1216
 9000W        W24617  15.887  12.420   3.946  0.1595  0.1139  0.1877
 9001W        W24618   0.854  15.632   1.818  0.1198  0.2736  0.1902
 9002W        W24619   3.480  18.405   4.636 -0.2504 -0.0238  0.2407
 9003W        W24620  12.130   2.640  13.174 -0.0375  0.3574 -0.0564
 9004W        W24621  11.489   9.308  14.867 -0.2403 -0.5100 -0.3195
 9005W        W24622  16.830  14.820   3.794  0.1069  0.2763  0.1872
 9006W        W24623  17.363  15.785  11.486 -0.1107 -0.2410 -0.2609
 9007W        W24624  14.481   2.313  11.552 -0.2494 -0.0814 -0.0386
 9008W        W24625  17.506  14.265   5.228 -0.0867  0.0859 -0.0167
 9009W        W24626  13.247  17.254  12.314  0.1333  0.1865 -0.1331
 9010W        W24627   0.123  14.940  11.559  0.0890  0.1422 -0.0106
 9011W        W24628  10.328   6.267  10.839  0.0957  0.0328  0.2863
 9012W        W24629  16.223   8.324   3.624  0.2268  0.4715  0.0942
 9013W        W24630  17.781  17.081   3.572  0.1884 -0.0504  0.1993
 9014W        W24631  14.833  15.467   3.016  0.2214 -0.1343  0.3803
 9015W        W24632   8.446   0.192   4.706  0.0048 -0.2569 -0.1224
 9016W        W24633   9.874   9.891   2.694  0.1594  0.1137  0.1082
 9017W        W24634   6.379   1.028   5.099  0.2479 -0.1111  0.1317
 9018W        W24635   5.127   9.363  12.889 -0.0347  0.2599  0.0794
 9019W        W24636   3.282   4.585  13.268 -0.1015 -0.2332  0.1665
 9020W        W24637   1.754   4.925  13.443  0.1904 -0.1077  0.0528
 9021W        W24638   9.460  12.507   2.321 -0.3212 -0.0759  0.1960
 9022W        W24639   7.638  10.927   0.063 -0.4064  0.1305  0.2218
 9023W        W24640   4.651  12.754   1.321  0.1941 -0.0584  0.0827
 9024W        W24641   0.433   8.639   5.897  0.0686  0.2280 -0.1300
 9025W        W24642   5.995   6.167  11.288  0.0667  0.1520  0.1989
 9026W        W24643   9.365  13.724  11.729 -0.0766  0.5827 -0.0526
 9027W        W24644   0.912   5.033   3.441 -0.2445 -0.0290 -0.2876
 9028W        W24645   8.422   1.292  12.312  0.1956 -0.0224 -0.0585
 9029W        W24646  17.383  11.330  13.717 -0.1273  0.0548  0.1424
 9030W        W24647   0.682   1.363  14.191  0.0323 -0.2412  0.1384
 9031W        W24648  17.009   4.207  11.875  0.1072  0.0018 -0.0663
 9032W        W24649  12.072   6.473  11.332  0.0736  0.0589  0.4138
 9033W        W24650   5.309  13.230  14.942  0.1904 -0.1872  0.0939
 9034W        W24651  18.319   2.523   1.098 -0.2327 -0.2242 -0.2111
 9035W        W24652   5.794  14.725  11.496  0.2194 -0.1202  0.0633
 9036W        W24653   5.755   5.914   2.717 -0.0455  0.2797 -0.2361
 9037W        W24654  10.675  13.166   0.507  0.0114 -0.0722 -0.1307
 9038W        W24655   6.338  10.543   2.446 -0.0909 -0.1093 -0.1437
 9039W        W24656   5.030   3.849  13.392  0.0973  0.0642  0.0799
 9040W        W24657   4.670  17.820  15.271 -0.1750  0.2778 -0.0030
 9041W        W24658   1.508   6.086   4.513  0.0639  0.0914  0.1216
 9042W        W24659  17.215   1.227  14.005  0.2058 -0.2309  0.0308
 9043W        W24660  18.022  11.809  13.506  0.2688 -0.2495  0.0220
 9044W        W24661  11.857   4.019  13.450 -0.1835 -0.0442 -0.2405
 9045W        W24662   5.519  18.209  14.580  0.0724  0.1198 -0.0949
 9046W        W24663   1.092  11.223   2.547  0.0087  0.3788 -0.1215
 9047W        W24664   0.269  10.727   1.593  0.1639 -0.2509  0.1882
 9048W        W24665   1.310   5.315   3.732  0.0532 -0.1952  0.3258
 9049W        W24666   5.482   8.828   5.489 -0.3825 -0.0544 -0.1503
 9050W        W24667  11.205  12.119   1.175  0.2180 -0.0698 -0.1412
 9051W        W24668   4.658  16.451   1.572 -0.1567 -0.0580 -0.0765
 9052W        W24669   8.481  13.033   1.741 -0.0176  0.5164  0.2906
 9053W        W24670   2.183   4.013  11.834 -0.0845 -0.0749  0.2754
 9054W        W24671   8.976   1.412   2.510  0.0126  0.1854 -0.1442
 9055W        W24672   0.237  15.731   1.235  0.3015  0.2927  0.2113
 9056W        W24673   4.973   1.681   5.370 -0.2883 -0.0678  0.1569
 9057W        W24674  15.352  15.688  13.697  0.1790  0.0473  0.1710
 9058W        W24675   0.678   8.332  12.375 -0.2720 -0.0576  0.2936
 9059W        W24676   9.962  14.465  14.530  0.1127  0.0621  0.1269
 9060W        W24677  15.884   8.700   0.707 -0.1939 -0.2413 -0.1665
 9061W        W24678   5.911  16.394   1.115  0.2958 -0.1457 -0.0098
 9062W        W24679  12.402  12.153  13.562 -0.0620  0.4007 -0.1220
 9063W        W24680  17.086   2.295   2.177 -0.3401 -0.0944 -0.0259
 9064W        W24681   8.545   2.692  12.311 -0.0789  0.2735 -0.1756
 9065W        W24682  16.460  17.059   3.313 -0.2561  0.2729 -0.1063
 9066W        W24683   4.464   5.881   0.993 -0.2386 -0.3700 -0.0711
 9067W        W24684  17.715  12.477   1.062  0.0155  0.1720 -0.1477
 9068W        W24685   0.414  14.537   2.139  0.0098  0.0639 -0.1212
 9069W        W24686   2.520  11.676  11.729  0.0693 -0.0446  0.0600
 9070W        W24687   0.123   2.135  15.920  0.2090  0.0537  0.1532
 9071W        W24688   0.968  16.184  11.871  0.0305 -0.2223 -0.0417
 9072W        W24689   2.015  16.438   3.564 -0.1000  0.1539  0.2280
 9073W        W24690  18.452  16.781   1.675 -0.0034 -0.0323  0.3536
 9074W        W24691  18.298  10.510   2.691 -0.1561  0.1916 -0.2817
 9075W        W24692  14.396   3.732   3.426 -0.1307  0.1601 -0.0861
 9076W        W24693  13.103  17.310  13.101 -0.0774 -0.2225  0.0989
 9077W        W24694  12.539   0.684  14.806 -0.0832 -0.1633  0.2367
 9078W        W24695  11.414  17.777  15.058  0.1711 -0.0060  0.0228
 9079W        W24696   0.106  14.160   1.603 -0.4700  0.2509  0.4022
 9080W        W24697  17.211   2.397   1.552 -0.0180  0.2622 -0.2763
 9081W        W24698  16.403  18.003   1.505  0.1327  0.2286 -0.1501
 9082W        W24699   2.204   8.824  10.155  0.2098  0.0815 -0.4620
 9083W        W24700   0.409  11.226   2.374 -0.0661  0.0645  0.0001
 9084W        W24701   1.285   3.534  15.476  0.0357  0.2713  0.0793
 9085W        W24702   1.760  17.389  15.371  0.2128  0.3008 -0.1755
 9086W        W24703   9.142  16.461   0.686 -0.2342  0.2757  0.1372
 9087W        W24704  13.407   6.168   9.498 -0.2610 -0.1019  0.1303
 9088W        W24705   7.386  13.682   1.407  0.1449  0.2501 -0.2209
 9089W        W24706   3.397   8.713  12.447  0.0776  0.1473 -0.1202
 9090W        W24707   5.958   2.262  14.554 -0.0241  0.1646 -0.0996
 9091W        W24708  17.280   6.550   2.937  0.0207 -0.0215  0.1104
 9092W        W24709  10.488  16.767   5.406 -0.1327  0.2161  0.1652
 9093W        W24710   1.034  17.973   5.472  0.3012 -0.1238  0.0203
 9094W        W24711   8.737   8.698  11.336 -0.1785  0.0341 -0.2433
 9095W        W24712   1.737  14.857  15.000  0.1796 -0.0868 -0.1441
 9096W        W24713  17.046   7.257  14.154 -0.3568  0.2005 -0.0440
 9097W        W24714   2.830   8.364  12.443  0.1361 -0.3136  0.2746
 9098W        W24715   8.776  17.778   0.243  0.0354 -0.1408  0.0543
 9099W        W24716  15.744  15.141  13.400  0.1947  0.0399  0.1190
 9100W        W24717  18.159   6.843   2.888 -0.2496 -0.0356  0.2103
 9101W        W24718  10.455   7.013   0.111 -0.1659  0.0011 -0.2985
 9102W        W24719   0.807  14.490  12.130 -0.1211 -0.0803 -0.2444
 9103W        W24720  10.970  12.625  13.226 -0.0025  0.0491 -0.1170
 9104W        W24721  14.840   8.853  15.870  0.0581  0.1235 -0.1177
 9105W        W24722   3.947  16.929   2.216  0.3138  0.1706 -0.5433
 9106W        W24723   4.688   4.603  10.907  0.0450  0.0076 -0.1899
 9107W        W24724   9.774   6.726  15.624  0.0874  0.0194  0.1784
 9108W        W24725  17.331   5.015   4.230  0.1093 -0.2622  0.0461
 9109W        W24726   0.097   1.212   3.399 -0.0606 -0.1221  0.1772
 9110W        W24727  12.980   9.793  13.570  0.1993 -0.0829  0.3336
 9111W        W24728  14.614   9.481   1.648 -0.0851 -0.2454  0.2421
 9112W        W24729   2.500  18.123   2.585  0.2373  0.2065 -0.3791
 9113W        W24730  13.811  16.680   6.257 -0.0581 -0.1061  0.0229
 9114W        W24731   4.344  12.055  14.411 -0.0397 -0.0871 -0.2582
 9115W        W24732  11.456   4.722   4.260 -0.1886 -0.0361 -0.4815
 9116W        W24733   9.925   1.323   3.585 -0.0507  0.2560  0.3352
 9117W        W24734   6.374   8.576   4.226 -0.1072 -0.3191 -0.0708
 9118W        W24735   1.970  12.143  15.676 -0.0346 -0.3042  0.1566
 9119W        W24736   7.533   3.050   1.276  0.1536 -0.0308 -0.0416
 9120W        W24737  15.772  15.890  15.101  0.2934  0.2170 -0.0405
 9121W        W24738  10.961  11.717  13.375 -0.5416 -0.1945  0.1515
 9122W        W24739   7.792   1.193  14.962 -0.0551 -0.0556 -0.0014
 9123W        W24740   8.671  17.442   4.371  0.1085 -0.0738 -0.2335
 9124W        W24741   0.046  16.486   0.660  0.2761  0.0449 -0.2298
 9125W        W24742   0.326   0.928   1.576 -0.0451  0.3026 -0.0500
 9126W        W24743  10.869  14.147   0.527 -0.0350 -0.0222 -0.0704
 9127W        W24744   0.849  17.079  12.847  0.1883  0.1899 -0.1767
 9128W        W24745   0.498  12.510   2.675 -0.0669 -0.1189 -0.4274
 9129W        W24746  17.415   8.056  14.152  0.0089  0.2044  0.0464
 9130W        W24747  11.405  12.419  13.473 -0.0438  0.1421 -0.1704
 9131W        W24748  11.732   9.327   3.948 -0.0819  0.2045  0.3208
 9132W        W24749   2.683  17.550  12.523  0.3026  0.0414 -0.1045
 9133W        W24750   0.856  15.584  14.413  0.0995 -0.2001  0.0666
 9134W        W24751  10.165   2.751   0.090  0.2767 -0.0969 -0.1342
 9135W        W24752   2.742   0.116  14.112 -0.1636 -0.1786 -0.1844
 9136W        W24753  15.946  14.936   5.417  0.0635 -0.0761 -0.0791
 9137W        W24754  13.618   9.386  11.557 -0.1343  0.2360  0.0008
 9138W        W24755   7.359   6.056  15.391 -0.3580 -0.0673  0.1996
 9139W        W24756   0.079   5.123   1.950 -0.0711  0.1173 -0.0366
 9140W        W24757  17.152  14.537   5.521 -0.0199 -0.1447  0.2838
 9141W        W24758  18.112   9.457  14.149 -0.1154  0.0470 -0.0967
 9142W        W24759   8.553  11.573  11.724  0.1631  0.1457  0.0095
 9143W        W24760   0.319  15.832   1.700  0.0338 -0.0295  0.0166
 9144W        W24761   0.459  13.976   0.001  0.1777 -0.1738 -0.1780
 9145W        W24762  16.659  14.549  14.865 -0.1854 -0.0161 -0.1724
 9146W        W24763   5.107  17.201   3.161 -0.0651  0.0229  0.1460
 9147W        W24764   4.071   5.798   5.566  0.1544 -0.2177 -0.0815
 9148W        W24765  16.713   0.323   4.099 -0.1066  0.2917 -0.0064
 9149W        W24766   3.494   3.186  15.361 -0.0534 -0.0514  0.2214
 9150W        W24767   3.331   1.633  15.593 -0.0451 -0.3139 -0.2459
 9151W        W24768   6.303  10.923  13.856 -0.4579  0.2080  0.1269
 9152W        W24769   1.033   1.400   1.263 -0.1754 -0.0053 -0.0303
 9153W        W24770   6.208   6.629   1.973 -0.1699  0.0703  0.3201
 9154W        W24771  12.305   8.785  10.802  0.2180  0.2345  0.0809
 9155W        W24772   1.549  15.034   0.282 -0.2475  0.1360  0.2621
 9156W        W24773   4.170   5.333   0.466  0.1105 -0.0438 -0.4029
 9157W        W24774   2.252  10.744   3.962 -0.0974  0.1317  0.1471
 9158W        W24775   0.476  15.266   3.627 -0.4033 -0.2446  0.1687
 9159W        W24776   8.163  13.129   5.262  0.0116  0.1094  0.2459
 9160W        W24777   9.353   6.194  13.020  0.1114 -0.2876  0.1873
 9161W        W24778  16.054  16.071  11.665  0.1070  0.0164 -0.3348
 9162W        W24779  10.920  12.183  11.488  0.0217 -0.0466  0.0172
 9163W        W24780  14.003   6.984  11.557  0.0141  0.0778 -0.1433
 9164W        W24781   3.820  16.022   4.498 -0.4372 -0.1384  0.1788
 9165W        W24782   3.183   7.768   4.566  0.2137 -0.1476 -0.2245
 9166W        W24783   1.700  15.366  13.754 -0.0848 -0.2556  0.2813
 9167W        W24784   3.375   6.927  15.324 -0.1745  0.1088 -0.1172
 9168W        W24785   4.455  15.287   4.808 -0.3041  0.2624  0.2149
 9169W        W24786   8.117   1.396   2.115 -0.0114 -0.1083  0.1095
 9170W        W24787  12.077  13.733   0.212  0.2241  0.0862 -0.0145
 9171W        W24788  16.392  10.347   4.333  0.1901  0.0091 -0.0151
 9172W        W24789   0.589   4.252  13.041  0.2347  0.1324  0.3451
 9173W        W24790   3.157   3.550  12.976 -0.0782 -0.1034 -0.1068
 9174W        W24791   0.469  16.158   2.816  0.0074  0.1429 -0.0830
 9175W        W24792   3.793  14.071  12.684 -0.2694  0.0355 -0.2031
 9176W        W24793  16.458  12.677  13.814  0.0236 -0.0866  0.3271
 9177W        W24794   0.665   7.545   3.328 -0.1423 -0.0987 -0.0787
 9178W        W24795   7.992  10.870  11.286  0.1555 -0.2044 -0.1702
 9179W        W24796  15.679   9.090  14.172 -0.3536 -0.1213  0.0738
 9180W        W24797  15.073  16.451  15.694  0.1409 -0.2314  0.0083
 9181W        W24798   3.776   0.424   6.459 -0.2745  0.1329  0.0855
 9182W        W24799   9.846  16.241  12.168  0.0352 -0.2009  0.0921
 9183W        W24800  16.433   8.915   4.133  0.3027 -0.0613 -0.0499
 9184W        W24801   7.583   1.540   2.947 -0.1873 -0.0391 -0.0437
 9185W        W24802   7.576  11.210  15.401  0.2811 -0.1898 -0.0209
 9186W        W24803  17.394  17.904  15.180 -0.1694 -0.2557  0.2452
 9187W        W24804   2.430   3.862   3.640  0.1339 -0.1446 -0.0824
 9188W        W24805   5.782   9.989  15.528  0.1220 -0.0297  0.0699
 9189W        W24806  10.020  13.650   4.216  0.1181  0.1157 -0.1101
 9190W        W24807   4.982   4.089  14.765 -0.0851 -0.0097 -0.1976
 9191W        W24808  17.082   8.410   3.606  0.0437  0.1038 -0.0272
 9192W        W24809  15.967   9.016  15.458 -0.2439  0.0039 -0.0229
 9193W        W24810   6.541  13.879   2.013 -0.2677  0.5073  0.1073
 9194W        W24811   3.924  13.024   3.801 -0.0434 -0.3253 -0.0547
 9195W        W24812  18.029   6.712  15.708  0.2870 -0.1784 -0.1404
 9196W        W24813  11.568  13.806  12.973 -0.2963  0.1494 -0.0396
 9197W        W24814  17.627   1.215  14.831 -0.1468  0.1054 -0.0734
 9198W        W24815  17.572   8.165   3.957 -0.0421 -0.2634  0.0491
 9199W        W24816  13.191  18.287   5.404 -0.2578 -0.1444  0.0827
 9200W        W24817   0.322  18.039   1.724  0.3327  0.0201  0.0944
 9201W        W24818   1.414   1.644   3.625 -0.0533  0.0055 -0.3215
 9202W        W24819   7.850   8.211   2.009  0.0603 -0.2460  0.0025
 9203W        W24820  11.904   1.044  12.613  0.2683  0.1131  0.2760
 9204W        W24821  12.441  10.223   5.769  0.4190 -0.2485  0.0363
 9205W        W24822  17.437  15.910   4.227  0.1239 -0.1571 -0.1738
 9206W        W24823  13.325  11.739  13.482 -0.1439 -0.1344  0.0607
 9207W        W24824   9.212   1.387  12.506  0.1129 -0.0051 -0.0105
 9208W        W24825   5.362  10.922  15.923 -0.0752 -0.0612 -0.1658
 9209W        W24826  11.673  11.163   5.092 -0.2872 -0.5064 -0.0863
 9210W        W24827  12.482  17.317  11.804  0.2289  0.2806 -0.0056
 9211W        W24828  15.834   3.382  13.338 -0.1722  0.1675  0.0594
 9212W        W24829  18.133   4.764  14.992 -0.0347 -0.0081  0.0966
 9213W        W24830  12.677   1.890  14.853  0.1950 -0.0184 -0.4220
 9214W        W24831  17.184  14.939   2.836 -0.1961  0.0854  0.2037
 9215W        W24832  14.658   4.769  12.639  0.1168  0.0489 -0.1922
 9216W        W24833   5.871  15.382   4.723  0.2178 -0.1112  0.2787
 9217W        W24834   4.593  10.374  12.266 -0.1360 -0.3122 -0.0268
 9218W        W24835   3.646  17.704   1.541 -0.0637 -0.0624  0.1405
 9219W        W24836   3.314   4.383   1.786 -0.1433  0.0745  0.3087
 9220W        W24837   2.522  17.264  15.574  0.0492 -0.0824  0.3016
 9221W        W24838  15.604   6.649  13.609 -0.0088 -0.1541 -0.0989
 9222W        W24839  12.913   5.949  13.209 -0.0794  0.1462 -0.1004
 9223W        W24840   4.126  15.954  15.550 -0.1008  0.0727 -0.3789
 9224W        W24841  11.454   5.715   2.244  0.0811  0.3284  0.2700
 9225W        W24842   2.126  14.898   2.923  0.1124  0.4270 -0.1190
 9226W        W24843  10.205   5.429  13.764 -0.0168 -0.2937 -0.1166
 9227W        W24844   6.158  15.832  16.048  0.0962 -0.2640 -0.2950
 9228W        W24845   8.585  16.096   3.260 -0.2383  0.0166  0.1048
 9229W        W24846   2.388   9.962  15.589  0.1614  0.0639 -0.1359
 9230W        W24847   4.853   1.582   0.079  0.2198 -0.0356  0.0901
 9231W        W24848   6.281   7.039   2.220  0.2368  0.1290 -0.1092
 9232W        W24849   1.122   3.623   3.473  0.3155  0.1823  0.2284
 9233W        W24850   4.353  17.844   0.312 -0.2974 -0.2917 -0.0605
 9234W        W24851  14.943  15.462  15.170  0.3428  0.1068 -0.0890
 9235W        W24852  11.620   5.696   0.698  0.1858  0.0297 -0.1508
 9236W        W24853   3.492   9.499  12.731  0.0850 -0.0423 -0.0201
 9237W        W24854   7.400  10.943  12.795 -0.2051 -0.0679 -0.1457
 9238W        W24855   3.215  12.423   1.468  0.0104 -0.0440 -0.0609
 9239W        W24856  17.226  17.080   4.240 -0.3029 -0.2267 -0.1779
 9240W        W24857   3.882   5.957  11.310 -0.2096 -0.2998  0.4744
 9241W        W24858  16.887  14.962  15.282  0.3148  0.0220 -0.0902
 9242W        W24859  16.994  11.453   1.853 -0.1376 -0.3568  0.1891
 9243W        W24860   0.290   1.735  15.635 -0.0194  0.2288  0.4789
 9244W        W24861   1.054   6.683  10.906 -0.0733 -0.0255 -0.1971
 9245W        W24862  10.499  17.668  13.459  0.1593 -0.3140 -0.1240
 9246W        W24863   4.351  11.945   0.664 -0.5240  0.0808 -0.1846
 9247W        W24864  11.238  10.610   2.244  0.0419 -0.0151  0.1579
 9248W        W24865  15.576  14.920  15.627  0.0598 -0.0176  0.2345
 9249W        W24866   4.907  18.033   4.955  0.0550 -0.0183  0.0257
 9250W        W24867   1.247   0.292  15.209 -0.1341 -0.4755 -0.0577
 9251W        W24868  18.264   7.391   4.192 -0.0769  0.1834 -0.0712
 9252W        W24869  12.936   5.923   3.459  0.2373 -0.0784 -0.1152
 9253W        W24870   8.502   6.837  11.313 -0.1564 -0.1044 -0.1197
 9254W        W24871   8.603  14.929  13.141 -0.0698  0.2121  0.3303
 9255W        W24872  16.652   2.102  11.427 -0.0821  0.0755  0.0163
 9256W        W24873   5.860   1.077  12.452  0.2475  0.1275  0.3841
 9257W        W24874  17.012  11.603   1.034 -0.0716 -0.4672  0.0615
 9258W        W24875  14.153   2.457  12.775  0.2692 -0.1031 -0.1211
 9259W        W24876  10.711   0.426   3.345  0.1808 -0.0438 -0.0565
 9260W        W24877   7.147   9.688   0.986 -0.0668  0.2405  0.1428
 9261W        W24878   3.904  11.319   5.497 -0.2363 -0.3503  0.0158
 9262W        W24879  11.040  15.480  16.094 -0.2802  0.2620 -0.0655
 9263W        W24880  10.644   8.314   3.535  0.1663  0.2948 -0.2523
 9264W        W24881   7.961  16.060  12.981  0.3195  0.0071  0.1987
 9265W        W24882  17.353  14.819   0.520 -0.2259 -0.1265 -0.2491
 9266W        W24883   5.881   1.385   3.705  0.1461  0.1930 -0.1447
 9267W        W24884  14.034  11.951   0.084  0.3469 -0.3348  0.0887
 9268W        W24885  10.241  10.985  13.774  0.1824  0.0698 -0.2262
 9269W        W24886   9.738  13.251   4.873 -0.1449  0.2698  0.0562
 9270W        W24887  14.977   1.572   1.114  0.0304 -0.1997  0.3137
 9271W        W24888   0.305  13.953   5.627  0.1094  0.2628 -0.2300
 9272W        W24889  15.255  17.279  10.617 -0.0338  0.4882 -0.0218
 9273W        W24890   9.507   9.590  11.115  0.0419 -0.1207  0.0648
 9274W        W24891   7.239   5.731   1.970  0.3727 -0.1673  0.0653
 9275W        W24892  12.591  12.745   4.896 -0.2644  0.1324 -0.0295
 9276W        W24893   1.509   4.897   0.165  0.0526 -0.4007 -0.2870
 9277W        W24894   6.599   2.798   4.167 -0.2865  0.0595  0.0422
 9278W        W24895  13.916   7.548  15.870 -0.1990  0.1570  0.2445
 9279W        W24896  17.997   8.701  13.584  0.0481  0.1010  0.2079
 9280W        W24897  16.606   5.510   1.642 -0.0470  0.2652 -0.1039
 9281W        W24898   4.672   5.807   4.228  0.2068 -0.0811  0.2491
 9282W        W24899   1.515  14.117   6.211 -0.0924  0.2051  0.0761
 9283W        W24900  17.896   9.644  13.614  0.0581  0.0453 -0.0539
 9284W        W24901   5.347  12.440   0.716  0.2215  0.0299  0.1190
 9285W        W24902  16.251   0.140   3.718 -0.1178  0.0804 -0.1136
 9286W        W24903   5.305   4.205  15.448  0.3201  0.0103 -0.0417
 9287W        W24904   9.762   6.631   4.967  0.0105 -0.3149 -0.3404
 9288W        W24905   8.349  14.558   2.854  0.1190  0.1932  0.0904
 9289W        W24906   9.369   2.017  13.048 -0.0708  0.0482 -0.0847
 9290W        W24907   7.246  12.509   5.486  0.1441 -0.1743 -0.2650
 9291W        W24908   6.766   2.973  14.756  0.1389 -0.2324  0.0158
 9292W        W24909   2.404   7.154   5.261 -0.0637 -0.1680 -0.0874
 9293W        W24910   0.371   3.883   2.878 -0.0737 -0.2440  0.0186
 9294W        W24911  11.001   7.855  16.103  0.2497  0.1608  0.0233
 9295W        W24912   6.017  15.377   3.116  0.0067  0.0011 -0.0996
 9296W        W24913  15.481   4.816   0.268  0.2213  0.1503  0.2828
 9297W        W24914   9.553   1.346  11.960  0.0454  0.0596  0.2465
 9298W        W24915   5.445   9.470  13.790 -0.1287 -0.0857 -0.1137
 9299W        W24916   6.776  17.834   2.686 -0.1949 -0.0416 -0.0544
 9300W        W24917   0.425   6.943   2.800 -0.1548 -0.0178 -0.2305
 9301W        W24918   8.870   9.463  15.070  0.0051 -0.4200  0.0390
 9302W        W24919  14.200   9.321   0.306  0.2938 -0.0980  0.2681
 9303W        W24920  15.005  12.282  14.195  0.1568 -0.0612  0.0331
 9304W        W24921   1.179  15.288   0.458  0.3019  0.1991 -0.0838
 9305W        W24922  15.364  18.146  15.295  0.0455  0.1110  0.0229
 9306W        W24923  14.458   7.264   0.862  0.0922 -0.1163  0.1471
 9307W        W24924   9.668   6.068   3.790 -0.0130 -0.0546  0.0475
 9308W        W24925   7.184  12.569   2.890  0.2916  0.1917 -0.1320
 9309W        W24926   5.093   0.621  13.561 -0.1491  0.2961  0.0676
 9310W        W24927   7.660   0.698   3.316 -0.2099 -0.1289 -0.0945
 9311W        W24928   3.565   1.138  14.296  0.0451  0.2684  0.1676
 9312W        W24929  15.084   1.721  11.651  0.3935 -0.0722 -0.1588
 9313W        W24930   5.275  11.720   3.250 -0.0840 -0.1600  0.0077
 9314W        W24931   3.832  13.272  12.083  0.0261  0.2365 -0.0960
 9315W        W24932   9.369  16.131   1.938  0.1501  0.0035  0.0375
 9316W        W24933   3.844   0.155   3.839  0.0667 -0.2713  0.1458
 9317W        W24934   0.841  15.983   4.604  0.1632 -0.1400  0.0710
 9318W        W24935   2.097   4.140  12.459 -0.0145  0.3624  0.1675
 9319W        W24936   4.246   7.225  14.753  0.0354  0.0181  0.1257
 9320W        W24937   7.385   7.888  11.260  0.1557  0.1273 -0.0773
 9321W        W24938  14.331  10.906   4.105 -0.0205 -0.0438  0.0165
 9322W        W24939   9.093   8.604   4.665 -0.0496  0.1986  0.1409
 9323W        W24940  14.767  17.432  11.394 -0.3093 -0.0380  0.1406
 9324W        W24941  18.035   8.630  11.846 -0.2173  0.4396  0.3181
 9325W        W24942   1.942   0.746  15.352  0.5794 -0.1066  0.0507
 9326W        W24943  11.836  12.292   3.219  0.4970 -0.0972 -0.0181
 9327W        W24944  10.041   1.269   2.308  0.0773  0.3966  0.1012
 9328W        W24945   5.248   2.922  15.408 -0.3184 -0.1620  0.3852
 9329W        W24946   2.667   4.279   2.667 -0.3456 -0.2807 -0.0286
 9330W        W24947   8.768   5.260   1.346 -0.0229 -0.2142  0.1236
 9331W        W24948   8.107  14.676  14.908 -0.0597 -0.1335  0.0900
 9332W        W24949   9.168   4.165   0.781  0.4785 -0.0803  0.0099
 9333W        W24950   4.071  16.276  12.309 -0.0586  0.1732 -0.1089
 9334W        W24951  10.423  16.923  14.882 -0.3565  0.1358 -0.1531
 9335W        W24952   0.313   1.756  13.551 -0.2632  0.1106  0.1258
 9336W        W24953   9.737   4.800  10.287  0.2480 -0.3328  0.0084
 9337W        W24954   3.237  11.844  13.198 -0.0023  0.2582 -0.0872
 9338W        W24955  18.329  10.095  11.109 -0.1092 -0.2136 -0.2337
 9339W        W24956  13.684  16.875   2.314  0.2847  0.1549  0.0402
 9340W        W24957   1.550  11.468  12.238 -0.3213 -0.2150 -0.1700
 9341W        W24958  12.715   9.937  12.369  0.0337 -0.4123  0.0214
 9342W        W24959   7.964  13.989   1.095  0.0816  0.2301 -0.3160
 9343W        W24960   3.697   2.073  13.571 -0.2218  0.1173 -0.2708
 9344W        W24961  17.933  11.397   1.533  0.2047  0.2061  0.3712
 9345W        W24962   9.019   8.103   2.881 -0.3592 -0.1082 -0.4114
 9346W        W24963   7.329  11.028   0.662 -0.2120  0.1433 -0.0321
 9347W        W24964  14.318  12.449  11.229 -0.1682  0.1300  0.0022
 9348W        W24965  12.276  10.326  11.503 -0.0072 -0.4226  0.1012
 9349W        W24966   0.020   0.464  12.395  0.0391  0.1396 -0.2536
 9350W        W24967   4.814   0.206  12.411 -0.0630 -0.0777 -0.0017
 9351W        W24968   6.455   5.301  11.467  0.3111 -0.1942  0.1861
 9352W        W24969  10.974  13.570   3.251 -0.1837 -0.1715 -0.0421
 9353W        W24970  15.793  12.240  16.058  0.1487 -0.2425 -0.1938
 9354W        W24971  15.602  17.841  12.095  0.0398 -0.3134  0.0549
 9355W        W24972   0.619  10.911   4.585  0.3484 -0.2752  0.2418
 9356W        W24973   6.397   1.413   5.973  0.3106  0.2023 -0.0870
 9357W        W24974   9.663   1.162   3.998  0.3903  0.1288 -0.2371
 9358W        W24975  13.096   9.318  14.280 -0.1367 -0.0211  0.1327
 9359W        W24976  10.713  15.404   1.794 -0.2657 -0.0937  0.1353
 9360W        W24977   8.774  13.663   1.142  0.0016  0.0494 -0.1284
 9361W        W24978   8.483   3.235   4.787  0.1310  0.1497  0.0166
 9362W        W24979   0.067  12.997   4.263 -0.0289  0.4544  0.0746
 9363W        W24980   4.183  11.918  14.853 -0.5780  0.1683  0.0481
 9364W        W24981  18.269  12.838  11.363 -0.0187  0.1657 -0.1198
 9365W        W24982  11.607  10.880   6.043 -0.0765  0.1329 -0.0564
 9366W        W24983  13.826  17.968   0.895 -0.3010  0.1179  0.1975
 9367W        W24984  18.115   2.124   1.805 -0.3601 -0.3055 -0.3990
 9368W        W24985  17.262   6.482  13.494  0.0690  0.2475 -0.3435
 9369W        W24986  12.877   4.730  16.041 -0.3900 -0.0683 -0.1099
 9370W        W24987  13.359   9.549  11.094  0.3086 -0.1638 -0.4228
 9371W        W24988  14.562   8.260  14.222  0.1614  0.3862  0.1183
 9372W        W24989  11.018   5.360  11.415  0.1262 -0.0201 -0.2536
 9373W        W24990   0.149   4.041   2.393  0.0405 -0.0386  0.0045
 9374W        W24991   1.838   0.239  15.316 -0.0114  0.3241 -0.0542
 9375W        W24992   6.685   9.118   1.810 -0.1357  0.1155  0.0139
 9376W        W24993  16.830  16.953   2.337 -0.1167  0.1991  0.1477
 9377W        W24994   0.958   7.122  13.033 -0.0780 -0.0658  0.0632
 9378W        W24995  16.784  17.252  15.188  0.0997 -0.1565 -0.0249
 9379W        W24996   0.337  13.227   0.158 -0.0361 -0.0553  0.0770
 9380W        W24997   8.260  14.374   2.245  0.2926  0.3722 -0.0882
 9381W        W24998  15.805   4.114  13.702  0.0716  0.0786  0.1757
 9382W        W24999   6.701   4.093   4.448 -0.1810  0.2001 -0.2023
 9383W        W25000   4.109   4.669   4.737 -0.0655 -0.1805  0.4001
 9384W        W25001   9.292   5.595  14.425  0.0435  0.0675  0.2311
 9385W        W25002   2.079   4.542  13.434  0.3775 -0.1034 -0.0357
 9386W        W25003  12.336  16.969  15.056  0.3759  0.0347 -0.1282
 9387W        W25004   2.246  13.727  10.853 -0.1841  0.1460  0.0653
 9388W        W25005   8.535  18.273  11.593  0.4863  0.0986 -0.2901
 9389W        W25006   7.501   3.680  11.703 -0.3471  0.0454 -0.1026
 9390W        W25007   1.698   9.540   5.049 -0.1601  0.2188 -0.1320
 9391W        W25008  16.999  16.841   3.829 -0.0048 -0.0302  0.1625
 9392W        W25009  13.650  11.829   3.607  0.1665  0.2140  0.0479
 9393W        W25010   9.453   6.302  12.085 -0.1517 -0.0419  0.3308
 9394W        W25011   3.223  16.895  16.005  0.1406 -0.0932 -0.0770
 9395W        W25012  14.970   2.894   5.130  0.2571  0.1361  0.0663
 9396W        W25013   7.903   8.538   4.486  0.1477  0.2059 -0.1177
 9397W        W25014   2.818  16.280  11.684 -0.0996 -0.1010 -0.1744
 9398W        W25015  17.321   5.523   4.461  0.1241  0.0224  0.1678
 9399W        W25016  15.450   3.470  11.366  0.1036  0.0408  0.0287
 9400W        W25017   9.191  14.532   0.226  0.1359  0.0332 -0.3227
 9401W        W25018   8.725   3.068  11.974 -0.1729 -0.2260  0.0488
 9402W        W25019  13.280  10.225   4.845  0.0014 -0.1333  0.1945
 9403W        W25020   4.202  12.250   3.619 -0.2302  0.2882 -0.0489
 9404W        W25021  14.479   4.050  14.488  0.1294 -0.0619  0.0026
 9405W        W25022   5.985  15.508  15.024  0.0311 -0.0662  0.1975
 9406W        W25023   8.744  12.043   3.619 -0.0423 -0.4635 -0.0125
 9407W        W25024   6.107   8.153  15.940 -0.3882 -0.0032  0.2636
 9408W        W25025  15.420  16.958  15.867  0.1346 -0.1197 -0.1427
 9409W        W25026  13.353   2.518   3.588 -0.0326  0.1147  0.0035
 9410W        W25027   6.050   7.753  12.986 -0.1492 -0.2667  0.1885
 9411W        W25028   9.926  13.479  11.157  0.1724 -0.2462  0.1616
 9412W        W25029   2.695   1.458   2.710  0.1570 -0.0354 -0.0735
 9413W        W25030   7.896  10.664  12.762 -0.1611  0.3274 -0.0748
 9414W        W25031  18.095   1.405   0.059  0.0740  0.3884 -0.0528
 9415W        W25032  10.662  10.307  14.257  0.2351 -0.1301 -0.4357
 9416W        W25033   3.482  13.830   6.377  0.2768 -0.1947 -0.2686
 9417W        W25034  13.446  16.222  12.401  0.0633 -0.1051  0.0150
 9418W        W25035   0.532  14.777   5.379 -0.2092  0.2082  0.0442
 9419W        W25036  10.325   7.223   3.524 -0.0232  0.3272  0.2608
 9420W        W25037   2.562  16.766   1.180  0.0821  0.0785  0.5165
 9421W        W25038   7.937  10.735  15.345 -0.0605 -0.0587  0.0578
 9422W        W25039  16.591  13.451   1.745 -0.1071 -0.0476 -0.3565
 9423W        W25040   4.907  12.105  12.620 -0.1521 -0.1931 -0.4506
 9424W        W25041   6.339  16.198  11.541  0.3554  0.2291  0.0605
 9425W        W25042   8.198   8.342  15.510  0.0767 -0.0613  0.2597
 9426W        W25043   1.633   4.456   1.351  0.2749  0.0503 -0.2198
 9427W        W25044   4.047   7.837  12.232  0.3453  0.2962  0.0406
 9428W        W25045  11.275   3.317   0.570 -0.3821 -0.0901 -0.3051
 9429W        W25046   3.987   4.848   1.800  0.2053 -0.2424 -0.0692
 9430W        W25047   9.293  12.540  13.838  0.1147 -0.0985 -0.1962
 9431W        W25048   1.264   5.772   4.141  0.2343  0.0839 -0.1864
 9432W        W25049  11.697   9.295  15.346  0.2202  0.1293 -0.2041
 9433W        W25050   3.005   7.791  12.504  0.2274 -0.0063 -0.1252
 9434W        W25051  10.844  10.104  12.267 -0.2517  0.1518 -0.1914
 9435W        W25052   9.739  13.630   1.666 -0.1093 -0.2328 -0.0012
 9436W        W25053   7.826   6.005  11.574 -0.0619 -0.0150  0.1847
 9437W        W25054  14.763  11.012  15.815 -0.3283  0.4238  0.1254
 9438W        W25055   8.152  14.908  15.961  0.1343 -0.3326  0.2350
 9439W        W25056  18.363  12.580  13.900  0.2229  0.0226  0.1047
 9440W        W25057  18.018  12.413   4.976 -0.1019  0.0969 -0.0073
 9441W        W25058   0.972  11.248   4.566  0.0885 -0.1198 -0.0059
 9442W        W25059   7.656  10.120   1.810 -0.4176 -0.0876  0.2557
 9443W        W25060  13.376   8.909   3.410  0.4535  0.1937 -0.2395
 9444W        W25061   5.300   0.365   5.143  0.2200 -0.2412  0.0504
 9445W        W25062   6.371  10.150   4.155  0.1290 -0.0216  0.4554
 9446W        W25063  17.945   3.448   5.103  0.1061 -0.0993  0.0742
 9447W        W25064  17.872  10.461  14.107 -0.1087 -0.1955 -0.1477
 9448W        W25065  14.447   8.932  13.530 -0.2670  0.1120  0.3086
 9449W        W25066  13.703  15.254  14.648  0.1600 -0.2727  0.0929
 9450W        W25067  16.397   3.023   0.040 -0.1026 -0.0000  0.3094
 9451W        W25068  12.265   8.669   5.556  0.0594 -0.2426 -0.3177
 9452W        W25069   2.543   8.911   0.134 -0.2948 -0.0341  0.1598
 9453W        W25070   4.314   6.308  13.072 -0.0686  0.1638  0.0489
 9454W        W25071  13.322  15.196  13.749 -0.3233 -0.4092  0.2464
 9455W        W25072  12.109  12.264  10.939  0.3193 -0.1484  0.0119
 9456W        W25073   2.144   5.166   5.298 -0.0312  0.0337 -0.0829
 9457W        W25074  15.825  13.795  11.306 -0.3440  0.3298  0.2337
 9458W        W25075  16.151   4.340  15.835  0.1300  0.0924 -0.0564
 9459W        W25076   6.437   8.588  12.619  0.1269  0.2081 -0.0168
 9460W        W25077   4.448   9.282  13.597  0.1897 -0.0470 -0.2682
 9461W        W25078  11.074  15.869  11.471 -0.1860 -0.0253  0.0877
 9462W        W25079   2.604  17.157   2.512  0.2158  0.0010  0.0573
 9463W        W25080  17.414  18.402  15.999 -0.2763  0.2947  0.3337
 9464W        W25081  18.424  10.003  11.583 -0.2979  0.0591  0.3325
 9465W        W25082   1.119  15.675  11.871 -0.0472 -0.1137 -0.0297
 9466W        W25083  10.556  18.099  15.517  0.3587  0.3514 -0.2842
 9467W        W25084   0.285  17.932   2.952 -0.1387 -0.0749  0.0305
 9468W        W25085   9.231  13.169   2.881  0.1900  0.2435  0.1195
 9469W        W25086  12.592  10.401  12.422  0.0791  0.0539 -0.1540
 9470W        W25087   3.996  14.817   5.606  0.3368  0.4272 -0.2397
 9471W        W25088   2.657   5.332  15.107 -0.1548  0.0452  0.2984
 9472W        W25089  13.382  16.029  15.284  0.0892  0.2094 -0.0563
 9473W        W25090   6.050  17.575  15.612  0.1505  0.2057 -0.2596
 9474W        W25091  16.684   6.867  15.253  0.0559  0.0295 -0.0630
 9475W        W25092  11.831   7.705   1.750 -0.1514  0.2934 -0.1305
 9476W        W25093  16.859   7.298   3.398 -0.1958 -0.0671 -0.2745
 9477W        W25094  17.688  16.715   0.237 -0.1906 -0.3534  0.2623
 9478W        W25095   2.513  15.172   0.327 -0.0512 -0.0784 -0.0125
 9479W        W25096   6.275   8.876  12.202  0.1704 -0.2148 -0.1214
 9480W        W25097   1.639   1.429  12.741  0.1152 -0.1384 -0.0845
 9481W        W25098   0.051  14.969   4.242 -0.2809  0.1077 -0.0421
 9482W        W25099   3.704  14.305  15.158  0.0435  0.1090 -0.0090
 9483W        W25100   1.587  11.686  13.308  0.2066  0.3603  0.3935
 9484W        W25101   7.859   6.017  12.680  0.0139 -0.2217  0.0928
 9485W        W25102  18.412   3.713   4.417  0.1436 -0.0754 -0.1818
 9486W        W25103   9.953   9.361  14.834  0.0527  0.1670 -0.0100
 9487W        W25104  13.715   6.251   2.981 -0.1591 -0.0013 -0.1189
 9488W        W25105   8.644  16.124  15.604 -0.1429 -0.2647 -0.2088
 9489W        W25106   6.671   1.025  11.057  0.3515 -0.2315 -0.1265
 9490W        W25107   2.241  14.848   3.679 -0.0748  0.0323  0.0181
 9491W        W25108   7.048   3.547  11.952 -0.1744 -0.1407  0.2132
 9492W        W25109  12.354  13.187  14.356  0.0580  0.1726  0.2021
 9493W        W25110   7.039  11.260  13.464  0.1579 -0.1505  0.0561
 9494W        W25111  13.771  16.405  15.264 -0.0750 -0.0849 -0.0831
 9495W        W25112   8.387   3.249   4.290 -0.2121  0.2330  0.0869
 9496W        W25113  16.125   3.011   1.496  0.2561  0.1823  0.0715
 9497W        W25114   9.451   7.684  14.796  0.0322 -0.0743 -0.0322
 9498W        W25115   7.179  18.255   1.957 -0.3447 -0.1424  0.2430
 9499W        W25116  10.388   2.482   4.198  0.0081 -0.0441  0.1504
 9500W        W25117   7.174   3.487  14.227  0.1307  0.2048  0.1534
 9501W        W25118  14.340  14.695   0.384 -0.1422  0.0405 -0.2324
 9502W        W25119   5.800   9.477   4.353  0.0473 -0.0145 -0.0222
 9503W        W25120   6.831   6.609  11.333  0.0913 -0.1167  0.1239
 9504W        W25121   8.676   9.557   3.225 -0.0498 -0.1831  0.0180
 9505W        W25122  11.150   8.316   2.112 -0.3173  0.2712  0.1044
 9506W        W25123   3.315   6.313  14.362 -0.1955 -0.0048  0.0136
 9507W        W25124  12.436   6.464  10.989 -0.0472  0.2721 -0.0704
 9508W        W25125   4.331   6.174   2.036 -0.0292 -0.0090 -0.1102
 9509W        W25126  16.713  13.068  12.017  0.0344  0.1894 -0.0920
 9510W        W25127  14.746   5.355   5.093 -0.1154  0.2603 -0.0247
 9511W        W25128   8.621   3.983   3.619  0.1978  0.3320  0.1043
 9512W        W25129   2.105   2.328  12.647 -0.0276  0.0912 -0.4584
 9513W        W25130   0.187   3.198  12.098 -0.0104 -0.0573  0.0375
 9514W        W25131   0.969   0.502   0.014 -0.1492  0.0717  0.0153
 9515W        W25132   3.511   9.664   2.388 -0.1813 -0.1281 -0.1545
 9516W        W25133   0.830   9.926   5.002  0.0722 -0.0450  0.2353
 9517W        W25134   1.337   3.738  14.181 -0.0642 -0.0503  0.1604
 9518W        W25135   6.565   2.177   3.667 -0.1517  0.1764  0.0500
 9519W        W25136   4.016   5.178  15.746 -0.0974 -0.0634  0.2572
 9520W        W25137  17.138  10.349  13.580 -0.0914  0.1807  0.2138
 9521W        W25138   0.911   3.359   2.365 -0.1656  0.2840 -0.0686
 9522W        W25139   9.899   5.040   3.819  0.1756  0.2222  0.1371
 9523W        W25140  11.958   8.331   4.121 -0.4485  0.1943 -0.2013
 9524W        W25141   4.245  16.211   4.690  0.0078 -0.2047  0.0101
 9525W        W25142   7.531  10.149   4.580 -0.1502  0.1098  0.1058
 9526W        W25143  11.067   8.823  15.567  0.3541  0.1233  0.1612
 9527W        W25144  11.353  14.549   1.699 -0.0993 -0.4133 -0.0561
 9528W        W25145  14.075  17.876  11.784  0.3857 -0.1256 -0.0113
 9529W        W25146  13.376   5.691  12.220 -0.2527 -0.1176  0.1792
 9530W        W25147   6.247  10.841   4.553  0.1384  0.0580 -0.3076
 9531W        W25148  14.755  17.019   0.488  0.0758 -0.4201  0.1876
 9532W        W25149   7.576  15.468   0.976 -0.0610  0.0274  0.1476
 9533W        W25150   2.618  16.610   2.215  0.0731 -0.2816  0.4784
 9534W        W25151   0.011   1.029   5.544  0.1834  0.0604  0.0831
 9535W        W25152   5.415  14.572   0.485  0.1753  0.0878  0.2037
 9536W        W25153   6.393   3.512   3.751 -0.0587 -0.1064  0.0959
 9537W        W25154  17.767  15.916  14.232  0.1356 -0.1580  0.1834
 9538W        W25155   2.635   8.843  15.014 -0.0390  0.2245  0.0926
 9539W        W25156   3.332   4.349   2.273  0.3829 -0.0770 -0.0065
 9540W        W25157   3.054   1.276   5.173 -0.1710 -0.1748 -0.0471
 9541W        W25158   8.282   6.533   2.798  0.0319 -0.0386  0.0315
 9542W        W25159  14.323   6.507  11.768 -0.4136  0.0051 -0.0118
 9543W        W25160   7.890  17.229   0.876  0.0946  0.1076  0.0755
 9544W        W25161   8.080  15.492   0.314  0.0237  0.1019  0.1149
 9545W        W25162  13.487   0.356   3.989 -0.1752 -0.0272  0.2522
 9546W        W25163   9.280  16.400  15.186 -0.3391  0.2819 -0.2527
 9547W        W25164  16.325  16.080  13.892  0.0271 -0.3277 -0.0323
 9548W        W25165   2.328  11.635   2.663  0.0991  0.2398 -0.0082
 9549W        W25166   4.238   4.328   2.299 -0.1484  0.1102  0.1434
 9550W        W25167   7.827   4.416   1.248  0.2556  0.0265  0.2305
 9551W        W25168   2.454   9.520  14.490  0.0123  0.0880 -0.0791
 9552W        W25169  10.675   6.266  14.360  0.0120  0.2678  0.0417
 9553W        W25170  16.732  14.821  13.473 -0.2119 -0.0536 -0.0921
 9554W        W25171   4.346   8.661   1.426 -0.0304  0.1620  0.2054
 9555W        W25172  16.600   9.974   4.083 -0.2552 -0.1597  0.0121
 9556W        W25173   8.557   8.408  14.100  0.3889  0.1175 -0.0021
 9557W        W25174   0.336   8.225  15.206 -0.0439  0.1173  0.3586
 9558W        W25175  12.887   7.650  11.957 -0.0934  0.2300 -0.2997
 9559W        W25176   5.725   4.455  12.209 -0.1343  0.2307 -0.0298
 9560W        W25177  16.778   6.618   1.739  0.2290  0.1891  0.2133
 9561W        W25178   4.705   9.706   4.536  0.0775  0.1198 -0.0134
 9562W        W25179  11.673  13.715   3.118 -0.0545 -0.4183  0.0092
 9563W        W25180   1.467  11.434   2.316 -0.1950  0.1350  0.0966
 9564W        W25181   2.340  13.087  11.029 -0.0325 -0.1509 -0.0014
 9565W        W25182   7.894  13.529   5.378 -0.0052  0.1439 -0.2068
 9566W        W25183   4.675  16.923  13.162  0.0719 -0.0617 -0.0472
 9567W        W25184  11.292  17.655   3.633  0.0180  0.0484  0.1556
 9568W        W25185   2.020  17.216   5.428 -0.0565  0.1950 -0.0162
 9569W        W25186  15.627  14.321  15.383 -0.0864 -0.0314 -0.0433
 9570W        W25187   7.691   8.273  13.274 -0.2570 -0.0802 -0.0967
 9571W        W25188  16.485  11.024  11.523  0.1005  0.1976 -0.0287
 9572W        W25189   9.535   3.778  12.584  0.1822 -0.0326  0.1733
 9573W        W25190  15.825  17.729   5.388  0.0841  0.1087  0.3297
 9574W        W25191   4.303  17.728   2.529  0.1683  0.1351  0.0663
 9575W        W25192  12.683   6.979  13.235 -0.3746 -0.2928 -0.0131
 9576W        W25193  11.370   1.336   1.889 -0.2148  0.1441 -0.0222
 9577W        W25194   8.289   6.997  13.982 -0.2683 -0.0929 -0.2612
 9578W        W25195  11.973   9.557  14.968  0.1076 -0.0306 -0.2765
 9579W        W25196   2.060  13.306  15.888  0.0511  0.1946  0.3500
 9580W        W25197   2.621  14.857   0.766  0.0091 -0.2598 -0.0298
 9581W        W25198  14.540  18.281   2.460  0.2560  0.0585  0.4318
 9582W        W25199  10.137  12.674  14.709  0.0679 -0.4614 -0.1631
 9583W        W25200   0.147   2.318  15.449 -0.2605 -0.0580  0.0950
 9584W        W25201   4.807  14.768   4.126  0.2196 -0.0011  0.0430
 9585W        W25202   4.284   0.459   1.311  0.2086  0.1379 -0.1984
 9586W        W25203  14.306  15.079   2.218 -0.0249  0.0621  0.3419
 9587W        W25204  17.671   7.460  12.423 -0.1114 -0.0642  0.0879
 9588W        W25205  12.584   2.034  11.707  0.2314 -0.1874 -0.0105
 9589W        W25206   0.570   5.801   0.077 -0.3239  0.2859  0.0921
 9590W        W25207  13.097  10.255  12.639 -0.1911  0.0397 -0.1437
 9591W        W25208  12.332  13.971   4.658  0.0457 -0.1114  0.0523
 9592W        W25209   5.829   0.329  12.318  0.0017  0.2161  0.1032
 9593W        W25210   7.288   1.970  12.500  0.3209  0.0838  0.1904
 9594W        W25211   0.146   9.594  11.284 -0.3000  0.0807 -0.3722
 9595W        W25212  10.059   3.240  14.968  0.2190 -0.2388  0.2379
 9596W        W25213  16.300   8.071   2.721 -0.1487  0.0078 -0.1530
 9597W        W25214   8.958  16.191   2.892 -0.1533 -0.3557 -0.1749
 9598W        W25215   3.420   4.076  12.107  0.0817 -0.1952 -0.1339
 9599W        W25216   6.835   3.364  11.093 -0.1646 -0.2807 -0.1015
 9600W        W25217   4.932   8.660   1.066 -0.1059 -0.2448  0.1268
 9601W        W25218   4.721   6.789   4.580  0.0262 -0.2471 -0.2049
 9602W        W25219  15.215  11.665  15.134 -0.1088 -0.1752  0.1229
 9603W        W25220  16.477   2.992   0.925 -0.4615  0.1624 -0.2947
 9604W        W25221  15.229   6.612  11.153 -0.2644 -0.0308  0.1572
 9605W        W25222   6.018   1.915   5.406 -0.0164  0.3136 -0.2348
 9606W        W25223   5.179   9.866  13.597  0.1086  0.0094  0.0813
 9607W        W25224   1.151  14.773  16.055  0.0032 -0.0475  0.0718
 9608W        W25225   8.807  12.638  15.987 -0.1814  0.2775 -0.2407
 9609W        W25226   8.113  15.057  12.877 -0.2556 -0.0647 -0.2552
 9610W        W25227   1.472  17.067  12.111 -0.3870 -0.0060 -0.0679
 9611W        W25228   4.132   4.315   1.229 -0.1414  0.2853  0.2104
 9612W        W25229  15.181   5.232  11.911 -0.0372 -0.1405  0.1425
 9613W        W25230  12.667  15.096  14.218  0.0270  0.0008 -0.0986
 9614W        W25231  14.220   2.195   3.427  0.1641  0.1079 -0.2626
 9615W        W25232   7.098   6.475  14.603  0.0070 -0.0569  0.2838
 9616W        W25233  12.143   8.637  13.312 -0.0612 -0.0567 -0.1193
 9617W        W25234   2.268   7.759  11.103  0.2445  0.0345 -0.0912
 9618W        W25235   1.957   4.057  15.120 -0.1118 -0.1543  0.0135
 9619W        W25236   0.444  14.263  15.736 -0.0469  0.2317 -0.0957
 9620W        W25237  11.790  11.557  15.792  0.2253 -0.0430 -0.1838
 9621W        W25238   4.842   6.226   3.788  0.0923 -0.0633 -0.1015
 9622W        W25239   6.046  16.706   4.929  0.0107  0.2315  0.4455
 9623W        W25240  16.533   7.780  14.000 -0.1486  0.0245  0.1772
 9624W        W25241   4.833   9.239  16.080 -0.1548 -0.0298 -0.0685
 9625W        W25242  12.909   0.048  14.098 -0.0137  0.2593  0.1109
 9626W        W25243  17.809  15.344   5.003  0.1350 -0.1085 -0.0040
 9627W        W25244  12.681   7.162   1.423  0.1127  0.3916 -0.1133
 9628W        W25245   2.962   8.495   1.848 -0.0147 -0.3257 -0.0613
 9629W        W25246   7.458   8.396   0.973  0.1347  0.0592  0.0171
 9630W        W25247  16.572  15.763  15.550  0.0344  0.2198  0.0358
 9631W        W25248   4.392   6.776   0.843 -0.1903 -0.1886 -0.3785
 9632W        W25249   3.144   9.524   4.413  0.2795 -0.2142  0.1063
 9633W        W25250   9.383  13.154   1.675  0.2089 -0.0842  0.2840
 9634W        W25251  17.478   8.081   3.471  0.0516 -0.0092  0.2616
 9635W        W25252   1.219   1.266  13.707  0.2151  0.1746 -0.1334
 9636W        W25253   7.873   4.454  10.632 -0.2345  0.1554 -0.0797
 9637W        W25254  13.559   4.015   1.890 -0.0186  0.1167  0.1182
 9638W        W25255  18.034   1.016  15.007 -0.0242 -0.0905 -0.0840
 9639W        W25256   7.077  11.022   3.299 -0.3289  0.1701  0.0562
 9640W        W25257  10.992   0.520  12.618  0.1693  0.0264 -0.0127
 9641W        W25258  16.951   4.266  13.969 -0.1752  0.2086 -0.1610
 9642W        W25259   0.998   5.566   2.639 -0.1469  0.2015 -0.0618
 9643W        W25260  11.082   5.114   4.196 -0.3059  0.0683 -0.2830
 9644W        W25261   7.549   5.088   2.659 -0.0283  0.0477 -0.3614
 9645W        W25262   4.009   8.010   0.619  0.0009 -0.2766  0.2526
 9646W        W25263  13.042  14.836  13.947  0.3679  0.2943  0.1365
 9647W        W25264   4.615   6.388  16.069 -0.2063 -0.1756  0.0753
 9648W        W25265  14.206  14.002  15.906 -0.0157 -0.1576 -0.5150
 9649W        W25266   7.574   3.836   1.825 -0.0237  0.2704  0.0243
 9650W        W25267  13.895  12.582  15.159 -0.4435 -0.1099 -0.0433
 9651W        W25268   6.506   4.191   2.192 -0.0252  0.0496 -0.1000
 9652W        W25269  14.425   1.933   1.781  0.0550 -0.3017  0.1114
 9653W        W25270  12.642  11.660  11.687  0.1529  0.1158 -0.2671
 9654W        W25271   7.505  15.921   2.845  0.1382  0.0393  0.1149
 9655W        W25272  14.821   9.282  13.388  0.1024  0.0340  0.3423
 9656W        W25273  11.655   6.649   2.870 -0.0606 -0.0894 -0.0432
 9657W        W25274  10.998   7.582  14.235 -0.1339  0.0316  0.1110
 9658W        W25275  11.320   3.401  15.749 -0.5665 -0.0601  0.4517
 9659W        W25276   4.702   4.018   2.599 -0.0931 -0.1377 -0.0864
 9660W        W25277  17.386   9.005   1.916  0.1317 -0.1472 -0.1343
 9661W        W25278  14.180   4.665   1.675  0.0406 -0.0204  0.1794
 9662W        W25279  17.753   1.043   4.115 -0.2107  0.1578 -0.0078
 9663W        W25280   4.045  14.031   5.303 -0.1294 -0.0041 -0.0722
 9664W        W25281  11.645  11.729   3.033  0.0603 -0.0084  0.2920
 9665W        W25282   2.249  12.933  11.953  0.0351  0.1492 -0.0780
 9666W        W25283   6.351  11.759  11.125 -0.3142 -0.0671 -0.1928
 9667W        W25284  17.936   4.827  13.230 -0.2182 -0.0234 -0.0221
 9668W        W25285   1.163   8.389  10.558 -0.1419 -0.2956  0.3767
 9669W        W25286   0.535   4.995  13.074  0.0810 -0.0377  0.1250
 9670W        W25287  13.041  16.993   1.695 -0.0461 -0.1308 -0.1969
 9671W        W25288   0.316   1.703   0.803  0.0666 -0.0184 -0.0444
 9672W        W25289   7.105   2.581  11.567 -0.0301 -0.1923  0.1859
 9673W        W25290   3.409   5.909   3.062 -0.0090  0.0511 -0.0365
 9674W        W25291  15.701  16.615   2.325 -0.1152  0.3188  0.0746
 9675W        W25292   1.839   6.873   2.830 -0.2651 -0.1745 -0.2312
 9676W        W25293   7.268  13.143  15.679  0.1232 -0.3669 -0.1243
 9677W        W25294   5.858  10.078   5.111 -0.3173 -0.0092 -0.0522
 9678W        W25295  16.832  12.605  14.676 -0.2281 -0.2214  0.0620
 9679W        W25296   6.315  16.335   5.492  0.2176  0.0762  0.1511
 9680W        W25297  12.783  16.924  11.441  0.1645  0.3302  0.1692
 9681W        W25298   6.949  11.760  14.998 -0.0367  0.0501 -0.1062
 9682W        W25299   9.507   0.007  13.311  0.1190 -0.2038 -0.3151
 9683W        W25300   4.315  11.843   1.157  0.0334 -0.2791 -0.0101
 9684W        W25301  17.157  14.844  12.547  0.1518 -0.4508  0.1136
 9685W        W25302   1.784  12.461  12.828  0.1170  0.1219  0.3396
 9686W        W25303  13.651  16.273  10.962  0.3678  0.0617  0.0673
 9687W        W25304   9.132  16.957  11.968  0.0899 -0.1726  0.4360
 9688W        W25305  11.862   0.447   1.497 -0.4316 -0.0596  0.2368
 9689W        W25306   4.133  12.879  11.350 -0.0931  0.2167 -0.0368
 9690W        W25307  15.426  16.608  11.610 -0.0809 -0.0374 -0.1690
 9691W        W25308  11.596  16.194   3.864  0.2480 -0.2371  0.0863
 9692W        W25309   9.083   5.109   0.476  0.2855  0.2167  0.0953
 9693W        W25310   8.527   4.263  12.371 -0.0707 -0.1789 -0.0795
 9694W        W25311  11.959  10.391  15.438 -0.0884  0.1235 -0.0458
 9695W        W25312  13.384   2.131  11.988  0.1971  0.1561 -0.1954
 9696W        W25313   1.316   5.322   0.407 -0.3046 -0.0949 -0.2936
 9697W        W25314  11.461   0.727  12.601  0.2538 -0.1856 -0.0275
 9698W        W25315   0.248  11.470  14.920  0.1367 -0.1781 -0.0066
 9699W        W25316  11.674  16.217   1.263  0.0868 -0.1303 -0.1085
 9700W        W25317   4.761   7.482   5.433 -0.1846 -0.1844  0.0072
 9701W        W25318   1.704  10.038  12.200  0.2012 -0.1548 -0.0718
 9702W        W25319   8.203  12.946   3.001  0.0909 -0.1452 -0.0383
 9703W        W25320   4.313   0.758   4.012 -0.2186  0.0261  0.2871
 9704W        W25321   1.851   9.850   4.021  0.0984 -0.2128 -0.0188
 9705W        W25322   0.539  16.554  14.309  0.0754 -0.2776 -0.1748
 9706W        W25323  17.570   6.420  12.700 -0.0565 -0.0103 -0.1072
 9707W        W25324   5.915  17.661   3.311  0.2121 -0.1468  0.0255
 9708W        W25325   1.481   8.946   2.557 -0.0278 -0.3095 -0.1646
 9709W        W25326   4.508   4.261  14.781 -0.1570 -0.1164  0.0361
 9710W        W25327  16.296   3.380   3.523 -0.0784 -0.1225 -0.0878
 9711W        W25328  15.176   1.295  12.041  0.1038 -0.0280  0.0374
 9712W        W25329   0.095  11.251  13.859  0.1531  0.0384 -0.3386
 9713W        W25330   1.454   7.006  12.015  0.0479 -0.3148  0.0778
 9714W        W25331   6.247  12.884   5.746 -0.0341 -0.2939 -0.1663
 9715W        W25332   3.398   9.675   3.144  0.1259 -0.3738  0.0730
 9716W        W25333   3.104   0.545  15.757 -0.3317  0.0960 -0.1571
 9717W        W25334   7.133   9.719  15.025 -0.1781 -0.0841  0.1499
 9718W        W25335   8.592  13.481   2.848 -0.0606  0.1418  0.4543
 9719W        W25336   6.199   7.277  13.736  0.3510  0.2251  0.2574
 9720W        W25337   3.995   5.718   0.200  0.2165 -0.2605  0.0422
 9721W        W25338   2.569   4.564  14.618 -0.0964  0.3589 -0.2581
 9722W        W25339  12.455   1.370   2.249  0.1560  0.1240  0.0668
 9723W        W25340   4.970  12.941  15.703  0.0796 -0.1192 -0.4037
 9724W        W25341  11.943  14.929  15.311 -0.0689 -0.0569 -0.2279
 9725W        W25342  16.404   1.913  12.071 -0.2934  0.0370 -0.2323
 9726W        W25343   4.162   0.291   4.282 -0.1067  0.2015 -0.0718
 9727W        W25344   6.402   5.602   0.929 -0.0153 -0.3504 -0.0080
 9728W        W25345   3.406   6.031   2.481 -0.0663 -0.1905 -0.1413
 9729W        W25346  15.994  10.660   2.908  0.0402 -0.4910  0.2299
 9730W        W25347  14.948   3.927  12.877 -0.0402  0.2376  0.1977
 9731W        W25348   7.740   2.144   3.449  0.2724 -0.4334 -0.2357
 9732W        W25349  11.292   3.463  13.963 -0.2176 -0.0643  0.1812
 9733W        W25350   2.692  14.019   0.959  0.0266  0.0968  0.3480
 9734W        W25351  16.759   9.820  15.241  0.0037  0.1680  0.0957
 9735W        W25352  14.921   7.227  15.600  0.0077  0.3831 -0.0594
 9736W        W25353  11.587  17.061   6.119  0.2270 -0.1094 -0.2947
 9737W        W25354   1.686   7.477   4.880 -0.0788 -0.2900 -0.1233
 9738W        W25355   3.544   4.489   3.115 -0.0937  0.0705  0.1577
 9739W        W25356   9.226   1.279   2.992  0.1768  0.1139 -0.2515
 9740W        W25357   6.766  13.100  15.480  0.3925 -0.3070 -0.0264
 9741W        W25358  13.795   2.267  12.424 -0.2348  0.2558 -0.0131
 9742W        W25359   7.375   8.257  11.670 -0.0750  0.0628 -0.1056
 9743W        W25360  12.751  16.927   3.296 -0.0237  0.0115 -0.3827
 9744W        W25361   8.385   7.947   3.260  0.0776  0.0235 -0.1956
 9745W        W25362   4.200   1.121  15.922 -0.1854  0.1499  0.1968
 9746W        W25363   9.178   3.441   1.886  0.0260 -0.2158 -0.2978
 9747W        W25364   8.798  16.777   0.482 -0.0349 -0.0519 -0.0457
 9748W        W25365  12.971   8.348   3.821  0.1212  0.0016 -0.0864
 9749W        W25366   9.837   7.308  10.176 -0.2131 -0.1656 -0.2673
 9750W        W25367   7.310   3.774  11.291  0.0076 -0.0573 -0.1507
 9751W        W25368  15.146   6.735  15.757  0.0652 -0.1055  0.1640
 9752W        W25369   0.741   1.482  12.169  0.0645 -0.1126  0.0976
 9753W        W25370   7.144   9.427   1.846 -0.1543 -0.3343 -0.2039
 9754W        W25371   2.412   2.589   1.833 -0.0496  0.3878  0.3939
 9755W        W25372  11.245  10.753  12.936 -0.0853  0.0625  0.0151
 9756W        W25373   3.365   3.289  13.352  0.2886 -0.0917  0.1684
 9757W        W25374   9.486  14.742   1.472 -0.3563  0.0367 -0.0781
 9758W        W25375   2.290  16.068  15.325  0.2407  0.0615 -0.0731
 9759W        W25376  16.981  16.673   2.700 -0.1816  0.0636 -0.1857
 9760W        W25377   8.033   8.114   2.891 -0.1299  0.0502  0.4964
 9761W        W25378  12.891   6.599   0.057  0.1226  0.0624 -0.1647
 9762W        W25379  15.667  10.310  15.946 -0.1536 -0.5111  0.3022
 9763W        W25380   9.946   5.564  15.284 -0.2177 -0.0298 -0.3586
 9764W        W25381  10.365  12.838  12.000  0.2823  0.1980  0.0854
 9765W        W25382  16.457   2.471   3.797 -0.0349 -0.1161  0.0650
 9766W        W25383  15.811  11.306  13.719  0.1270 -0.0473 -0.1358
 9767W        W25384  13.033   1.851  12.380  0.1238  0.0877  0.2992
 9768W        W25385  13.985   6.210   5.354 -0.3214  0.1173 -0.0655
 9769W        W25386   1.306   0.008  14.680  0.2122 -0.0115  0.1419
 9770W        W25387  16.220  14.066   5.591 -0.1025  0.0041  0.3865
 9771W        W25388   9.175   3.276   0.427 -0.0730  0.1169  0.1381
 9772W        W25389  17.432  17.418  14.379  0.1032  0.1158 -0.1281
 9773W        W25390  11.260  13.212   0.006  0.0814 -0.1995  0.2414
 9774W        W25391   8.742   7.322  15.596  0.4010  0.0643  0.0382
 9775W        W25392  15.780   8.456   2.503 -0.4101 -0.0988  0.1226
 9776W        W25393  17.419  15.312   5.513 -0.1317 -0.3558  0.2486
 9777W        W25394   9.380  17.474   5.413  0.0856  0.0118  0.1708
 9778W        W25395   1.369   8.178  11.438 -0.0650 -0.2390  0.0568
 9779W        W25396   5.102   3.995   0.118  0.1125  0.1678  0.0170
 9780W        W25397  12.141  12.970  11.959  0.1392  0.1282  0.0915
 9781W        W25398   8.715  17.061   3.568  0.1453  0.1969 -0.0857
 9782W        W25399  14.888  16.496  12.343 -0.0711  0.2477  0.0630
 9783W        W25400   1.332  14.763  13.985 -0.1794  0.1751  0.0154
 9784W        W25401  15.806  17.054   2.583 -0.1127  0.2929 -0.3016
 9785W        W25402   3.384   6.036   1.513  0.2124  0.1039  0.0308
 9786W        W25403   9.958  15.720  15.341 -0.0735 -0.3102  0.2715
 9787W        W25404   7.353  13.457   3.009  0.1066  0.3709 -0.0334
 9788W        W25405   5.255   6.595   3.339 -0.1125  0.1331 -0.3254
 9789W        W25406   1.449  15.102  12.553 -0.1814 -0.1566  0.0637
 9790W        W25407  18.304   3.106  15.472 -0.3264  0.0558 -0.1093
 9791W        W25408  14.694   9.626   5.448 -0.3855 -0.2523  0.0599
 9792W        W25409   9.269   1.750  12.019  0.0628 -0.2647  0.1187
 9793W        W25410   3.624  13.990   5.582  0.0059  0.3550  0.0916
 9794W        W25411   5.300  14.593   4.868  0.3867 -0.0297 -0.1907
 9795W        W25412  13.760   4.363   2.823 -0.1147  0.0902 -0.0482
 9796W        W25413   5.574   0.064   3.394  0.2979 -0.3530 -0.1621
 9797W        W25414   3.923  10.895  13.961  0.0827 -0.0697  0.0127
 9798W        W25415   9.407   0.210   4.141 -0.0414  0.3122  0.3923
 9799W        W25416  10.612   7.285  10.682  0.1278  0.4319  0.0481
 9800W        W25417   5.355   0.341   3.738  0.0159  0.0882 -0.2753
 9801W        W25418  12.443   4.182  12.800  0.2703  0.1806 -0.2096
 9802W        W25419   4.423   0.978   3.076  0.0087  0.1199  0.1052
 9803W        W25420   4.027  15.355  10.919 -0.4725  0.4393 -0.0391
 9804W        W25421   0.731  12.491   3.280 -0.1078  0.2423 -0.1263
 9805W        W25422   6.502   3.943   0.042  0.3753  0.1944 -0.5033
 9806W        W25423  16.064  15.175  15.056 -0.0483  0.0642 -0.1622
 9807W        W25424   4.405   7.014  13.397  0.2258 -0.2293  0.1716
 9808W        W25425   2.076  13.367   4.133 -0.0354 -0.2312 -0.1067
 9809W        W25426   3.046  15.944  14.573  0.1608 -0.0048 -0.2591
 9810W        W25427  12.745   3.331   2.975  0.0184  0.1656 -0.0285
 9811W        W25428  11.150   5.574  13.984  0.2523 -0.1065  0.0222
 9812W        W25429   9.841   5.239   3.029 -0.2354 -0.0250  0.1214
 9813W        W25430  16.269   0.407   1.907 -0.0810 -0.0666  0.2678
 9814W        W25431   3.531  12.908   2.198  0.0189 -0.1182 -0.2235
 9815W        W25432   9.027  17.522   2.241  0.0683  0.3494 -0.2707
 9816W        W25433   4.834  12.064   0.180  0.0733  0.1198  0.0320
 9817W        W25434  12.554   0.334  15.148 -0.1357 -0.1255  0.4896
 9818W        W25435  12.983  14.869   2.005 -0.0598  0.3782 -0.3336
 9819W        W25436   2.937   8.592   4.911  0.0060  0.1456  0.0249
 9820W        W25437   7.425  14.399   2.762 -0.0198 -0.2073  0.2476
 9821W        W25438   1.832  12.931   4.307  0.0127 -0.4347 -0.3610
 9822W        W25439  12.216   1.349   1.812  0.0506  0.0532  0.2994
 9823W        W25440  10.951  17.223   2.343 -0.2599 -0.1136 -0.1459
 9824W        W25441   6.750  11.015   4.157  0.0772  0.1122  0.0720
 9825W        W25442   6.821   2.382  15.959 -0.2593 -0.1570 -0.1752
 9826W        W25443  17.662   5.455   4.092  0.2005 -0.1544 -0.1528
 9827W        W25444   2.148   1.795   3.914  0.1288 -0.0349 -0.1795
 9828W        W25445   4.097  17.479   2.096 -0.0341 -0.2987 -0.2350
 9829W        W25446   4.311   0.955  13.712 -0.3481  0.1467  0.2003
 9830W        W25447  14.563  13.211  12.485 -0.0849  0.0216 -0.0630
 9831W        W25448  16.305   2.600   1.827  0.1141 -0.0850  0.0272
 9832W        W25449  12.836   1.165   2.881 -0.0649 -0.1218  0.0507
 9833W        W25450   7.009  11.630  14.324 -0.2362  0.2769  0.0456
 9834W        W25451   3.868  12.707   4.397 -0.2048  0.1049 -0.3344
 9835W        W25452   7.529  13.167   5.203  0.0822  0.0075 -0.0191
 9836W        W25453  17.301   5.262  15.219 -0.0757  0.1602  0.1068
 9837W        W25454  11.469  11.077  15.477  0.2101 -0.2224  0.1178
 9838W        W25455  15.851  15.208  11.626  0.2917 -0.2930 -0.0034
 9839W        W25456   1.954   6.768  11.061 -0.0761  0.0029  0.3416
 9840W        W25457  12.041   2.571   4.728  0.0483 -0.1185  0.3307
 9841W        W25458  11.053  10.045   0.547  0.0483 -0.0174  0.3517
 9842W        W25459   0.076   9.754  12.334 -0.0859  0.0918 -0.0258
 9843W        W25460   2.163   9.689  14.103  0.0863  0.0374  0.3718
 9844W        W25461  18.013   2.442   2.212 -0.0502 -0.0211  0.4768
 9845W        W25462   6.434   7.762  14.940 -0.0133  0.0948 -0.0080
 9846W        W25463  12.553   8.541   0.099  0.3030  0.4700  0.1649
 9847W        W25464  14.572  14.782   1.873 -0.1497  0.1473  0.2338
 9848W        W25465  11.700   5.754  13.884 -0.3278  0.3039  0.3133
 9849W        W25466  12.510   4.508  14.383 -0.0985  0.0289 -0.3211
 9850W        W25467   6.408   9.168   2.259 -0.0724 -0.0307  0.2112
 9851W        W25468   6.599   6.318  14.374  0.1788  0.0906 -0.0295
 9852W        W25469   8.094  13.047  15.147 -0.0523 -0.0607 -0.0002
 9853W        W25470   7.241  11.689  15.600  0.0289  0.1109  0.1157
 9854W        W25471   6.284  15.637   1.716 -0.0213 -0.1359  0.0095
 9855W        W25472   8.762   8.523   2.582  0.4425  0.1282 -0.0185
 9856W        W25473  15.314  10.498   2.359  0.0035  0.2846 -0.0676
 9857W        W25474  14.988  13.655  13.225  0.0141 -0.0042 -0.0599
 9858W        W25475  12.668   8.944   2.759 -0.0937 -0.2334  0.1279
 9859W        W25476   8.781  11.261   5.532  0.2303 -0.0677 -0.0663
 9860W        W25477  11.604  12.016  15.943  0.0556 -0.0540  0.0359
 9861W        W25478   9.364   9.917  10.723 -0.1144 -0.0102  0.0943
 9862W        W25479  17.189   6.638   3.482 -0.0307  0.0910  0.0855
 9863W        W25480   0.847   1.888  14.277 -0.1799  0.1956  0.0863
 9864W        W25481   7.315   5.379   0.506 -0.4471  0.1801 -0.1415
 9865W        W25482  16.829   7.231   2.712 -0.1298  0.1593  0.0426
 9866W        W25483  14.393  12.217   9.886 -0.0438 -0.0578 -0.1037
 9867W        W25484   7.140  12.284   3.636 -0.0367  0.0984 -0.0231
 9868W        W25485   5.972   6.640  10.419 -0.1547  0.0169 -0.1789
 9869W        W25486   5.754  13.599   4.083 -0.0802  0.0483 -0.1064
 9870W        W25487   1.399  15.194  11.967  0.1394 -0.0347 -0.0498
 9871W        W25488  15.358  16.711  12.882  0.1741  0.1260  0.1769
 9872W        W25489   4.411   8.519   2.409  0.1272  0.0380 -0.3788
 9873W        W25490  10.135  15.199  10.573 -0.3177  0.0562  0.2202
 9874W        W25491  11.634  14.490   4.645  0.1668 -0.0328 -0.1839
 9875W        W25492  11.483  16.667  15.513  0.0797  0.1618 -0.0921
 9876W        W25493  14.032   3.421   0.763 -0.0059  0.1613  0.2238
 9877W        W25494  16.499   4.767  14.693 -0.1853  0.1540  0.0758
 9878W        W25495  15.089   5.565  13.660 -0.1354  0.0008 -0.2380
 9879W        W25496  15.363   6.974   1.303  0.1362  0.2625 -0.0473
 9880W        W25497   2.913   4.441  12.975  0.1481  0.1254 -0.1672
 9881W        W25498   2.219   3.280  14.450 -0.1053  0.3454 -0.2209
 9882W        W25499   9.189  11.834   4.999 -0.1193  0.2076  0.1353
 9883W        W25500  15.192   8.516  11.344 -0.1897  0.2037  0.0062
 9884W        W25501   6.638  11.740  12.878  0.3563  0.2519  0.0422
 9885W        W25502   6.552   1.673  12.373  0.1230  0.2316 -0.2018
 9886W        W25503   4.216  15.207   4.216 -0.0363 -0.0549  0.1650
 9887W        W25504  16.393  16.011  12.550 -0.1060 -0.1977  0.2939
 9888W        W25505  12.764   1.626   4.451 -0.2546  0.3277  0.2606
 9889W        W25506  12.437   4.963  13.936 -0.0570  0.2088  0.3585
 9890W        W25507  13.112   6.570   2.102  0.2425 -0.0318 -0.3117
 9891W        W25508   6.993   1.584   5.334 -0.3330 -0.0190 -0.2609
 9892W        W25509  14.840  13.605   0.127  0.0666 -0.4012 -0.1920
 9893W        W25510  13.255   7.075   3.201  0.0820 -0.2518  0.1142
 9894W        W25511  10.953   1.432   5.522  0.4546  0.2133 -0.2944
 9895W        W25512  17.731  11.312   0.770 -0.0996  0.1872 -0.1783
 9896W        W25513  16.663   8.787  10.724  0.1417 -0.0704 -0.1894
 9897W        W25514  15.742   1.024   5.665 -0.1667 -0.0558 -0.2457
 9898W        W25515  14.599  12.446  11.691 -0.0792  0.1423 -0.0072
 9899W        W25516  10.754   7.167  11.445 -0.1323  0.0434 -0.0481
 9900W        W25517   5.896   5.612   0.884  0.0878  0.0663  0.1898
 9901W        W25518  14.552  11.306   3.799 -0.0440  0.0048 -0.1712
 9902W        W25519  13.660   4.831  11.757  0.3490  0.1979 -0.0634
 9903W        W25520  13.289   2.762   2.353  0.1345  0.1866  0.0969
 9904W        W25521  17.751   0.624   4.769 -0.2969  0.1953  0.3189
 9905W        W25522  17.178  16.552   2.016 -0.2284  0.1695  0.0156
 9906W        W25523   2.628   8.758   3.975 -0.1976  0.2151 -0.2120
 9907W        W25524  12.431   4.688   3.174  0.3881  0.0694  0.0072
 9908W        W25525  15.512   6.243  14.806  0.1100 -0.0429 -0.2769
 9909W        W25526  11.937   5.163   2.666  0.0639 -0.2481 -0.2961
 9910W        W25527   2.085  11.445  16.094 -0.0718 -0.0615 -0.3167
 9911W        W25528   2.653   1.800  10.090  0.3496  0.0538 -0.2119
 9912W        W25529   3.741  11.717  13.215 -0.2431 -0.1003  0.3328
 9913W        W25530  13.981   8.373  12.575 -0.2809 -0.0476  0.0110
 9914W        W25531   4.117  15.413  13.261 -0.0493  0.4142  0.0836
 9915W        W25532   5.200   1.523   3.286  0.5140 -0.1303  0.0261
 9916W        W25533  12.669   0.056   1.926  0.0466 -0.1331 -0.0273
 9917W        W25534  14.856   4.410  13.703  0.2574  0.2362 -0.0292
 9918W        W25535   3.670  10.816   3.740  0.1677 -0.2806 -0.1721
 9919W        W25536   1.094   7.720   0.079 -0.2226  0.0440 -0.2191
 9920W        W25537  10.865   6.418   0.139  0.1678  0.0144 -0.0209
 9921W        W25538  11.126  18.382  13.786  0.2755 -0.0810 -0.0387
 9922W        W25539   2.418  12.191  11.699 -0.1172 -0.1936 -0.0263
 9923W        W25540  11.551  17.309  12.443  0.3938  0.1325 -0.0946
 9924W        W25541   9.550   0.653   2.877 -0.0384 -0.0108  0.1401
 9925W        W25542   2.950  11.530  15.337 -0.0081 -0.2937 -0.0420
 9926W        W25543  18.303  17.847   1.646 -0.0834 -0.0526 -0.0199
 9927W        W25544   5.968  16.736  11.045  0.0049 -0.1436 -0.2312
 9928W        W25545   3.383   6.095  13.060 -0.0758 -0.0943  0.1757
 9929W        W25546   0.311  13.615  13.588 -0.2289 -0.2266 -0.0159
 9930W        W25547  12.148  17.557  11.164  0.5225 -0.2048 -0.0563
 9931W        W25548  13.014  17.576  12.575 -0.0515 -0.1494  0.0382
 9932W        W25549  11.898   9.684   3.206  0.0792  0.1566 -0.3649
 9933W        W25550   7.750  17.854  14.913 -0.0669 -0.0209 -0.0723
 9934W        W25551  12.086   4.377   2.365 -0.1452 -0.0510  0.1174
 9935W        W25552  12.442   8.978  11.241 -0.0963 -0.0570 -0.2275
 9936W        W25553  12.245  13.850  15.905 -0.0858  0.0610  0.4728
 9937W        W25554  11.365  15.467  13.620  0.1324 -0.1892 -0.2848
 9938W        W25555   8.598  10.078   1.963 -0.3025 -0.1739  0.0255
 9939W        W25556   5.362  12.963   3.989  0.3433 -0.0060 -0.0159
 9940W        W25557   0.902   5.216   1.270 -0.0906  0.0195 -0.0553
 9941W        W25558  12.668  13.881   2.773 -0.0059 -0.2427  0.0348
 9942W        W25559  13.100   6.689  14.030 -0.1795 -0.4692 -0.1253
 9943W        W25560   0.960  17.102   1.965 -0.0698 -0.3020  0.0243
 9944W        W25561  10.537   1.792   0.712 -0.1996 -0.0990 -0.4942
 9945W        W25562   0.373  11.262  12.746  0.2065  0.1211  0.3548
 9946W        W25563  13.319   5.565   1.131  0.0654 -0.2829 -0.3478
 9947W        W25564   4.099  12.174  12.541  0.0460 -0.0332  0.0227
 9948W        W25565  13.227  10.279  10.789  0.0098 -0.2179 -0.1232
 9949W        W25566  15.292   4.394   0.851 -0.0748  0.2264 -0.2044
 9950W        W25567  17.603  17.437  15.693 -0.1852 -0.1383  0.2091
 9951W        W25568   5.861  12.758  12.119  0.1385  0.3825  0.0761
 9952W        W25569   9.354  15.713  12.614 -0.0430 -0.3262 -0.0526
 9953W        W25570  16.930  16.446   4.938 -0.1155 -0.1033 -0.2533
 9954W        W25571  16.015  14.366   0.059  0.2736  0.1773  0.1532
 9955W        W25572  17.416  14.361  10.975 -0.1304  0.0622 -0.0167
 9956W        W25573   6.640   1.416  12.946  0.2694  0.1222  0.1346
 9957W        W25574   7.067  15.691   5.475 -0.1338  0.0930  0.1815
 9958W        W25575  17.443   7.939  14.627 -0.3327  0.1102 -0.0560
 9959W        W25576   9.628   7.507   9.733 -0.0619 -0.1562 -0.2527
 9960W        W25577  15.913   6.957   3.725  0.2172  0.0937  0.0248
 9961W        W25578   9.574  17.127   0.052  0.2462  0.2386  0.1046
 9962W        W25579   5.343   6.382   3.996 -0.3365  0.1904  0.1521
 9963W        W25580  10.492   6.998   3.918 -0.1489  0.3193  0.0585
 9964W        W25581  17.978  14.546   5.120 -0.0770  0.1508 -0.4537
 9965W        W25582  15.896  14.310  11.386  0.2746 -0.2956 -0.0952
 9966W        W25583   6.329  12.291  14.211 -0.2711 -0.0251  0.2949
 9967W        W25584  13.134   0.839  12.397 -0.0717  0.2104 -0.4136
 9968W        W25585  16.636   3.885   0.031  0.1542 -0.1235  0.1677
 9969W        W25586   6.230   9.893   5.467  0.0817 -0.0846  0.4879
 9970W        W25587  14.437   2.602  13.576 -0.1987 -0.1952  0.1228
 9971W        W25588  12.084   6.269   4.706  0.0750  0.2027 -0.1895
 9972W        W25589  10.167  13.022   5.731 -0.1901  0.1514 -0.0213
 9973W        W25590  15.835  15.697  13.428 -0.1020  0.4604 -0.0417
 9974W        W25591  15.308  12.495   0.042  0.0247 -0.1904  0.0094
 9975W        W25592   3.776  17.323   4.486 -0.3219 -0.0325 -0.0578
 9976W        W25593   3.757   1.354  15.741  0.2385  0.2281 -0.0966
 9977W        W25594   7.541  16.043  12.063 -0.0154 -0.4142  0.0204
 9978W        W25595  13.707   3.082  15.328 -0.2665 -0.3325  0.1195
 9979W        W25596   4.526   9.345   2.767  0.1231  0.3224 -0.3160
 9980W        W25597   9.410   0.999   1.045 -0.1064  0.1702  0.0863
 9981W        W25598  12.149   5.838  12.715  0.0710  0.0447 -0.0947
 9982W        W25599  18.246  13.347   4.872  0.1768 -0.1447 -0.0366
 9983W        W25600  10.816   8.782  10.956 -0.0821 -0.3241  0.1733
 9984W        W25601  13.991  11.040   5.233 -0.1487 -0.0582 -0.0016
 9985W        W25602   0.366   6.346  11.387  0.0584 -0.2976  0.0440
 9986W        W25603  13.440  11.871  11.126 -0.0480  0.0378  0.0360
 9987W        W25604  10.546  15.480   3.206  0.0709  0.2521  0.1106
 9988W        W25605   3.068  16.861   4.929 -0.0263  0.0456 -0.2182
 9989W        W25606   6.266  14.888  11.673  0.0195  0.2521 -0.0261
 9990W        W25607   0.360   7.441   0.678  0.2759  0.0625 -0.1593
 9991W        W25608   0.581  14.449  13.781  0.0639 -0.0342  0.3139
 9992W        W25609   8.598  10.033   2.479 -0.3866  0.4509 -0.3963
 9993W        W25610   1.804  11.570  11.581  0.0361  0.1662  0.1659
 9994W        W25611  16.538  17.885  14.160 -0.0170 -0.0897 -0.0389
 9995W        W25612  12.402   8.164   2.516 -0.1008 -0.2808  0.0458
 9996W        W25613   8.781  12.094   0.834 -0.4956  0.0773  0.6126
 9997W        W25614   6.590  11.735  11.691 -0.0991 -0.0160 -0.0905
 9998W        W25615  12.985   0.751  11.924  0.1044 -0.3090 -0.3312
 9999W        W25616   9.920   7.066   0.249 -0.4324  0.1540  0.0184
10000W        W25617  15.038  12.158   5.181  0.2915  0.1461  0.1798
10001W        W25618  17.075   8.249  11.339 -0.2358 -0.0515 -0.0896
10002W        W25619   1.941   6.411  14.410 -0.0826 -0.2765  0.2076
10003W        W25620  14.471   5.128  13.004 -0.1328  0.1051  0.2483
10004W        W25621   6.786  14.318   5.593 -0.1800 -0.4510 -0.0031
10005W        W25622  12.949   1.647  11.866  0.4240  0.1036  0.0301
10006W        W25623   8.969   6.216   2.489  0.1240  0.3650 -0.3473
10007W        W25624  15.783   9.196   1.617  0.1295 -0.2283 -0.0455
10008W        W25625  12.945   7.694  15.963 -0.0965  0.0148 -0.1819
10009W        W25626   1.276   1.472  11.361 -0.2209 -0.3071 -0.0759
10010W        W25627   5.457   4.763  10.953  0.3599 -0.0775  0.0613
10011W        W25628  10.740  15.481  14.447  0.2107 -0.0403  0.0791
10012W        W25629  15.995   3.583   3.978  0.1046  0.3543  0.0152
10013W        W25630  11.995   3.380   4.338  0.2742  0.0436  0.0666
10014W        W25631  13.108  15.701   1.934  0.1037  0.0267 -0.0599
10015W        W25632  15.563   7.663   2.588  0.0996  0.2779 -0.1631
10016W        W25633  10.759   3.948   5.738  0.1440 -0.0738 -0.0567
10017W        W25634   5.368   7.377  15.302 -0.2241 -0.0247 -0.1062
10018W        W25635  14.731  16.155   3.595  0.3893  0.1777  0.0096
10019W        W25636   8.283  16.722  13.720 -0.0508 -0.0585  0.0195
10020W        W25637  17.677   4.731   3.418 -0.2042 -0.2785  0.0210
10021W        W25638  10.959   4.112  15.760  0.0594  0.1660 -0.0841
10022W        W25639  14.220   5.128  12.590  0.2651 -0.0125  0.5908
10023W        W25640   4.742  18.441   3.159 -0.0825 -0.2939  0.0107
10024W        W25641   1.407  14.038  14.395 -0.1907 -0.0257 -0.0405
10025W        W25642   6.454  11.619   2.661 -0.0828 -0.3078  0.2062
10026W        W25643  12.333  14.000  11.196  0.1007  0.0425  0.0593
10027W        W25644  11.681   0.435   3.669 -0.0020  0.2236 -0.1175
10028W        W25645   5.611   8.852   3.661  0.1958  0.1030 -0.0706
10029W        W25646  10.523   7.918   2.304 -0.1563 -0.3425  0.2058
10030W        W25647  17.811  13.966   1.502 -0.0778 -0.0211  0.4021
10031W        W25648   3.694  12.772  15.403  0.0711 -0.2407  0.0975
10032W        W25649   2.687   7.588   0.221  0.1340 -0.2709  0.1743
10033W        W25650  10.488   5.278   3.328  0.1238 -0.0592  0.4455
10034W        W25651   5.051  16.744   0.676 -0.3039  0.1604  0.1123
10035W        W25652   9.261  10.316   2.658  0.0597  0.1998  0.2536
10036W        W25653  11.581   5.129   2.265  0.0567 -0.0244 -0.1105
10037W        W25654  11.623   2.220  11.435 -0.3184 -0.0107 -0.1080
10038W        W25655   9.502  12.771   3.158 -0.1180  0.1771 -0.3090
10039W        W25656   5.870   1.299   0.705 -0.1306 -0.0030 -0.2199
10040W        W25657  14.536   6.464  12.352  0.1050  0.1104  0.1318
10041W        W25658  12.205   0.442  14.403  0.0944 -0.1006  0.0679
10042W        W25659  14.439   7.650  15.552 -0.0650  0.0149  0.0493
10043W        W25660   3.723  14.943   4.135  0.2375 -0.0513 -0.0779
10044W        W25661  17.496   8.519   2.057 -0.5372 -0.0786 -0.4065
10045W        W25662  14.156  15.550   2.252  0.0030  0.0156 -0.1320
10046W        W25663  15.555   6.570   4.144 -0.1514  0.1002 -0.0208
10047W        W25664  11.729   4.180   4.767  0.1812 -0.1235  0.0988
10048W        W25665   8.938  11.284  13.454 -0.2920 -0.1075  0.1842
10049W        W25666  13.008   5.831   1.587  0.0038 -0.3083  0.0380
10050W        W25667   5.331   3.078  11.586  0.0767 -0.1416 -0.3874
10051W        W25668   6.643   3.151  15.305 -0.1215 -0.1767  0.3879
10052W        W25669   9.785   2.279   3.580 -0.2830  0.4025 -0.0122
10053W        W25670   1.840  13.689   1.917  0.2331 -0.0949 -0.2048
10054W        W25671   8.312   5.079   2.337 -0.0439  0.0267 -0.0562
10055W        W25672  15.358   7.210   5.551 -0.3656  0.1685  0.4088
10056W        W25673  13.023  16.848  12.741  0.3275  0.0976 -0.0022
10057W        W25674   8.955   4.377   1.314 -0.2893 -0.1945  0.1502
10058W        W25675   3.137   9.675  11.747  0.2486  0.0548  0.0364
10059W        W25676  15.243  12.181  11.232 -0.1443 -0.3431 -0.3184
10060W        W25677  10.645  13.085   5.224 -0.2450  0.0026 -0.0685
10061W        W25678  12.120  13.787  11.618 -0.2180 -0.3664  0.0685
10062W        W25679   6.405  10.067   0.690 -0.0905 -0.0737  0.1915
10063W        W25680  17.597   7.839   4.353  0.0895  0.3396  0.1461
10064W        W25681   0.745  12.207   4.134 -0.3318  0.0781 -0.3074
10065W        W25682   0.966  13.911  15.808  0.0707  0.0213  0.0755
10066W        W25683  16.050   0.361  11.819 -0.3830  0.3109  0.1283
10067W        W25684  16.671  11.173  15.455 -0.0787 -0.0850 -0.0285
10068W        W25685  13.205  10.418  15.202  0.2642  0.2166  0.1170
10069W        W25686  11.754  15.165   5.299 -0.2984  0.1916 -0.0094
10070W        W25687   1.919   3.886  13.336  0.0750 -0.2382  0.1405
10071W        W25688  10.137   7.048  12.495 -0.0682 -0.0363 -0.0289
10072W        W25689  10.541   8.228  13.467 -0.0837  0.1436 -0.1250
10073W        W25690   3.719   6.740  12.723 -0.0568  0.3031  0.1448
10074W        W25691   9.406  15.529  13.602  0.2900  0.1682  0.3319
10075W        W25692   9.362   7.122  12.847 -0.1658 -0.0689 -0.2066
10076W        W25693   7.158  13.823   3.820 -0.0551  0.2987  0.1093
10077W        W25694  18.074   0.425  13.130  0.0424  0.2781  0.2952
10078W        W25695  10.312   2.043  11.017  0.1619  0.1857 -0.1458
10079W        W25696  14.220  15.450  16.029 -0.2055 -0.0395  0.2541
10080W        W25697   3.298  10.777   0.618  0.1247 -0.1951 -0.0613
10081W        W25698   2.414  11.003  11.611  0.1060  0.5573 -0.2884
10082W        W25699   3.995  17.539   0.201  0.2039  0.0063 -0.1002
10083W        W25700   1.755   0.023   1.728  0.0245 -0.1428 -0.4348
10084W        W25701   7.421  10.535  12.490 -0.0560 -0.2872  0.2377
10085W        W25702   9.157   3.460  15.752  0.1965  0.0532 -0.0783
10086W        W25703  14.664  10.628   4.475 -0.2382  0.3612  0.1239
10087W        W25704  16.979   4.316  15.202  0.2461 -0.0635  0.0897
10088W        W25705  10.686   8.351  14.566  0.0334  0.0717  0.0777
10089W        W25706   8.813  17.092   2.549  0.4322  0.1779  0.0034
10090W        W25707   0.331  18.120   0.024  0.2997 -0.2437 -0.3746
10091W        W25708   6.503  13.032   4.125 -0.2578 -0.0133 -0.0707
10092W        W25709  13.239  18.200  11.323  0.2948  0.1634 -0.2524
10093W        W25710   3.328   2.138  12.325  0.0185 -0.0270  0.0461
10094W        W25711   5.928  16.871  14.490 -0.2526  0.2616  0.1135
10095W        W25712   5.709  16.554  12.437 -0.1715  0.2863  0.0791
10096W        W25713  12.912   5.634  12.507  0.0893 -0.1269 -0.0981
10097W        W25714   2.208  15.131  11.566 -0.1666 -0.1801 -0.2704
10098W        W25715   8.166   4.768   1.970  0.3107 -0.4059  0.0103
10099W        W25716   9.555  14.867   0.498  0.2884  0.0324 -0.0460
10100W        W25717   3.037  14.531   5.471  0.1802  0.2745 -0.0853
10101W        W25718  16.760  11.903   1.804 -0.1474  0.1919 -0.0737
10102W        W25719  12.909   0.075   4.136  0.0608 -0.1435 -0.2126
10103W        W25720  12.482   5.553   4.736 -0.0094 -0.1500  0.3761
10104W        W25721   4.534   8.953   1.854 -0.4427 -0.2728  0.0316
10105W        W25722   1.349  11.475   1.827 -0.0633 -0.1610  0.4129
10106W        W25723   3.296   6.318   4.477 -0.2998  0.2147  0.0267
10107W        W25724  12.551  17.436   1.813  0.1704 -0.1948  0.0261
10108W        W25725  12.147   2.965   3.668 -0.1874  0.3976  0.1774
10109W        W25726   6.644  17.072   0.328  0.1595 -0.0781  0.2815
10110W        W25727   4.402   9.424  14.249  0.1900  0.1994 -0.1889
10111W        W25728   7.425  14.225   0.842  0.4633  0.1036  0.1860
10112W        W25729   2.128   7.841   3.093 -0.1366  0.1159 -0.0221
10113W        W25730   0.825  15.191   5.504  0.2260  0.2451 -0.1442
10114W        W25731   6.530   8.324  14.767  0.0313  0.0699 -0.0695
10115W        W25732  14.179  17.257   1.239  0.1153 -0.1616 -0.1800
10116W        W25733  16.289  13.471  13.601 -0.0905  0.1447 -0.2454
10117W        W25734   6.859  11.829   1.306 -0.1426 -0.2370  0.1702
10118W        W25735   5.999  13.519   3.625 -0.1516  0.1923  0.0728
10119W        W25736  13.213   3.591  11.095 -0.2418  0.2873 -0.1793
10120W        W25737  11.857   1.873  12.996  0.0090  0.0171  0.0146
10121W        W25738  18.283   9.449   2.859 -0.0474 -0.2040  0.3234
10122W        W25739  11.196  10.606   3.666  0.1942  0.1781  0.3675
10123W        W25740   4.030  15.899   6.267 -0.0063 -0.1546 -0.1317
10124W        W25741  11.289   8.461  14.505 -0.1192 -0.2800  0.0557
10125W        W25742  12.840   3.166  14.953 -0.5134 -0.3728 -0.0458
10126W        W25743   4.179   9.551  10.903  0.0784 -0.0734 -0.3696
10127W        W25744   8.083   0.609   4.536  0.1394 -0.3120  0.0318
10128W        W25745  13.602   7.426   3.014 -0.0147  0.0796 -0.0281
10129W        W25746   0.623  16.973   3.660 -0.0186  0.1580 -0.0520
10130W        W25747  12.055  14.488  13.956 -0.1485  0.0634  0.0473
10131W        W25748  14.839  13.967   1.742  0.1408 -0.1114  0.1655
10132W        W25749   6.106  14.870   5.921  0.3210  0.3991  0.1477
10133W        W25750   4.402  15.467  15.076  0.1112  0.3691  0.0424
10134W        W25751   6.176   9.965  12.158 -0.0432 -0.3065 -0.1165
10135W        W25752  12.265  15.997  13.467  0.0757  0.0811  0.2774
10136W        W25753  13.531  11.512   1.298 -0.1258  0.0891 -0.2028
10137W        W25754  12.219   5.609   2.884 -0.1995 -0.2143 -0.2119
10138W        W25755  13.230  11.169  12.817  0.1119  0.1144  0.1267
10139W        W25756   1.255   4.202   2.437  0.1744 -0.1915  0.1866
10140W        W25757   7.381   5.305  16.055  0.1036  0.2569  0.2955
10141W        W25758   0.362  13.618  11.847 -0.1030 -0.1273  0.1881
10142W        W25759   6.865   9.848   1.661 -0.2659 -0.2611 -0.0823
10143W        W25760  11.481   3.506   0.113  0.3665 -0.1517  0.2987
10144W        W25761   5.377   4.430   0.936 -0.1759 -0.0257 -0.0241
10145W        W25762   1.484   3.978   3.390  0.4315  0.1847  0.1053
10146W        W25763   7.500  11.924  12.658 -0.0385  0.1248  0.2115
10147W        W25764   2.817   3.833   2.813  0.1494  0.1328 -0.0370
10148W        W25765  13.437   9.886   5.177  0.1210  0.0318 -0.0812
10149W        W25766   0.615  12.030  14.856 -0.2068  0.0902 -0.2739
10150W        W25767  15.292  11.282   4.677 -0.0456  0.1702 -0.0914
10151W        W25768  10.185   1.528   3.142  0.1908  0.0083 -0.1315
10152W        W25769   8.176  11.965  13.638 -0.1125  0.0998  0.1264
10153W        W25770  12.606  12.704  14.422  0.0785  0.0544 -0.3665
10154W        W25771   2.077  12.047   4.764  0.1424  0.1917  0.0547
10155W        W25772   7.805   9.246  12.345 -0.2542 -0.0751 -0.2685
10156W        W25773   6.202   8.864   0.339 -0.2633 -0.1322 -0.0825
10157W        W25774  11.156  17.856   4.076  0.1588 -0.1144  0.0620
10158W        W25775  16.742  11.615  15.247  0.0041  0.2300 -0.0165
10159W        W25776  10.334   2.689   0.978 -0.1854 -0.2787 -0.2631
10160W        W25777   1.408   7.027   1.810 -0.0548 -0.0658  0.2224
10161W        W25778   5.170   1.786  13.097  0.0065 -0.0012  0.2846
10162W        W25779  10.873   8.463   5.029  0.1611 -0.1843  0.0120
10163W        W25780  12.913  15.181   5.200 -0.1327 -0.2644  0.1832
10164W        W25781  14.166  14.071  12.380 -0.0439  0.2023 -0.3166
10165W        W25782  12.867   1.077  12.829 -0.0001  0.1477  0.0604
10166W        W25783  14.860  11.586   1.483 -0.2108  0.1641 -0.3352
10167W        W25784  17.962  16.037  11.717  0.1872  0.1151 -0.1153
10168W        W25785  12.576   3.160   0.219  0.1838  0.0182 -0.3233
10169W        W25786  14.999   8.584  14.078 -0.0691  0.0003  0.4672
10170W        W25787  10.290  13.034   2.738  0.0225 -0.2128  0.0923
10171W        W25788   6.919   7.159  15.348  0.0440 -0.0956 -0.0110
10172W        W25789  15.703   2.804   2.836 -0.0544  0.0086 -0.2671
10173W        W25790   1.340  15.002   5.865  0.1054  0.4260  0.2544
10174W        W25791   3.330   4.254   0.626  0.3635  0.0522  0.1554
10175W        W25792   1.107   1.961   6.062  0.2031  0.2308  0.2045
10176W        W25793   7.132  16.793  15.514 -0.1860 -0.3561 -0.0235
10177W        W25794  18.408  11.078  11.194 -0.1959 -0.2277 -0.1266
10178W        W25795   7.828  16.500  12.840 -0.0962  0.2184 -0.2189
10179W        W25796   7.844   7.363   4.946 -0.2034  0.2570  0.4630
10180W        W25797   3.106   5.190   3.596 -0.0724 -0.2233 -0.1291
10181W        W25798  15.384   2.701   2.337 -0.1504  0.0579 -0.2039
10182W        W25799  14.307  11.957  12.514 -0.3827  0.0227 -0.0504
10183W        W25800  15.015   4.523   1.283  0.2289 -0.2478 -0.2248
10184W        W25801  15.511   6.027   2.476  0.3118 -0.2053 -0.0645
10185W        W25802  13.924  15.141   5.915 -0.0759  0.1285  0.0091
10186W        W25803  18.423   4.722  11.901 -0.0783  0.0549 -0.1712
10187W        W25804  17.624   3.856   3.790  0.1650 -0.1022 -0.1191
10188W        W25805  17.770  14.035   2.672 -0.0191  0.0278 -0.1352
10189W        W25806   8.974   5.723   2.700  0.1947  0.0999  0.3513
10190W        W25807  14.611   5.847   3.823  0.0670  0.3965 -0.2013
10191W        W25808   4.419   2.111  11.746 -0.1996  0.1441 -0.1800
10192W        W25809  16.755   4.324  13.478 -0.2061 -0.1104  0.3126
10193W        W25810  12.038   4.012   1.154  0.0429 -0.0293  0.3091
10194W        W25811   6.534   1.407   2.949 -0.0679 -0.0093  0.0974
10195W        W25812  17.764   6.044   4.016  0.2335 -0.0351  0.2614
10196W        W25813  18.041   2.814  10.713  0.1299  0.0091  0.3426
10197W        W25814  16.570   6.662  11.189  0.0268 -0.1753  0.0814
10198W        W25815  11.378   0.201  12.633 -0.0477 -0.0453 -0.2812
10199W        W25816   3.593   4.682   0.944  0.4030 -0.0054  0.0079
10200W        W25817   8.493  13.993   1.872 -0.1995  0.0552 -0.0263
10201W        W25818   0.688  15.625   3.918 -0.0898 -0.1177 -0.0539
10202W        W25819   1.945  12.664  14.649  0.1153  0.2394 -0.2164
10203W        W25820   0.549  11.521   1.818  0.3974 -0.1661 -0.0072
10204W        W25821  13.805  10.971  13.535 -0.1049  0.3029  0.1733
10205W        W25822  14.477  14.019  15.396 -0.0395 -0.0077  0.4757
10206W        W25823  14.124  12.134  10.908 -0.0829 -0.2214 -0.1326
10207W        W25824   5.327  15.239   0.799 -0.1934  0.0125 -0.1534
10208W        W25825   4.421  17.345   6.679  0.1768 -0.2751 -0.0713
10209W        W25826   9.555  12.598   0.615  0.1043 -0.1752 -0.1664
10210W        W25827   2.218  14.390   4.030 -0.0124  0.0230 -0.0468
10211W        W25828   1.214   2.142  12.355  0.0216 -0.0903 -0.0813
10212W        W25829  10.546  14.935  12.604 -0.0781 -0.0472  0.0785
10213W        W25830   3.864  12.229  15.184 -0.1375 -0.1455 -0.0837
10214W        W25831  16.266   7.461  13.480  0.0260 -0.2108 -0.1241
10215W        W25832   3.430  18.216  11.954  0.1583 -0.2835  0.0581
10216W        W25833  17.628  15.750  10.488 -0.3771  0.0538 -0.2812
10217W        W25834   5.648   7.425   0.222  0.0222  0.0291 -0.0549
10218W        W25835   7.848  18.394  12.197  0.2539 -0.3172  0.1370
10219W        W25836  18.341   1.648   3.712 -0.2984 -0.2891 -0.2843
10220W        W25837   7.979  10.201  12.846 -0.1201  0.2089  0.1300
10221W        W25838   1.341  10.873  16.070  0.2876  0.0711 -0.3689
10222W        W25839  12.556   8.624   2.304  0.1968  0.0913 -0.1060
10223W        W25840   8.485   7.065   2.200  0.0576  0.0521 -0.2615
10224W        W25841   9.251   0.169   0.146  0.0476  0.0129  0.0336
10225W        W25842   7.173  11.011   2.780  0.0078  0.2894  0.1009
10226W        W25843   5.647   8.781  12.967 -0.1897 -0.1111  0.1570
10227W        W25844  11.020   6.354   1.772  0.2143  0.1615  0.2478
10228W        W25845  15.767  11.305  15.562 -0.3423  0.0615 -0.0195
10229W        W25846  14.504   6.972  12.297  0.0960  0.1881 -0.0627
10230W        W25847   9.469   3.139  11.080 -0.0282 -0.3500 -0.0264
10231W        W25848  14.452  11.880  11.848  0.2262  0.2802 -0.0214
10232W        W25849   9.203  17.352  14.466 -0.4379 -0.0100 -0.4018
10233W        W25850   4.200   5.051   3.934  0.2056  0.2097  0.1793
10234W        W25851  16.649   0.654  13.797  0.3533 -0.1951 -0.4050
10235W        W25852   0.365  16.491  12.098 -0.2040  0.0151 -0.0082
10236W        W25853  13.901   5.125   2.366  0.0018  0.0140  0.1960
10237W        W25854   6.510   7.496  10.764 -0.1058 -0.1936  0.1628
10238W        W25855   1.469   9.700   2.051  0.4849  0.0127 -0.1822
10239W        W25856  15.545   6.249  16.034 -0.1206  0.0408 -0.0659
10240W        W25857  15.873   5.605  11.601 -0.0158 -0.1223  0.2326
10241W        W25858  16.212  15.114   0.744  0.0323 -0.1465  0.0960
10242W        W25859   1.074  14.093   3.115 -0.0285 -0.1165  0.0761
10243W        W25860   4.574   8.481  11.309  0.3285 -0.2099 -0.2628
10244W        W25861  15.737  15.186  15.991  0.0143  0.0090 -0.0129
10245W        W25862  12.576   0.119   0.677  0.0178 -0.2002 -0.1297
10246W        W25863  16.246  16.590  12.623  0.0938  0.2898  0.1931
10247W        W25864  17.497   8.386  11.041 -0.1042 -0.1157  0.1014
10248W        W25865   9.535   0.383  14.203  0.2860 -0.0520 -0.0520
10249W        W25866   5.138   9.063   3.516 -0.1430  0.0423 -0.4101
10250W        W25867   2.244   5.593   3.390 -0.1677  0.2380 -0.0556
10251W        W25868   2.888   1.830  12.342  0.3326  0.1880 -0.0864
10252W        W25869   8.955   6.739  15.997  0.0668 -0.2033 -0.0310
10253W        W25870   8.394   7.308  12.009 -0.0385 -0.0223 -0.1361
10254W        W25871   7.593  14.609   0.484 -0.3295 -0.0201 -0.0600
10255W        W25872   1.618  13.466   5.631  0.3932  0.2631  0.1288
10256W        W25873   2.634  14.122   1.778 -0.1406 -0.2095  0.0931
10257W        W25874  10.909  14.159   5.919  0.1085  0.0155 -0.1439
10258W        W25875  10.921   9.497  14.856  0.0972 -0.2624 -0.0439
10259W        W25876   0.199   4.334   4.973  0.2535 -0.1707  0.0890
10260W        W25877   5.790   2.152   0.269  0.2458  0.2431  0.5409
10261W        W25878   0.416   7.249  13.723  0.3238 -0.0737  0.0818
10262W        W25879  14.942   9.873  14.102  0.0666 -0.1013  0.0598
10263W        W25880   0.912   5.412   4.627  0.1722  0.2392 -0.1585
10264W        W25881  10.186   4.720   0.187  0.1919 -0.0635 -0.0771
10265W        W25882  16.797   9.010  12.728 -0.2640  0.1230 -0.0940
10266W        W25883   6.744   9.669   0.667  0.1020  0.0740  0.3081
10267W        W25884   4.159   8.689   3.150 -0.1274 -0.1409 -0.0374
10268W        W25885  13.230  15.593   0.200  0.2174  0.0152 -0.3224
10269W        W25886  13.263   8.167  15.710 -0.2014  0.1592  0.0076
10270W        W25887  17.730   5.292  13.124  0.1020  0.3837  0.1556
10271W        W25888  16.260   8.535  10.443  0.0448 -0.0575 -0.1353
10272W        W25889  15.653  12.748  12.044 -0.0785  0.2978  0.0506
10273W        W25890  10.768   0.206   5.514 -0.1894 -0.1969 -0.4094
10274W        W25891   7.092   4.603  14.041 -0.0379 -0.4184  0.3205
10275W        W25892   1.648   7.238   1.029  0.3167 -0.3097  0.3296
10276W        W25893   5.823   6.197  12.333  0.3284 -0.1972  0.1444
10277W        W25894   0.781   6.311   5.135  0.4137 -0.0785 -0.1055
10278W        W25895   1.143   1.809  11.914  0.5205  0.0161 -0.3546
10279W        W25896   1.549   5.027  15.710 -0.1788 -0.0751  0.1584
10280W        W25897  14.971  12.554   3.029 -0.1327  0.2098 -0.3019
10281W        W25898   4.989  11.251  15.759 -0.2251  0.1158  0.0201
10282W        W25899   9.695  14.808  12.987  0.0951  0.0580  0.0527
10283W        W25900   8.499   6.791   1.792 -0.0376  0.3540 -0.3683
10284W        W25901   4.237   1.551  13.087  0.1683  0.3157  0.1693
10285W        W25902  16.396  14.973   1.227 -0.1004  0.3029  0.1253
10286W        W25903   6.623   5.666  15.320  0.1171  0.1771 -0.1294
10287W        W25904   7.893   5.393  15.597  0.4263 -0.2267  0.2201
10288W        W25905   7.366   8.045   2.068 -0.1962  0.2461 -0.1113
10289W        W25906   5.179   4.298   0.508  0.1811 -0.2739  0.0592
10290W        W25907   4.420  17.764  15.722 -0.2388  0.0487  0.0150
10291W        W25908   3.665  13.173   0.893 -0.2018  0.0232 -0.0233
10292W        W25909  17.905  12.340   2.703  0.2625  0.1163 -0.1306
10293W        W25910  18.171  11.402   1.134  0.0607 -0.3981  0.0990
10294W        W25911  14.840   7.951  16.108 -0.1088  0.0051  0.2353
10295W        W25912  14.261   3.199  13.294  0.1930 -0.1912  0.0213
10296W        W25913  14.881   5.243  13.992 -0.0117  0.1392  0.1172
10297W        W25914   2.592  16.298   3.869 -0.0579  0.0419 -0.2553
10298W        W25915  17.347   6.908   0.164  0.0163  0.1049  0.1593
10299W        W25916  10.808  10.113  13.841 -0.2463  0.2477 -0.2714
10300W        W25917   0.996  13.870   4.825  0.3430  0.0405  0.2572
10301W        W25918   3.203  13.822  11.581 -0.0505  0.2112 -0.0920
10302W        W25919  18.296  11.125  16.019 -0.0583 -0.1578  0.1469
10303W        W25920   7.035   9.624   4.495 -0.0507  0.1917  0.3433
10304W        W25921  14.088  17.468   0.788 -0.0510 -0.0893 -0.1292
10305W        W25922  11.307  12.929  14.051  0.1905 -0.0347  0.0519
10306W        W25923  13.786   6.004  10.864  0.0215  0.0351  0.0111
10307W        W25924  17.547  12.014   2.825  0.2626  0.0963 -0.4247
10308W        W25925   6.485   3.028   1.167 -0.0742 -0.1079  0.4619
10309W        W25926  13.460   1.198  13.685 -0.0348  0.0832  0.0983
10310W        W25927  17.786   3.212   0.730 -0.1128 -0.0098  0.2533
10311W        W25928  10.016  15.523   0.994 -0.0753 -0.1502  0.0095
10312W        W25929   7.550  10.319   3.403  0.1498 -0.0638 -0.2058
10313W        W25930   1.156  10.670  12.680 -0.1909 -0.0459  0.1412
10314W        W25931   3.053   1.262  13.444  0.1645 -0.2230  0.0266
10315W        W25932   7.538   1.115  12.674  0.1712 -0.0687 -0.0962
10316W        W25933   7.136  10.164  11.764  0.0515  0.4605  0.0428
10317W        W25934   5.213  13.961  11.667 -0.0782 -0.0913  0.0681
10318W        W25935   2.584   5.761  11.816 -0.0738  0.2314 -0.1586
10319W        W25936  17.076   9.337  12.979  0.2256 -0.0275 -0.1261
10320W        W25937   6.146   4.538  13.951  0.1004 -0.3080 -0.1229
10321W        W25938  15.749  15.901   3.774  0.1098 -0.3501  0.3101
10322W        W25939   3.255   2.533   4.525  0.1826  0.0339  0.1194
10323W        W25940   2.183  17.985   3.316 -0.0835  0.4245  0.1031
10324W        W25941   3.380   8.900   0.327  0.3070 -0.2676 -0.0125
10325W        W25942  12.016   4.188   3.013 -0.0291 -0.0332 -0.2393
10326W        W25943   4.470   3.163  13.416  0.1173 -0.3100  0.1474
10327W        W25944   4.785  14.303   4.131  0.1287  0.1502  0.2463
10328W        W25945  11.934   7.703   5.278  0.3235 -0.0596 -0.0550
10329W        W25946   2.530  15.920  11.828  0.1429 -0.0641 -0.0971
10330W        W25947  14.032  15.280   1.861  0.1361  0.3120  0.0042
10331W        W25948   0.201   6.337  14.992  0.1503  0.1829 -0.0880
10332W        W25949   3.198  11.137  11.222 -0.0250 -0.1144  0.1071
10333W        W25950  10.793  14.486  10.779  0.0481 -0.0456  0.0631
10334W        W25951   9.734   9.463   2.206 -0.2967  0.0845 -0.1052
10335W        W25952   5.866   9.031   0.713  0.1110  0.0356  0.0603
10336W        W25953   5.126   9.413   1.282 -0.0152  0.1190 -0.0069
10337W        W25954  14.853   2.906  12.388 -0.0121  0.1023  0.3633
10338W        W25955   3.157  14.736   0.737  0.3141 -0.3820  0.0427
10339W        W25956  10.290   1.583  13.769  0.0185 -0.0456 -0.0491
10340W        W25957   7.911   3.244   3.220 -0.3624  0.0561  0.1015
10341W        W25958  15.248  15.743   3.041 -0.3417 -0.0182  0.0319
10342W        W25959  11.208  15.548  11.899 -0.0243 -0.1770  0.2865
10343W        W25960  14.228  10.757   0.975  0.0587 -0.3601  0.1947
10344W        W25961   0.631   3.921   5.687  0.0730  0.0081 -0.0900
10345W        W25962  10.285   3.741  14.164 -0.0332 -0.1612 -0.0491
10346W        W25963   3.279   7.476  13.690 -0.2112 -0.3907 -0.1472
10347W        W25964   0.453  12.084  15.549 -0.1013 -0.0175  0.0447
10348W        W25965   6.278   8.549   1.075  0.0740  0.1232 -0.2259
10349W        W25966   4.582  11.938   3.770  0.1540  0.0297  0.3151
10350W        W25967   3.613  14.798   1.024  0.2949  0.1199 -0.2306
10351W        W25968  12.557  15.830   3.946  0.2144  0.1276  0.4913
10352W        W25969  15.782   4.186  10.732 -0.2300 -0.1748 -0.1626
10353W        W25970  11.121   7.552  15.690  0.1573  0.2270 -0.1314
10354W        W25971   4.832  16.950   1.666  0.1815 -0.1094  0.0509
10355W        W25972   4.879   7.038  12.761  0.1721  0.0792 -0.1014
10356W        W25973   3.004   3.807  13.574 -0.0992  0.1525  0.3032
10357W        W25974  12.951   0.994  14.903 -0.0896  0.2424 -0.0246
10358W        W25975   7.233   9.503  14.605  0.0930  0.0413 -0.4185
10359W        W25976  17.886   5.702   4.429 -0.2387 -0.3108 -0.3152
10360W        W25977   8.576   7.914  13.278  0.0029 -0.1304  0.0072
10361W        W25978  17.219   4.742  15.162  0.3768  0.1776 -0.2010
10362W        W25979   2.678   5.407   1.409  0.2675 -0.0070  0.3907
10363W        W25980   9.514  16.044  15.366 -0.0039  0.0010 -0.2007
10364W        W25981   3.345  16.209   1.572 -0.1563  0.1851  0.1298
10365W        W25982   1.453   8.490  15.531 -0.0911  0.3062  0.2059
10366W        W25983  11.883   2.185   1.477  0.3355  0.0850  0.0092
10367W        W25984   2.357  10.625  14.020  0.1104  0.0402  0.0029
10368W        W25985   2.875   2.819  15.731 -0.4456 -0.2455  0.0497
10369W        W25986   1.575   1.141   6.113  0.0526 -0.0764 -0.1599
10370W        W25987   4.965  10.789   5.761 -0.0761  0.0029 -0.0672
10371W        W25988  15.771  11.003   1.527 -0.2819 -0.3742  0.1133
10372W        W25989   8.220  12.607  14.125 -0.4027  0.4483 -0.1087
10373W        W25990   2.858  14.422  16.106 -0.0719  0.2784  0.0166
10374W        W25991   1.874  14.203  14.424 -0.1432  0.0950  0.2072
10375W        W25992   4.614  10.584   0.275 -0.0103 -0.0871  0.2163
10376W        W25993  14.056   2.541  11.377  0.2267  0.2864  0.2190
10377W        W25994  12.983   7.093  13.759 -0.1973  0.1904  0.1817
10378W        W25995   9.997   6.201   4.099 -0.1239  0.1018  0.0931
10379W        W25996   3.402  17.302  11.796 -0.2401 -0.0401 -0.2238
10380W        W25997  16.891   2.173   3.854 -0.0507 -0.6257 -0.0945
10381W        W25998  10.194  12.274  12.010 -0.0720  0.0226  0.1506
10382W        W25999  14.188  11.883  13.958  0.0500 -0.0633 -0.0410
10383W        W26000   4.161   8.495  14.131  0.0122  0.2097 -0.4631
10384W        W26001   7.585  10.938  12.216 -0.1740  0.0111  0.3492
10385W        W26002   7.403  16.233  11.509  0.1043 -0.2081 -0.0208
10386W        W26003  12.552   4.455   1.585  0.2847 -0.0371 -0.1636
10387W        W26004  17.191   4.612   5.867  0.0295  0.2584  0.1222
10388W        W26005   9.031  12.167   3.091 -0.2463  0.2670 -0.2141
10389W        W26006   8.649  18.427   6.314 -0.1188  0.0505  0.2685
10390W        W26007   3.032  14.510  12.956 -0.2421  0.0884  0.2044
10391W        W26008  17.275  15.739   1.122  0.1721 -0.0621 -0.3725
10392W        W26009  10.670   3.395   4.551 -0.2670  0.1330  0.2610
10393W        W26010  15.796  14.052   2.069  0.0754  0.2348 -0.0189
10394W        W26011  10.016  11.470  13.120 -0.2096 -0.0046 -0.3553
10395W        W26012  17.109  11.002   1.843  0.1532 -0.1424 -0.0741
10396W        W26013  10.059  14.855  14.053 -0.0028  0.0258  0.2721
10397W        W26014  13.473   0.310   0.514  0.1566 -0.1371  0.2050
10398W        W26015   0.346  15.856   4.252 -0.2143 -0.1845 -0.0379
10399W        W26016   7.706   4.513   0.767 -0.2175 -0.1275  0.1556
10400W        W26017   8.163  15.346  12.456 -0.0715 -0.1462  0.1287
10401W        W26018   9.008  15.866  13.380  0.0048 -0.1112  0.0942
10402W        W26019  10.605  18.348   2.586 -0.2274 -0.1013  0.1365
10403W        W26020  17.093  15.797   0.305  0.1546  0.0502 -0.4139
10404W        W26021   0.272   4.485  13.289 -0.3130 -0.1094  0.0388
10405W        W26022   2.531  11.674   2.058  0.1840 -0.0149  0.0696
10406W        W26023   5.624   2.403   4.125 -0.0203 -0.0635  0.1103
10407W        W26024   7.354  12.751  14.291 -0.0772 -0.5117  0.0227
10408W        W26025   4.039   1.999  13.157  0.0514 -0.2431  0.2841
10409W        W26026   5.277  10.487   3.256  0.3780  0.1577 -0.1271
10410W        W26027  12.816  17.738   4.870 -0.0700 -0.2158 -0.3615
10411W        W26028  15.340   3.566   1.798  0.0306  0.1647  0.0074
10412W        W26029  15.958  13.265  13.225 -0.1176  0.1475  0.1347
10413W        W26030   9.843  11.086   0.871  0.3095 -0.2051 -0.1172
10414W        W26031   6.160  10.334   1.993 -0.1820 -0.1764 -0.0164
10415W        W26032  12.970  17.721   3.391  0.0151 -0.2237  0.0523
10416W        W26033   0.214   8.452  14.259  0.0816 -0.0513  0.0805
10417W        W26034   3.933   1.842   2.883  0.0860 -0.2145  0.0506
10418W        W26035   5.630   1.511  13.861  0.3785  0.3048 -0.0316
10419W        W26036   6.027   4.237   3.982 -0.0464  0.0207 -0.1719
10420W        W26037   1.527  13.743   2.332 -0.2241 -0.3132 -0.1037
10421W        W26038   5.433   4.812  12.477 -0.2508 -0.0240  0.1985
10422W        W26039   5.968   9.326   0.157  0.1080  0.1017 -0.4933
10423W        W26040  14.677  14.950   4.234 -0.0323  0.1294 -0.3272
10424W        W26041  17.523  10.788   0.772 -0.1385 -0.0461  0.3367
10425W        W26042  14.390   5.966   3.318 -0.1099 -0.0370 -0.0246
10426W        W26043  10.827   9.281  12.737 -0.1230  0.4729 -0.3548
10427W        W26044   6.412  12.583   4.392  0.2033  0.0374  0.1002
10428W        W26045  14.974  15.975  12.385 -0.2761  0.3535 -0.2696
10429W        W26046   6.262  17.745   5.774  0.1420  0.1356 -0.2450
10430W        W26047  13.692   6.241   1.078 -0.1700 -0.3005  0.0044
10431W        W26048  17.883   8.845   1.755 -0.0580  0.5182  0.0370
10432W        W26049   4.927   0.657   5.329  0.0714  0.0108 -0.1265
10433W        W26050   7.932   1.506  11.580  0.1141 -0.0844  0.2294
10434W        W26051   1.090   5.777   0.596 -0.0406 -0.0105  0.3626
10435W        W26052   3.731  12.332   1.430  0.1271 -0.3400  0.5033
10436W        W26053  16.911   6.796  14.493 -0.0123 -0.0543 -0.1481
10437W        W26054  12.740  12.074   5.149 -0.1206  0.3853 -0.4953
10438W        W26055  11.301  17.799  11.713 -0.0691 -0.1238  0.3218
10439W        W26056   6.212  12.890   1.265 -0.3325  0.0936  0.0177
10440W        W26057  13.310  16.114   5.048 -0.1520  0.1087  0.1356
10441W        W26058   1.343  18.207  15.517 -0.1573  0.0152  0.2616
10442W        W26059   0.437  15.332   1.843  0.0566  0.1303  0.3117
10443W        W26060  15.916   4.803  14.560  0.1901 -0.1937 -0.5033
10444W        W26061   4.660   0.399  13.854  0.1033 -0.1563  0.2185
10445W        W26062   6.866   3.508   0.076 -0.3207 -0.1361  0.0303
10446W        W26063  17.536  14.952   4.589  0.0272 -0.3132 -0.0623
10447W        W26064  13.250   6.541   1.218 -0.1546 -0.0276  0.1272
10448W        W26065   7.592  11.691  14.149  0.2538 -0.1066 -0.2535
10449W        W26066  10.335  15.050   1.890  0.0215  0.0460  0.0994
10450W        W26067   3.559   2.022   3.212  0.3311  0.0430 -0.2136
10451W        W26068   4.558   7.262   5.884 -0.1337 -0.0627  0.0406
10452W        W26069   2.902  11.609   1.422 -0.1142 -0.0449 -0.2417
10453W        W26070  11.938  12.717   2.386  0.0291 -0.0350 -0.1069
10454W        W26071  12.942   2.832  11.416  0.1198 -0.0896 -0.3026
10455W        W26072   5.296  16.159   2.118  0.1815 -0.2637 -0.2200
10456W        W26073  10.748   6.103  13.395  0.0331  0.1195 -0.0896
10457W        W26074   7.223  16.546   3.555  0.1389  0.2317  0.0668
10458W        W26075   9.942  16.685   4.085 -0.1035 -0.0066 -0.1976
10459W        W26076  15.100  16.872  15.385  0.3611  0.0262  0.0957
10460W        W26077   2.942   6.000  12.126  0.0619  0.0439 -0.1851
10461W        W26078   6.779   1.561  11.182  0.0102  0.0172  0.1894
10462W        W26079   1.414   1.072  15.659 -0.0007 -0.3210  0.1529
10463W        W26080  14.120  12.226   1.336  0.3369  0.1163  0.2750
10464W        W26081  16.331  16.335   0.105 -0.1969 -0.1146  0.0070
10465W        W26082   1.129   0.493   3.650 -0.3920 -0.3561  0.0120
10466W        W26083   1.473   7.701   4.442 -0.0710 -0.0201  0.0848
10467W        W26084   7.007   6.000  14.531 -0.0938 -0.1758 -0.2630
10468W        W26085   1.473  14.183   0.606  0.1743 -0.0890  0.1595
10469W        W26086   2.803  15.656  12.286 -0.0469 -0.0379 -0.1881
10470W        W26087  12.930  14.326   2.616 -0.2358 -0.2124 -0.0927
10471W        W26088   7.556   0.915  12.221 -0.3121  0.0964 -0.0401
10472W        W26089  10.191  14.022  12.489  0.0492 -0.3127  0.2398
10473W        W26090   8.637  14.670   4.341 -0.2660  0.0871  0.0585
10474W        W26091   5.207   0.899   5.732 -0.1294  0.1570 -0.0102
10475W        W26092  13.173  14.388  11.110  0.0617  0.1162  0.3844
10476W        W26093   9.116   7.971  14.526  0.0100 -0.2069 -0.3040
10477W        W26094   5.409   5.222   0.254 -0.0908  0.0331  0.0309
10478W        W26095  15.532   0.138  15.879 -0.2597  0.2107  0.0655
10479W        W26096  11.476   7.687   9.638 -0.2007 -0.0479 -0.2615
10480W        W26097  10.301  18.223   1.219 -0.2495  0.1318 -0.1676
10481W        W26098  12.389  14.218  11.724  0.0989 -0.0273  0.1586
10482W        W26099   1.233  15.182   2.059 -0.2629 -0.1706 -0.0451
10483W        W26100   6.636   3.165  11.992  0.1260  0.1737  0.2840
10484W        W26101  10.927  15.561   5.135 -0.0493 -0.2767  0.0423
10485W        W26102   2.057  15.959   3.866 -0.0141  0.2271 -0.1686
10486W        W26103   4.987  16.688   4.955  0.2956 -0.2583 -0.3099
10487W        W26104  18.144   9.752   4.427  0.1211 -0.1923  0.0842
10488W        W26105  10.117  15.473   0.533 -0.0375 -0.0128 -0.2048
10489W        W26106  12.486  17.687  15.817  0.1176  0.0453  0.0662
10490W        W26107   8.683   0.448   0.252  0.2966  0.0608 -0.0993
10491W        W26108  10.250  17.869  11.878  0.4249 -0.0224  0.0173
10492W        W26109  13.882   8.286  10.847 -0.1811 -0.0500  0.2951
10493W        W26110   5.250   8.125   3.731  0.1255  0.1175 -0.3988
10494W        W26111  15.519   8.673  13.938 -0.3652  0.4112 -0.2340
10495W        W26112   3.003  14.017  13.671  0.0155  0.2731  0.1748
10496W        W26113   5.553   9.256  13.178  0.0697 -0.2970  0.1017
10497W        W26114  11.493   6.963   4.229  0.0499  0.4901  0.1474
10498W        W26115   0.709   1.699   1.624  0.1141 -0.0267  0.1868
10499W        W26116   0.803   1.663  15.326  0.0937 -0.0103  0.0530
10500W        W26117   2.638  10.088   3.319 -0.2018 -0.0163 -0.0188
10501W        W26118   1.708   8.527   0.354 -0.1395  0.1996  0.0844
10502W        W26119  13.486   6.416   3.461  0.0245 -0.0900 -0.7387
10503W        W26120  13.700   7.335   1.673 -0.3019 -0.1849  0.1299
10504W        W26121   9.922   5.019   4.798  0.0146  0.3411 -0.0198
10505W        W26122  10.798  10.156   3.718 -0.0167 -0.0452 -0.1812
10506W        W26123   9.954   3.727  14.584 -0.0656  0.2496 -0.3213
10507W        W26124  11.579  11.022   1.422  0.1975 -0.0482  0.1252
10508W        W26125  11.079   3.037  12.890  0.0439 -0.3742  0.2552
10509W        W26126   7.209  16.684   4.018 -0.0668  0.3089 -0.4671
10510W        W26127  17.044  15.527   2.384  0.1020 -0.1545  0.1257
10511W        W26128  12.647  17.586  12.959  0.0484 -0.0224  0.1889
10512W        W26129  15.972   7.607   0.960  0.0989  0.2042  0.0191
10513W        W26130  16.637  16.544   0.433  0.0938 -0.0661 -0.0176
10514W        W26131   2.961  11.058  15.987 -0.1775 -0.3491  0.2790
10515W        W26132  16.808   8.975   1.831 -0.2032  0.0032 -0.0727
10516W        W26133  10.519  14.868  15.688 -0.1652 -0.1590  0.0659
10517W        W26134   7.658  15.018   4.329 -0.1948 -0.0814  0.1140
10518W        W26135  14.117   0.451   3.313 -0.3348 -0.3727 -0.0202
10519W        W26136   2.349  15.868   2.851  0.2601  0.3668  0.1257
10520W        W26137  15.055  15.275  11.415 -0.1198 -0.0317  0.2217
10521W        W26138   3.854   5.404   4.111  0.3081  0.0175  0.0826
10522W        W26139   7.597   1.822   4.275 -0.0154  0.1587 -0.0639
10523W        W26140  10.853   1.115   0.022 -0.0607 -0.1259 -0.1305
10524W        W26141   8.015  10.332  15.857  0.0974 -0.0121 -0.1567
10525W        W26142   7.477   8.696   1.353 -0.0635  0.1919  0.1691
10526W        W26143   9.458   0.478  12.827 -0.0647 -0.0468 -0.1692
10527W        W26144   6.409  15.018   5.089  0.0495  0.0480 -0.1641
10528W        W26145   0.569  17.185  14.253  0.0553 -0.1122 -0.1922
10529W        W26146   0.495  13.747   4.716  0.2540 -0.1478 -0.0742
10530W        W26147  14.684   0.607  13.525 -0.1235 -0.1168 -0.1031
10531W        W26148  11.854  13.623   0.688 -0.1221 -0.1730 -0.0891
10532W        W26149   3.078   2.782   5.392 -0.1313  0.2512  0.2894
10533W        W26150   8.476   9.705   5.038 -0.0896  0.1562  0.1067
10534W        W26151   8.120  13.653   0.031 -0.1104 -0.0153 -0.0120
10535W        W26152  14.168  12.829   1.356 -0.1689  0.0145  0.0295
10536W        W26153   4.436   0.591   2.332 -0.0131  0.1047 -0.0630
10537W        W26154   5.257  11.030  12.439 -0.1725 -0.2207 -0.0079
10538W        W26155  10.881  12.518   4.981 -0.2582 -0.0625  0.0813
10539W        W26156   1.704  16.904  13.258  0.2087 -0.0834  0.0997
10540W        W26157  11.204   2.002  11.720  0.1143  0.1610  0.0475
10541W        W26158  13.099  13.171   4.247  0.4271 -0.0509  0.0677
10542W        W26159  12.229   0.325  12.111  0.0289  0.0381 -0.2133
10543W        W26160  10.925  13.501  14.001  0.1264  0.0152  0.0671
10544W        W26161  16.804  15.895  13.882 -0.0281  0.0255 -0.1766
10545W        W26162   5.259  14.229   3.812  0.2571 -0.1514 -0.1173
10546W        W26163   6.437   8.064  13.068  0.2319  0.1456 -0.4144
10547W        W26164   9.568   6.989  16.028 -0.2085  0.2999 -0.0308
10548W        W26165   4.787  14.948  15.075  0.0137 -0.0453  0.0605
10549W        W26166  11.410  16.860  13.345  0.2800  0.1665  0.1504
10550W        W26167   2.418   5.305  15.537 -0.0496 -0.0992 -0.0552
10551W        W26168   2.766  16.171  12.302 -0.0100 -0.1651  0.1225
10552W        W26169   9.610  15.335  14.855  0.1806 -0.1441  0.0488
10553W        W26170   0.366   5.260   5.328  0.1015  0.1419  0.1079
10554W        W26171  10.800  17.520  14.386 -0.3109 -0.0465  0.0809
10555W        W26172  15.306  14.669  15.096  0.1864  0.1323 -0.0436
10556W        W26173   0.113   1.789  12.423 -0.0656 -0.1774  0.2792
10557W        W26174  15.678   9.656  13.328 -0.0211  0.0575 -0.2320
10558W        W26175   1.820  16.105  15.683  0.0297  0.1491  0.0372
10559W        W26176  14.095  18.329   1.175  0.4058  0.1490 -0.0503
10560W        W26177  14.084   7.488  14.358  0.0169 -0.0836 -0.4317
10561W        W26178   6.354   7.999   1.335  0.3042 -0.3898 -0.0115
10562W        W26179   3.283  10.190  11.735  0.1092 -0.0734 -0.0747
10563W        W26180   7.573   4.808  12.206  0.0679  0.1219  0.2106
10564W        W26181  16.421   3.638  14.671 -0.1868 -0.1822 -0.0736
10565W        W26182   0.269  12.212   3.697  0.0238  0.0306  0.1859
10566W        W26183   4.183  15.077  12.719 -0.0720 -0.1932 -0.1739
10567W        W26184   0.702   2.563  13.999 -0.4628  0.1762  0.1315
10568W        W26185   7.178   5.502   1.529  0.2075 -0.0233 -0.0454
10569W        W26186   6.076  10.469   4.840 -0.1619  0.3437  0.0066
10570W        W26187   2.452  17.065   3.045 -0.0898 -0.2036  0.2045
10571W        W26188  16.680  13.862   3.986  0.0168 -0.1449  0.0750
10572W        W26189   2.480  15.963   0.102 -0.0071 -0.2398  0.2187
10573W        W26190  18.049   7.141  12.715  0.0230 -0.1085 -0.1350
10574W        W26191  10.504  12.465  13.217 -0.1826  0.3041 -0.0302
10575W        W26192  15.500  15.880  12.327 -0.3000 -0.0972 -0.3715
10576W        W26193   2.054   9.816   3.401 -0.0369 -0.0992 -0.1902
10577W        W26194  17.301  17.067   0.599 -0.2604  0.0456 -0.3315
10578W        W26195   5.616   3.007   3.374 -0.3680 -0.2602  0.1462
10579W        W26196   5.400  15.869   6.331  0.2974 -0.0270  0.1490
10580W        W26197   2.923  11.569   6.096 -0.2883 -0.1344  0.0836
10581W        W26198   5.581  13.800  15.113  0.1066  0.0027  0.0063
10582W        W26199  11.708   1.445  10.721 -0.2120 -0.3770 -0.2514
10583W        W26200   0.093  14.723   1.098 -0.2597  0.3189  0.2204
10584W        W26201   7.390   8.662  14.325  0.6167  0.2028  0.1741
10585W        W26202   0.515   4.355   2.362 -0.3285  0.0959  0.0913
10586W        W26203   7.200  17.552  14.375  0.0176 -0.0206  0.2517
10587W        W26204  12.748  16.011  13.139  0.0341 -0.0284  0.1505
10588W        W26205  10.180  10.419  15.779 -0.1312  0.2957 -0.4405
10589W        W26206   3.440   3.933   4.312 -0.1665 -0.1204  0.0182
10590W        W26207   5.237   0.744   2.856 -0.0024 -0.0293  0.0701
10591W        W26208  10.430   4.240  14.339  0.1039  0.0434  0.0647
10592W        W26209  15.660  11.777  12.170 -0.1625 -0.0022 -0.0487
10593W        W26210   1.177  13.663  13.677  0.1104  0.1264 -0.0554
10594W        W26211   4.139  14.864   4.886 -0.1106  0.1766 -0.3320
10595W        W26212   0.508   3.287  12.641  0.0065 -0.3954 -0.1036
10596W        W26213   7.543   2.293   0.826 -0.1628 -0.0694  0.1129
10597W        W26214  10.911  12.634  15.424 -0.0274 -0.0726 -0.4183
10598W        W26215  13.213  15.199   0.557 -0.2221 -0.0167  0.1354
10599W        W26216  10.940   8.493  12.696 -0.2087  0.0395 -0.0227
10600W        W26217   9.821   7.088   3.802 -0.1473  0.1037 -0.1600
10601W        W26218   9.772   0.487   0.629 -0.0178 -0.0030 -0.0243
10602W        W26219  13.056  15.195   1.623  0.0472  0.2474  0.0239
10603W        W26220   5.821  11.154   1.954  0.0512  0.0639  0.0088
10604W        W26221   3.061   9.911   1.205 -0.0371 -0.5685  0.1873
10605W        W26222   0.603   1.232   3.603 -0.0407 -0.0033 -0.0657
10606W        W26223  13.974  16.203   3.074  0.1138  0.0967 -0.1203
10607W        W26224  18.123   7.661  10.807  0.0102 -0.1956  0.1020
10608W        W26225   7.802   6.995  15.472 -0.0300  0.1499  0.5702
10609W        W26226   7.231   3.935  12.248 -0.0086 -0.2288 -0.0704
10610W        W26227   5.208  11.804  13.710 -0.1292  0.1618  0.3035
10611W        W26228   5.512   1.045  14.114  0.0778  0.0719 -0.2170
10612W        W26229   8.541   0.921   1.540  0.0845 -0.4462  0.1547
10613W        W26230   3.694  17.751   2.306 -0.1111 -0.1225 -0.0651
10614W        W26231   6.327  12.159  11.884 -0.2227 -0.1678  0.1873
10615W        W26232  16.792   5.793   4.298  0.1243 -0.0743  0.3450
10616W        W26233  14.761  18.256  15.350  0.1848  0.3314 -0.1977
10617W        W26234   8.364  10.966  13.396 -0.0989  0.4076 -0.2440
10618W        W26235   6.388  14.467   1.008 -0.0839  0.4141  0.2621
10619W        W26236   3.708  13.111   0.363 -0.4273 -0.1376  0.4194
10620W        W26237   7.762  13.091   3.429  0.1786 -0.2065  0.3332
10621W        W26238   7.587   3.553   3.533 -0.2492 -0.0819 -0.1688
10622W        W26239   6.889  12.507  13.041 -0.3431 -0.1206  0.1564
10623W        W26240  13.906   9.486   1.737 -0.2398  0.0201  0.2212
10624W        W26241  16.727  15.419   0.010 -0.0026 -0.1044  0.1736
10625W        W26242  16.626   0.283   0.255 -0.0761 -0.1930  0.2597
10626W        W26243   7.923  14.891  13.348 -0.2039 -0.0984 -0.1319
10627W        W26244  16.532  14.336   2.429  0.4464 -0.0347 -0.2569
10628W        W26245  15.409  16.263  12.661 -0.3040 -0.0922 -0.1244
10629W        W26246   5.951  14.570  11.977 -0.3229  0.4472  0.1187
10630W        W26247   9.524   8.441  12.826 -0.2257  0.3074  0.2368
10631W        W26248  11.480   9.936  14.233 -0.2167 -0.2357 -0.1802
10632W        W26249  15.383  12.880  11.647 -0.2646  0.3306 -0.3111
10633W        W26250  12.623  16.386  13.669  0.1782  0.0920 -0.2837
10634W        W26251   3.869  12.956   1.427  0.0122  0.0239 -0.2497
10635W        W26252   1.055   9.675  15.236  0.2782  0.0543  0.0147
10636W        W26253   5.665  13.911   3.738 -0.1199  0.2158  0.1104
10637W        W26254   1.421  11.109  13.463 -0.1951  0.0366 -0.2850
10638W        W26255   6.525  17.295  13.220  0.4166 -0.0036  0.0924
10639W        W26256  14.428   9.719  15.345 -0.1845 -0.2099 -0.0473
10640W        W26257   3.899   7.005  13.562 -0.0413 -0.1683 -0.5382
10641W        W26258  11.974  16.133  14.697  0.0310  0.0258 -0.0398
10642W        W26259  12.213   9.267   4.047  0.1213  0.2603 -0.2819
10643W        W26260  10.646   4.095   0.194 -0.2134  0.0681 -0.0481
10644W        W26261  12.593  10.612   2.363 -0.2035  0.1220 -0.1920
10645W        W26262  15.413   7.505  14.120 -0.0504  0.2540  0.0487
10646W        W26263   4.400   3.561   2.836 -0.2412 -0.2355 -0.0804
10647W        W26264  16.471   0.377  15.898 -0.3854 -0.0850  0.1895
10648W        W26265   4.026   3.789  15.540  0.2727  0.1071  0.0632
10649W        W26266   4.032  14.009   0.863 -0.1103 -0.0295 -0.0745
10650W        W26267  14.460   8.878   0.118  0.0627  0.4654 -0.0078
10651W        W26268  15.406  16.108  11.692 -0.2207  0.3807 -0.1338
10652W        W26269   2.011   5.041  10.784  0.0275 -0.0798 -0.5059
10653W        W26270  14.744  12.997   5.416  0.1032 -0.0712  0.1995
10654W        W26271   1.166  12.503   0.450 -0.0120  0.0136  0.0840
10655W        W26272  10.674  14.608   6.688 -0.0721  0.0333  0.0668
10656W        W26273   6.510   2.752  15.678 -0.1378 -0.1378  0.1786
10657W        W26274  11.329  12.557  14.834  0.1116  0.0025  0.0655
10658W        W26275  15.980  11.549   1.656  0.0474 -0.2264  0.1192
10659W        W26276   9.877   0.302  12.980 -0.1915  0.2326 -0.0212
10660W        W26277   2.549  10.575   3.054  0.0567 -0.0878  0.1954
10661W        W26278   6.576  10.991  11.543 -0.0949 -0.0559 -0.2609
10662W        W26279  11.695   3.679  14.845  0.1040  0.1671  0.0304
10663W        W26280  16.335  14.634   0.869  0.0231 -0.1847  0.3056
10664W        W26281  14.258  17.465   1.732  0.2955 -0.0926 -0.0296
10665W        W26282  13.842   1.906   4.483 -0.0367  0.2251  0.0831
10666W        W26283   5.608  13.700   5.132 -0.1989 -0.0417  0.1665
10667W        W26284   5.208   7.041  14.582 -0.2168  0.3387  0.4095
10668W        W26285  10.915  14.856  14.879 -0.0150  0.0894 -0.0625
10669W        W26286  13.816  14.842   3.287 -0.3641  0.4467 -0.2078
10670W        W26287  13.448  14.853  11.200  0.0847  0.2780 -0.2819
10671W        W26288   3.684  13.451   3.507  0.1234 -0.2021 -0.1704
10672W        W26289   3.154   7.561   5.620  0.0748  0.0696 -0.3908
10673W        W26290  13.515  12.021  12.320 -0.1824  0.2523  0.2978
10674W        W26291   9.563   8.730   1.900  0.1512  0.1936 -0.0124
10675W        W26292   1.562  17.454   4.524  0.2520  0.0686 -0.1248
10676W        W26293   1.016   7.769  11.443 -0.1685  0.1650  0.1315
10677W        W26294  18.101   9.492  12.063  0.1103 -0.2299  0.1344
10678W        W26295  17.614   6.576   1.993 -0.0087  0.0718 -0.0352
10679W        W26296  11.333  15.588   3.860  0.0980  0.0364  0.1451
10680W        W26297  16.160  11.970  13.406 -0.0917  0.2003 -0.2349
10681W        W26298  14.695   5.192  10.406  0.0062 -0.3016 -0.1175
10682W        W26299  11.289  15.687   1.989 -0.0261  0.1128  0.1624
10683W        W26300   6.540   2.572  13.138  0.0351  0.1376 -0.1085
10684W        W26301   5.165  15.247   4.068 -0.0003 -0.1836 -0.0828
10685W        W26302  17.523   8.480  15.438  0.2429 -0.1088  0.1518
10686W        W26303   7.492  18.104  11.290  0.1823  0.1711  0.2150
10687W        W26304  16.588   7.350  15.674  0.0873 -0.1305  0.2260
10688W        W26305  10.168  15.912  10.989 -0.2001  0.0423 -0.1167
10689W        W26306   5.362   3.366  15.788  0.2090  0.0008  0.0717
10690W        W26307  11.287   6.780  16.092 -0.4704  0.0135  0.0077
10691W        W26308   8.464  14.134  14.178  0.0201  0.0066  0.0146
10692W        W26309  15.410  12.015   0.148 -0.1808  0.0416 -0.0629
10693W        W26310  13.320   6.134  14.544 -0.0956 -0.0454 -0.0291
10694W        W26311   2.307  15.430  12.050  0.0572 -0.1049  0.0660
10695W        W26312  11.385  12.251   5.670  0.5369 -0.0601  0.2399
10696W        W26313  17.410   4.871  12.427  0.4267  0.2343  0.0026
10697W        W26314   8.647  12.266   4.158  0.0176 -0.0705  0.1649
10698W        W26315   1.570  17.791  15.207 -0.0286  0.0918  0.1131
10699W        W26316  10.276   0.658  11.305  0.1533 -0.0178 -0.0159
10700W        W26317   2.412  10.013   4.722  0.0244 -0.1890 -0.3399
10701W        W26318   3.672   5.414   0.004  0.1199 -0.3210  0.0031
10702W        W26319   1.729  15.082   1.896  0.3410  0.0520 -0.0678
10703W        W26320   4.332   2.207  15.598  0.1048  0.0356  0.1082
10704W        W26321  13.997   7.315   3.792 -0.1581  0.1272  0.1459
10705W        W26322  17.540  15.965  11.938 -0.1029 -0.0569  0.0883
10706W        W26323   7.597  12.250   2.968 -0.2743  0.1572 -0.1041
10707W        W26324  15.163   2.371  12.887  0.0645  0.2988  0.1396
10708W        W26325   5.310  11.069   3.175  0.2407 -0.1129 -0.0671
10709W        W26326  16.252   2.955  11.487 -0.0688  0.1591  0.2771
10710W        W26327   5.843   2.516  16.074  0.1278 -0.0724  0.0007
10711W        W26328   7.978   2.725  12.306  0.0643 -0.3042 -0.0680
10712W        W26329  12.295  16.143  12.078 -0.0738  0.0655 -0.1626
10713W        W26330   4.111  11.659   2.869  0.0262  0.1610 -0.0028
10714W        W26331   8.472   1.333  14.294 -0.1616  0.1020 -0.1283
10715W        W26332   5.529   6.200   5.601  0.0137 -0.2730 -0.1690
10716W        W26333   2.859  11.660   2.469 -0.1935  0.3263  0.2534
10717W        W26334   9.766  14.656  16.140  0.2471  0.1735  0.3202
10718W        W26335   3.486   0.294   4.222  0.1475 -0.2063 -0.3309
10719W        W26336  13.333  10.516  12.224  0.0117  0.1460 -0.0611
10720W        W26337  10.388   2.441   4.679  0.1060  0.0899 -0.1582
10721W        W26338  17.490  18.295   0.723 -0.0910 -0.0451  0.1580
10722W        W26339  12.203   1.391  13.157 -0.0232  0.3886  0.0314
10723W        W26340  12.387  10.755  15.625  0.1215 -0.1349 -0.0739
10724W        W26341   4.538  14.937   1.376  0.0336  0.1283 -0.0192
10725W        W26342   2.998   3.796  12.578 -0.1519 -0.2860 -0.1510
10726W        W26343  11.810   8.092  11.167  0.0504 -0.1610  0.2552
10727W        W26344   2.392   1.446  15.616 -0.0153  0.4282  0.0157
10728W        W26345   1.857   3.630   6.045 -0.0805 -0.0420  0.0486
10729W        W26346  14.117   6.830  13.233  0.2370 -0.1073 -0.1306
10730W        W26347  18.010   3.963  11.436 -0.1824 -0.2094  0.0284
10731W        W26348  13.728  12.866   5.496 -0.0800  0.0821 -0.0021
10732W        W26349  12.748  16.558   0.403  0.2636 -0.0282  0.0927
10733W        W26350   2.844   7.049   0.100 -0.0930 -0.1500  0.1248
10734W        W26351   9.527  17.706  11.372  0.0388  0.2799  0.0051
10735W        W26352  11.062   2.496   5.732 -0.5593 -0.2983  0.2787
10736W        W26353   9.487   7.217   0.357 -0.1830  0.0441 -0.0642
10737W        W26354   5.744  12.137   2.156  0.2875  0.1677 -0.1989
10738W        W26355   4.725   1.252   0.407 -0.1341 -0.3190  0.1434
10739W        W26356  15.191   9.988   1.121  0.0584 -0.0089 -0.3203
10740W        W26357  18.165   1.089  13.604  0.1908 -0.4984  0.2157
10741W        W26358   8.889   2.613  15.430 -0.1036 -0.1874 -0.2020
10742W        W26359   7.824   9.498   3.952 -0.0428  0.2031 -0.2090
10743W        W26360   5.649   6.003  12.880 -0.1886  0.3836  0.0054
10744W        W26361  15.480  11.442  14.322 -0.2338  0.1267 -0.1028
10745W        W26362  17.075   8.297  14.471  0.1807 -0.1176 -0.0416
10746W        W26363   8.491   9.167  11.453 -0.1433 -0.3338  0.0655
10747W        W26364  14.140   0.211  12.154  0.1553 -0.3561  0.2710
10748W        W26365  16.655  18.327   4.730  0.0717 -0.2960  0.2356
10749W        W26366  12.889   2.125   5.365  0.0705 -0.2769  0.1543
10750W        W26367  16.552   5.779  16.110 -0.1455  0.0868 -0.1404
10751W        W26368   4.788   9.432  11.425 -0.1084 -0.0120  0.2299
10752W        W26369  15.188   3.495  14.222  0.0614  0.2242 -0.0594
10753W        W26370   7.761  15.537  14.286  0.2405  0.0125  0.0996
10754W        W26371  15.149   7.434   1.362 -0.1553 -0.0267 -0.0001
10755W        W26372   3.767  11.223   5.007  0.1726 -0.0182 -0.0950
10756W        W26373  14.669  17.434   1.402  0.0270  0.0161  0.2220
10757W        W26374  10.977  14.285   5.460 -0.3379  0.0024  0.3820
10758W        W26375  12.857   2.831  13.494  0.0989  0.0641 -0.0252
10759W        W26376  10.745   2.323   3.856  0.0166  0.1139  0.2711
10760W        W26377   6.030   5.919   4.254  0.0628  0.2414  0.1696
10761W        W26378  13.902   4.675  15.570  0.2316  0.1686 -0.3618
10762W        W26379   6.663   8.817   0.871 -0.0518 -0.1520  0.1439
10763W        W26380  11.947   7.193  12.968  0.0818  0.0203 -0.0332
10764W        W26381   3.117  15.046  14.698 -0.2422 -0.0584  0.0713
10765W        W26382  10.517   3.996  13.018  0.3433 -0.0079  0.2118
10766W        W26383  11.973  18.053  12.844  0.3136 -0.0560 -0.0376
10767W        W26384   3.513   6.101   3.543 -0.0768  0.0636  0.2598
10768W        W26385  11.513   2.911   3.046  0.3258  0.1352 -0.1424
10769W        W26386   3.896   4.620   3.970  0.1850  0.0780  0.0906
10770W        W26387  10.306  17.584   3.583 -0.1652 -0.0280  0.1030
10771W        W26388   7.683  18.105   1.925 -0.3237  0.0836 -0.0205
10772W        W26389  13.777  18.263   3.271 -0.2438 -0.0726 -0.2028
10773W        W26390   5.737   2.080  15.842  0.0271  0.2588 -0.2071
10774W        W26391   6.245  17.958  15.195  0.1566 -0.0480  0.1173
10775W        W26392  17.044  15.945   3.243  0.0000  0.0977 -0.0654
10776W        W26393  13.776   8.615   3.357  0.3182 -0.0295 -0.0342
10777W        W26394   9.366   9.951   0.130  0.0284 -0.1254  0.1979
10778W        W26395   4.798  18.330  15.182 -0.3326  0.1495  0.1933
10779W        W26396  11.608  11.500  11.314  0.1663  0.0071  0.1035
10780W        W26397   7.549  14.714   5.900 -0.0600 -0.1941 -0.1096
10781W        W26398  13.596   0.773  12.096  0.0066 -0.0441 -0.1608
10782W        W26399   4.583  17.727  13.794 -0.0752  0.0473 -0.1128
10783W        W26400  12.978  12.231  14.514 -0.0500 -0.2692  0.1230
10784W        W26401   9.441   6.569   1.118 -0.0933  0.0253 -0.1572
10785W        W26402  16.921  16.660  15.940  0.2264  0.1201 -0.0874
10786W        W26403  14.274   4.529  15.786 -0.1430  0.1084  0.0263
10787W        W26404  10.139   8.649   3.431  0.2611  0.1463 -0.0801
10788W        W26405   6.741   7.266   2.379  0.0203 -0.3322  0.0092
10789W        W26406   8.613  13.794   2.318 -0.0769 -0.2415 -0.0966
10790W        W26407  18.434   4.133   1.076 -0.3817 -0.2458  0.1173
10791W        W26408  10.197   5.443  13.274  0.0893 -0.0638 -0.0083
10792W        W26409   6.766   5.483  13.084  0.0623 -0.0072 -0.1475
10793W        W26410   4.384   3.092  15.381  0.4011 -0.2491 -0.1830
10794W        W26411   2.947  10.272   0.890 -0.0286  0.0613 -0.1095
10795W        W26412  15.882   5.104   2.152  0.1849 -0.0027  0.1915
10796W        W26413  15.023  14.327   5.460  0.0161  0.3311  0.1116
10797W        W26414   0.192  15.236  11.936 -0.1112 -0.0617  0.0756
10798W        W26415  17.543   1.283  14.327 -0.1746  0.0073 -0.0245
10799W        W26416  10.839  15.918   0.520 -0.1071  0.1366  0.0700
10800W        W26417  17.328   0.948   4.705 -0.1136 -0.0336  0.0500
10801W        W26418   5.542   3.969  12.185  0.0309  0.1189 -0.0199
10802W        W26419   0.030  14.361  12.685 -0.2957  0.1034  0.2418
10803W        W26420  17.078   2.396  14.312 -0.1451 -0.1197  0.1605
10804W        W26421  14.282   0.298   0.438 -0.0709  0.1126 -0.0058
10805W        W26422   0.256   7.706  15.043 -0.1209  0.1539  0.0768
10806W        W26423  11.114   1.491  14.721  0.0732  0.2732  0.0293
10807W        W26424   6.018  15.132  11.232  0.0245 -0.1160 -0.0805
10808W        W26425   0.397   4.973  13.572  0.0925 -0.1633  0.2295
10809W        W26426  18.057   0.807   2.352  0.3803 -0.4142  0.0805
10810W        W26427  11.438   8.434   4.078 -0.0950  0.3740 -0.3930
10811W        W26428  12.896   4.602   3.314  0.1285  0.2719  0.3936
10812W        W26429   3.196   2.962  12.402 -0.3534  0.1052  0.1912
10813W        W26430   8.513   2.599   0.696  0.2482  0.1722 -0.1201
10814W        W26431  11.454  16.781   3.044  0.0511 -0.0561  0.1213
10815W        W26432   4.882   2.052   0.243 -0.1552 -0.2057 -0.2000
10816W        W26433   2.007  18.194  13.697  0.3582  0.2802  0.0392
10817W        W26434  12.152   0.501  15.598 -0.4104  0.2411 -0.1427
10818W        W26435   3.172  10.574   4.739 -0.1569 -0.1751  0.1723
10819W        W26436  16.245   3.524   0.036 -0.0548  0.2889  0.0269
10820W        W26437  15.594   6.022   4.469  0.0487 -0.2139 -0.1893
10821W        W26438  13.030  18.033  14.321 -0.2009  0.0474 -0.4677
10822W        W26439  11.275  12.032  15.072 -0.0611  0.1073  0.0225
10823W        W26440   8.544   3.534  10.619 -0.0849 -0.3673 -0.2620
10824W        W26441  13.251   7.301   2.653 -0.0684 -0.2224  0.1297
10825W        W26442   5.478   6.567   0.693  0.0375  0.0915  0.1433
10826W        W26443   2.625  15.457   5.571 -0.0993  0.0317  0.0673
10827W        W26444  10.421   8.433   4.595 -0.2606 -0.1898  0.2837
10828W        W26445   3.956  16.771  15.810 -0.2344 -0.0532 -0.2030
10829W        W26446   0.440   5.413   2.246  0.0496 -0.2218  0.0001
10830W        W26447  16.069   1.081  12.067 -0.0734  0.0505  0.3471
10831W        W26448  16.098   2.055  11.675 -0.0876  0.4327  0.1426
10832W        W26449  15.226   3.236  12.393 -0.0329  0.1090  0.0728
10833W        W26450   8.124   8.069  14.181  0.0059 -0.0409  0.0187
10834W        W26451  12.907   8.927   3.635 -0.2679 -0.2682  0.0598
10835W        W26452   0.459  11.833  11.576 -0.0531  0.1070  0.0090
10836W        W26453  10.894   4.439   1.037  0.2254  0.1212  0.0079
10837W        W26454  12.969  10.114   4.030  0.1268  0.0088 -0.1907
10838W        W26455  15.255   9.734   0.138  0.0772 -0.2270  0.0357
10839W        W26456  14.288  11.951  11.335  0.1285 -0.0896 -0.1890
10840W        W26457  17.505   9.503   3.883  0.1003 -0.1447 -0.2382
10841W        W26458  11.019   5.995  15.484  0.0979  0.0626 -0.0175
10842W        W26459  11.475   1.152   1.231 -0.1536 -0.1621 -0.0409
10843W        W26460  16.690   3.813   1.124 -0.0121  0.1859  0.2785
10844W        W26461   2.315   4.492   1.761  0.0277  0.1391  0.0507
10845W        W26462  14.678   8.009   3.938 -0.2728 -0.2991  0.1552
10846W        W26463   2.417  10.519   3.538  0.0026 -0.1465  0.1504
10847W        W26464   3.336  10.917   4.085  0.0514  0.2406 -0.0515
10848W        W26465  11.396  11.337   3.286 -0.0979  0.1886 -0.0715
10849W        W26466  11.398  14.690  12.284 -0.1651 -0.1121  0.0019
10850W        W26467  17.166   1.600   0.090 -0.0180  0.0471  0.0385
10851W        W26468   6.183  13.664   4.998 -0.4178  0.3086  0.1867
10852W        W26469  10.290   8.567   2.967 -0.1300 -0.0537  0.2984
10853W        W26470  17.488   4.935  11.357 -0.1158 -0.0497 -0.0470
10854W        W26471   7.705  12.844   1.002 -0.1051  0.1442  0.1004
10855W        W26472   1.836   6.807  15.972  0.2124 -0.1975  0.3987
10856W        W26473   3.850   8.611   4.864  0.0327 -0.3231 -0.1403
10857W        W26474  14.396   8.004   0.288 -0.1520 -0.2819 -0.1128
10858W        W26475   1.714  18.053   3.653  0.3395  0.1402  0.0537
10859W        W26476   1.553   1.067   5.174  0.2487 -0.0302  0.1876
10860W        W26477  10.370   9.940  12.362 -0.1463 -0.0722  0.1369
10861W        W26478  15.084   9.827   2.567 -0.1297  0.3462  0.0566
10862W        W26479  15.316  14.884   0.453  0.0171 -0.1364  0.1694
10863W        W26480  10.075   4.853  13.018  0.1951  0.0295  0.2165
10864W        W26481   4.079   5.329   3.565  0.1907 -0.0120  0.0375
10865W        W26482   1.665  13.740  14.064 -0.0411  0.1817  0.2554
10866W        W26483  18.158   5.693   1.256 -0.4826  0.2822  0.0798
10867W        W26484   5.266   3.417   3.086 -0.2956  0.1469  0.2242
10868W        W26485  17.201  11.711   4.238 -0.0832 -0.2806 -0.2865
10869W        W26486  13.746   5.545  11.962  0.1244  0.0609 -0.1570
10870W        W26487   3.644   9.253  13.105  0.1087 -0.1759 -0.1164
10871W        W26488   4.478  18.012  11.777  0.1404  0.0641 -0.2701
10872W        W26489   5.286  17.238   4.974  0.0167  0.1834  0.0650
10873W        W26490  16.819   4.144   5.379 -0.2542  0.1764 -0.1617
10874W        W26491  15.200  16.897   3.139 -0.1612 -0.3851 -0.1717
10875W        W26492   4.929  17.350   1.411  0.2590  0.4714 -0.3579
10876W        W26493  17.204   1.853  12.206  0.0441  0.2340  0.1729
10877W        W26494  11.930   7.777   0.398 -0.2541 -0.0692  0.1432
10878W        W26495   6.905  15.946  15.310  0.0805 -0.0577  0.2432
10879W        W26496   2.078  16.001   5.134  0.1432  0.1419  0.1424
10880W        W26497   5.618   8.853   0.295 -0.3875 -0.1603  0.4798
10881W        W26498  11.258  12.118  13.099 -0.1600 -0.1818  0.0666
10882W        W26499   3.035  16.903   2.294 -0.0015 -0.0102  0.0626
10883W        W26500  10.077  17.069  15.405 -0.3186 -0.3103 -0.1533
10884W        W26501   1.090   5.750   1.183 -0.0997 -0.0548  0.4138
10885W        W26502  12.477   3.114  11.601 -0.1060 -0.0959  0.0612
10886W        W26503   4.036   6.821  12.261 -0.0917 -0.1568 -0.0743
10887W        W26504  10.705   4.827   5.228  0.0658 -0.1774 -0.1145
10888W        W26505   6.232   0.915  15.574  0.2723  0.1402  0.3279
10889W        W26506   7.249   0.159   4.077  0.1774 -0.0605  0.2217
10890W        W26507  13.859   0.168   0.227  0.4059  0.0982 -0.0456
10891W        W26508   4.774   9.444   5.285  0.0670  0.1955 -0.0945
10892W        W26509  10.074  17.064   3.743  0.1829 -0.2711 -0.2300
10893W        W26510  16.812   5.223  13.738  0.1612  0.2203 -0.0602
10894W        W26511   9.601   9.749   3.623  0.1090 -0.2744  0.1616
10895W        W26512   0.051  16.410   2.833 -0.0568  0.1082 -0.0833
10896W        W26513  13.081   7.787  13.562 -0.2608  0.2080 -0.2725
10897W        W26514   1.265   5.436   5.005  0.2454  0.2709  0.1928
10898W        W26515   1.886  13.385   5.123 -0.0534  0.0177 -0.1667
10899W        W26516  12.464  16.288   6.215 -0.0336  0.0346 -0.1337
10900W        W26517   5.007   5.375   3.070  0.3090 -0.0839  0.1434
10901W        W26518  16.717   1.750   4.523 -0.0419  0.1698 -0.0905
10902W        W26519  17.276   6.680  13.042  0.0766  0.0012  0.0700
10903W        W26520  13.770  16.452   0.259 -0.2163 -0.2094  0.3061
10904W        W26521  15.403   5.212   2.182 -0.1610  0.0589 -0.0964
10905W        W26522  16.973   4.517  12.268 -0.1891 -0.0558 -0.2292
10906W        W26523   8.874  15.552  12.967 -0.0922 -0.0515 -0.1145
10907W        W26524   3.208   6.816  12.632  0.0261 -0.0610 -0.0419
10908W        W26525  10.296   7.919   0.257  0.2551 -0.1116  0.2557
10909W        W26526   4.600   9.973  12.499 -0.3974  0.0992  0.1455
10910W        W26527   8.121   6.676   3.220  0.1234 -0.2442  0.0044
10911W        W26528   3.622   8.123  11.081 -0.0069  0.2242 -0.1775
10912W        W26529   8.953  12.498   3.549  0.1096 -0.2025  0.2364
10913W        W26530   5.504  15.603   1.272  0.0982 -0.1917 -0.1560
10914W        W26531  11.842  13.502   5.758  0.2168  0.0331  0.3934
10915W        W26532  18.084   8.771  14.632 -0.1198 -0.2832  0.0074
10916W        W26533  10.273  17.291   5.543 -0.4353 -0.1222  0.1955
10917W        W26534  17.951   6.552  11.783 -0.1000  0.1385  0.2337
10918W        W26535   6.458   7.321  14.978 -0.0020  0.1271 -0.0216
10919W        W26536  16.724   8.743  12.156 -0.4666  0.0410  0.5283
10920W        W26537   5.725  13.239  13.270  0.3258  0.0271 -0.0311
10921W        W26538  10.816   5.583   0.100  0.0775 -0.0679 -0.0109
10922W        W26539  16.261   4.911   5.138  0.0979  0.1191  0.0076
10923W        W26540   5.687  16.361   1.574  0.0478 -0.2127 -0.1333
10924W        W26541  11.030  16.285   4.703 -0.0901  0.0655  0.3145
10925W        W26542   2.431   4.252  13.212 -0.0921  0.0107  0.2394
10926W        W26543  10.023  12.540   2.502  0.1954  0.1286 -0.2027
10927W        W26544  10.080  14.105   4.804  0.0661  0.0813 -0.1029
10928W        W26545   1.326   8.047   1.986 -0.1931  0.2052  0.3709
10929W        W26546   9.484   2.795   1.179  0.0988 -0.1739 -0.0220
10930W        W26547   8.263  11.086  14.111 -0.0103 -0.1404 -0.0478
10931W        W26548  11.664   1.602  16.002 -0.0093 -0.1967  0.0618
10932W        W26549   3.534  12.975  11.368  0.0398 -0.1816  0.1848
10933W        W26550  17.132   0.271   2.617 -0.3251 -0.0881  0.0590
10934W        W26551  13.323   9.730  16.086  0.0258 -0.3749 -0.3126
10935W        W26552  10.657   0.787  15.720 -0.2902 -0.1801  0.0945
10936W        W26553  17.371  17.403  15.126 -0.1460  0.0922  0.0851
10937W        W26554   5.742   8.263   1.897 -0.2292 -0.2678  0.2141
10938W        W26555   7.143   2.893  15.743  0.0653  0.0062  0.0055
10939W        W26556   5.968   5.480  11.927 -0.2837  0.1260  0.0797
10940W        W26557   5.794   6.033  13.764  0.0919  0.2087  0.6955
10941W        W26558  17.432   2.826   0.609  0.1401 -0.0871 -0.1192
10942W        W26559   2.086  12.557   4.108 -0.1591 -0.2341  0.0367
10943W        W26560  11.877  13.084   6.163  0.0060  0.0703  0.1457
10944W        W26561   4.259  17.773   0.811  0.2164  0.0560 -0.1352
10945W        W26562   2.188   3.231  12.880 -0.0725  0.0209  0.0753
10946W        W26563   0.059   7.975  14.304 -0.3094 -0.0956 -0.1362
10947W        W26564  12.427   9.567   5.403  0.2562  0.0171 -0.0801
10948W        W26565  16.275  15.553  11.583 -0.3071 -0.0476 -0.3094
10949W        W26566   2.594  11.502  15.614 -0.0473  0.0095 -0.0959
10950W        W26567  10.427   1.288   1.036 -0.2581  0.2627  0.1362
10951W        W26568   9.586  12.395  14.336 -0.0095 -0.1085  0.2563
10952W        W26569   9.403   0.348   1.152  0.1246  0.0831 -0.0464
10953W        W26570  17.315   8.375  11.853 -0.0049  0.0271  0.1030
10954W        W26571  16.277  13.486   0.930  0.2786  0.2755  0.1511
10955W        W26572   2.243  11.483  11.208 -0.1796  0.1074  0.0978
10956W        W26573   2.245  11.902  12.093 -0.1123 -0.2831 -0.0498
10957W        W26574  12.532   1.210   3.329 -0.5005 -0.1581 -0.0552
10958W        W26575   6.525  10.343   4.576  0.1102 -0.2100  0.0077
10959W        W26576  14.159   1.456   1.504 -0.0109  0.1481 -0.2185
10960W        W26577   4.940   3.823  13.876  0.1982  0.2346  0.0038
10961W        W26578  12.857  12.184  11.594  0.0984 -0.1105  0.1990
10962W        W26579   9.226   9.880  14.845  0.0292 -0.0364  0.1556
10963W        W26580  17.349  10.720  13.259 -0.0012  0.1428  0.1634
10964W        W26581  16.616  16.751   1.821  0.2225 -0.1343 -0.3670
10965W        W26582  14.419   0.870  13.244 -0.0098  0.2276  0.2831
10966W        W26583   3.519  14.669   2.845  0.2133  0.0734 -0.0260
10967W        W26584   5.226   4.271   4.009 -0.0353 -0.4781 -0.2716
10968W        W26585  13.200   6.833   5.426 -0.1267  0.0757 -0.0924
10969W        W26586  16.240  13.069  14.151  0.1072  0.0355 -0.2332
10970W        W26587   6.302  18.011   5.244  0.1592 -0.0942 -0.0908
10971W        W26588  14.018  10.619  11.820  0.0104 -0.1418  0.1428
10972W        W26589  12.013   9.911  11.384  0.0990  0.0005  0.1271
10973W        W26590  10.978   2.482  11.769  0.0248 -0.1591 -0.1426
10974W        W26591   3.922   7.901  13.485  0.1104 -0.2270  0.2110
10975W        W26592   7.854   8.377  15.895  0.3783 -0.3284 -0.2806
10976W        W26593  15.005  11.803   1.979 -0.3527 -0.2038 -0.0042
10977W        W26594   0.242  16.461   0.164  0.2392 -0.1580  0.3455
10978W        W26595  16.210  10.679   1.471 -0.1293  0.0092  0.4504
10979W        W26596   4.405   9.402   4.832 -0.2332 -0.1835 -0.2234
10980W        W26597   3.652  16.261   5.958  0.1554 -0.4364 -0.0377
10981W        W26598   3.633  17.538  15.393 -0.0109  0.0296 -0.0010
10982W        W26599   9.267   9.344  14.784 -0.0497 -0.4997  0.2819
10983W        W26600  13.498  17.078  12.855  0.0237  0.1033 -0.2200
10984W        W26601  14.785   8.551   4.813 -0.2887 -0.0371 -0.1434
10985W        W26602   1.902  15.746   2.581 -0.1251  0.1934  0.1213
10986W        W26603  18.149  17.117  15.584  0.1219  0.1117 -0.1926
10987W        W26604  14.589  11.551   2.012 -0.4963  0.4430  0.0804
10988W        W26605   8.720   7.982   3.773  0.1543 -0.0102  0.0682
10989W        W26606  12.265   6.817   1.459  0.2849 -0.0163  0.2158
10990W        W26607  17.646  15.531   3.944  0.0109  0.0173  0.0073
10991W        W26608  16.273   5.204  14.589 -0.1828 -0.1367 -0.5369
10992W        W26609  10.049  12.310  13.306  0.0138 -0.0824  0.1163
10993W        W26610   9.406  12.964   4.494 -0.3468  0.0483 -0.0720
10994W        W26611   5.808   9.171  15.849  0.0710 -0.0852 -0.1682
10995W        W26612   0.609  13.595  14.829 -0.2637  0.0986  0.0968
10996W        W26613  14.564   8.744   4.141 -0.1200  0.0911 -0.1713
10997W        W26614   8.239   7.350   1.027 -0.1795  0.0962  0.2436
10998W        W26615  15.135  12.691   2.306  0.0626  0.0724 -0.0752
10999W        W26616   6.210  16.307  13.783  0.0098  0.0601 -0.0996
11000W        W26617   2.114  18.116   5.654  0.2614  0.1154  0.0277
11001W        W26618  16.593   4.296  15.566  0.0226 -0.0716  0.1098
11002W        W26619   8.090   1.407   4.589  0.3874 -0.0629 -0.3703
11003W        W26620   0.234  16.069   2.307  0.1705  0.2671 -0.1241
11004W        W26621  15.780  16.879  12.520 -0.0935  0.3475 -0.0483
11005W        W26622   5.238  15.907  11.802  0.0506 -0.1910  0.2159
11006W        W26623  17.416  17.520   2.195 -0.1831  0.0238 -0.1381
11007W        W26624  13.789  14.914   4.898  0.2773  0.1729 -0.0781
11008W        W26625  16.605   1.312  13.324 -0.0886 -0.1322  0.2484
11009W        W26626  10.481   7.390   4.881  0.0054  0.1281  0.1016
11010W        W26627  12.922  14.524   1.642 -0.1869 -0.1131  0.0740
11011W        W26628  13.307   7.130   4.489 -0.0210  0.0945 -0.1293
11012W        W26629  16.176  15.917   0.862 -0.0310 -0.3442 -0.4161
11013W        W26630   6.982   7.108  10.966  0.2512 -0.0626 -0.1690
11014W        W26631   1.546   8.476  11.848 -0.2337  0.0145 -0.4441
11015W        W26632  17.557  18.339  13.964  0.0300  0.2577 -0.1000
11016W        W26633  12.290  14.147   1.412  0.1064 -0.1833  0.0281
11017W        W26634   6.255   4.311  14.458  0.0872  0.3802 -0.0559
11018W        W26635  15.843  10.251  14.013  0.1200 -0.1794 -0.2503
11019W        W26636  13.396   7.972  11.181  0.1558  0.1878 -0.0541
11020W        W26637  18.063   8.120   5.203  0.0666 -0.1887  0.4105
11021W        W26638   0.266  10.911  13.516 -0.0227 -0.1803  0.0228
11022W        W26639   9.483  15.700   1.058 -0.1883 -0.1451  0.1708
11023W        W26640  15.314   8.339   4.375  0.0361 -0.1615  0.2514
11024W        W26641   9.534   9.441  12.456  0.0869  0.1244 -0.1697
11025W        W26642  11.315   5.889   2.798  0.1345 -0.0968 -0.0621
11026W        W26643   6.706  10.400   5.455 -0.0214 -0.0447  0.0449
11027W        W26644  17.405  17.342   3.152  0.2355 -0.0978  0.1818
11028W        W26645  15.902   4.630   1.976  0.2943 -0.0090  0.3043
11029W        W26646  10.498  15.723   0.861  0.0443 -0.2434  0.0093
11030W        W26647  13.477   0.044  11.672  0.5190 -0.1181 -0.0040
11031W        W26648  11.312  10.136   3.536  0.0674  0.1340 -0.3365
11032W        W26649   5.358   6.749  15.411  0.0542 -0.2055 -0.1294
11033W        W26650   1.104  18.124  12.737 -0.0785  0.1730  0.3840
11034W        W26651   7.964   0.937   1.914 -0.0567 -0.2666  0.3401
11035W        W26652  16.011  18.198   2.051 -0.2863  0.0789  0.4121
11036W        W26653  13.453  17.201   2.625  0.2573 -0.0860  0.1847
11037W        W26654  16.996   9.036  13.371 -0.0192  0.3760 -0.0729
11038W        W26655  14.212  13.085  12.994  0.1172 -0.0632  0.0634
11039W        W26656   5.400   3.821  12.653 -0.4553 -0.0193 -0.1591
11040W        W26657   0.190  11.638  12.084 -0.0022  0.1199 -0.1435
11041W        W26658   5.421  16.299   2.650  0.2114 -0.0080 -0.1281
11042W        W26659   0.894  14.322   5.047  0.2288 -0.2234 -0.2095
11043W        W26660   9.022  15.102   4.060 -0.0279 -0.0412  0.3954
11044W        W26661   9.610  13.955  12.853  0.3158  0.2821  0.0530
11045W        W26662   5.209   2.569  14.142 -0.0129 -0.0416  0.0700
11046W        W26663   9.521  11.265   0.109 -0.1389 -0.0088  0.0858
11047W        W26664  14.791   5.900  13.551  0.1889  0.0218 -0.0274
11048W        W26665   3.695   2.640  11.683  0.1371 -0.1583 -0.0802
11049W        W26666   1.703   4.370   2.422  0.1448  0.0272 -0.2507
11050W        W26667   7.333  15.733  11.769  0.0394  0.2248  0.1853
11051W        W26668   5.839  12.743   1.535  0.1960 -0.0511 -0.1875
11052W        W26669  14.412   4.449  11.235  0.0556  0.0945 -0.1187
11053W        W26670   7.367   1.379   2.561  0.1625  0.1439 -0.1990
11054W        W26671   8.690  17.042   1.447 -0.2973  0.1566  0.0987
11055W        W26672   2.735  16.594   0.688 -0.0360  0.1803 -0.0937
11056W        W26673  18.435  13.825   4.778  0.1513 -0.2395 -0.6037
11057W        W26674  10.372   0.461   5.342 -0.0411  0.0471 -0.1694
11058W        W26675  11.285  16.801  14.105 -0.0294 -0.0603 -0.0783
11059W        W26676   0.517   1.811   4.512  0.0062  0.0301 -0.1826
11060W        W26677  12.270   7.799   2.828  0.1238  0.2708 -0.3000
11061W        W26678  16.317  13.013   2.964 -0.1768  0.1367 -0.2672
11062W        W26679  10.508  13.867   5.105 -0.2218 -0.1059 -0.2921
11063W        W26680  13.787   9.960  13.935 -0.0262 -0.2953  0.1532
11064W        W26681   5.265  16.468  13.429 -0.1796 -0.1949  0.1077
11065W        W26682   6.841  17.678  13.519  0.2750  0.0104  0.0331
11066W        W26683   3.045  13.745   0.737  0.0991  0.0761  0.0046
11067W        W26684   3.579   5.116  13.282 -0.2434  0.0218 -0.1034
11068W        W26685   5.516  12.610  14.141  0.2155 -0.0545 -0.0333
11069W        W26686   9.412  10.697  12.808 -0.2294 -0.2837 -0.0800
11070W        W26687   7.172  16.804  13.831  0.2574  0.1838  0.0740
11071W        W26688   5.577   3.170   2.794 -0.0026 -0.4066  0.1141
11072W        W26689  10.894  14.452   0.143 -0.0120  0.0399  0.3481
11073W        W26690   4.667  15.349   4.301 -0.0604 -0.0266 -0.1035
11074W        W26691   1.416   0.474   3.257 -0.0901 -0.0323  0.0414
11075W        W26692  16.484  15.264   5.121 -0.0317  0.2920 -0.3126
11076W        W26693   8.335  18.358  14.799  0.1242 -0.0056  0.0578
11077W        W26694  10.530   4.508   0.506 -0.1245 -0.2241 -0.4396
11078W        W26695  13.610  10.901   2.496  0.1329  0.1007 -0.1839
11079W        W26696   7.673   7.254  11.559  0.2990 -0.1637 -0.3858
11080W        W26697  16.922  10.757   0.679  0.3103 -0.2475  0.0591
11081W        W26698   9.951   2.134  16.082  0.1686  0.0862 -0.3369
11082W        W26699  10.390  18.214  11.473  0.0523  0.0043 -0.1122
11083W        W26700   0.044   2.517   0.604  0.0667  0.0361  0.1778
11084W        W26701   0.802  10.625  14.771 -0.1500  0.2863  0.2016
11085W        W26702   4.652   5.538  13.322 -0.0449 -0.0785  0.0030
11086W        W26703   1.909   4.399   4.592  0.2882  0.1120  0.1494
11087W        W26704  18.455   6.385   3.764 -0.0005 -0.2386  0.3336
11088W        W26705   4.048   8.911  11.950 -0.1847  0.1324  0.2017
11089W        W26706   9.158  11.554  11.759  0.0108  0.0751 -0.0544
11090W        W26707   5.356   9.978  11.784 -0.2127  0.0774  0.1424
11091W        W26708  11.626   9.979   0.425 -0.2641  0.1001 -0.0607
11092W        W26709  12.223  15.958   1.768 -0.1451  0.2239  0.2369
11093W        W26710   5.874  12.841  15.767  0.0344  0.0508  0.0210
11094W        W26711  17.140  12.317   0.747  0.2249 -0.0955 -0.0933
11095W        W26712  16.818   3.251   1.241  0.1783 -0.1432 -0.0435
11096W        W26713  15.220   6.277  13.514 -0.0368 -0.2772  0.0257
11097W        W26714  13.676   2.669   3.968  0.2937  0.1606 -0.0093
11098W        W26715  17.235  12.602  13.245 -0.1871 -0.1264  0.2747
11099W        W26716  17.421  11.082  14.987 -0.0689 -0.0482  0.0453
11100W        W26717   6.204  17.849   1.463  0.0192  0.0580 -0.0239
11101W        W26718  11.526  15.534  15.709  0.1156 -0.0096  0.2609
11102W        W26719  11.028   6.084   2.278 -0.0316 -0.1967  0.0137
11103W        W26720  12.692   3.608  14.539  0.1599 -0.2642  0.2006
11104W        W26721   5.517  11.408   0.622  0.3000  0.0804 -0.2596
11105W        W26722   0.940  14.024   6.914  0.1247  0.1275  0.2053
11106W        W26723  12.882  10.325   5.552 -0.0283  0.0223 -0.2058
11107W        W26724  17.815  17.580   5.089  0.5664 -0.3040  0.1192
11108W        W26725   9.952  17.989   3.857  0.0604  0.1162  0.2236
11109W        W26726  12.718  15.069  11.992  0.2427 -0.1451 -0.1023
11110W        W26727  18.359   1.194   1.440 -0.0139 -0.2458 -0.1774
11111W        W26728   7.459   0.885   2.626  0.0004 -0.2095 -0.1707
11112W        W26729   7.511  12.755   1.866  0.0343  0.0049 -0.0448
11113W        W26730   5.789  10.656   0.012 -0.6739 -0.1833 -0.0264
11114W        W26731   3.685   0.968   4.745 -0.0071  0.0130 -0.0094
11115W        W26732   2.726  13.969  15.765 -0.0124 -0.0727  0.0119
11116W        W26733  12.102  17.147   0.921  0.1189 -0.4326  0.0960
11117W        W26734  10.773  15.284   2.639 -0.0111  0.0752 -0.1629
11118W        W26735   4.500   3.657  12.696  0.3424 -0.1093  0.0158
11119W        W26736   8.394   1.252  11.791  0.2339 -0.0634  0.2116
11120W        W26737   9.757   1.934  10.720 -0.1226 -0.0038 -0.0927
11121W        W26738   1.149  12.026   0.602  0.1000 -0.1457 -0.1661
11122W        W26739  17.695  17.064   4.589  0.0455 -0.0179 -0.2417
11123W        W26740  17.093   9.705   2.663  0.1983  0.0840  0.0001
11124W        W26741  13.377   2.208  11.109  0.4250  0.0334 -0.3907
11125W        W26742  14.703   8.246   5.284  0.1204  0.0844  0.3431
11126W        W26743  15.369   7.264   2.179  0.1900 -0.0664  0.3248
11127W        W26744   2.643  16.784   6.142  0.0244 -0.1144  0.0777
11128W        W26745  10.408  16.900  12.979 -0.1771 -0.1609  0.0435
11129W        W26746  13.542  18.050  13.573  0.0819 -0.3386 -0.0540
11130W        W26747   1.202  16.039  11.443  0.1222 -0.0295  0.0340
11131W        W26748   8.558   2.457   1.880 -0.1056  0.0789 -0.3959
11132W        W26749  16.432  17.642   4.102 -0.3160  0.2665  0.1407
11133W        W26750   3.479   9.291   5.500 -0.2496  0.1010 -0.1558
11134W        W26751  12.406   6.114   2.802 -0.0491 -0.0229 -0.0036
11135W        W26752   1.805   4.203   2.944 -0.1725  0.2808 -0.2922
11136W        W26753  11.941  10.770   5.242  0.0303  0.1435 -0.0713
11137W        W26754  10.116   1.414   0.026  0.1691  0.1278 -0.1265
11138W        W26755   4.092   3.934  13.699 -0.1192  0.0005 -0.1775
11139W        W26756  14.475   5.787   0.748 -0.1589  0.1960  0.0827
11140W        W26757  11.196   6.637   4.968  0.3282  0.3088 -0.2312
11141W        W26758  17.168   2.782   1.905  0.2856 -0.4965  0.2347
11142W        W26759   6.645  16.750  11.610  0.0917  0.2429 -0.2139
11143W        W26760   9.920   0.331   2.160 -0.0731 -0.0934 -0.2166
11144W        W26761  14.522   4.532   2.028 -0.1022 -0.0875 -0.0910
11145W        W26762  11.826   8.936   3.051 -0.1967 -0.0387 -0.0490
11146W        W26763   8.901  14.772   3.700 -0.2147  0.1023  0.1311
11147W        W26764  17.454   4.314   3.575  0.1054 -0.0038  0.0257
11148W        W26765  15.482  12.022  15.326  0.0437  0.2575  0.3277
11149W        W26766   0.140   9.700  15.541 -0.0511  0.1864  0.0290
11150W        W26767   6.124  10.697  12.679  0.0051  0.0831  0.3257
11151W        W26768   3.705  16.364   0.541  0.0824 -0.0025  0.1590
11152W        W26769  10.940  14.284  12.979 -0.0215 -0.2286 -0.0052
11153W        W26770  12.344   5.422   2.396 -0.0627  0.0008 -0.1005
11154W        W26771   4.914   5.704   0.786  0.1037 -0.0765  0.0422
11155W        W26772  15.198  13.795   1.385 -0.0530  0.3919 -0.1985
11156W        W26773   9.558  18.263   0.018  0.0547 -0.1396 -0.1484
11157W        W26774   5.990  17.018   4.083  0.2030 -0.1149 -0.1713
11158W        W26775   3.857  10.556   1.270  0.0815  0.1914  0.0842
11159W        W26776  13.424   3.926  16.124  0.0908 -0.3457  0.2610
11160W        W26777   8.205   6.542   3.824 -0.1195 -0.1701  0.1977
11161W        W26778  10.171   1.116  12.666 -0.1552 -0.0348 -0.2500
11162W        W26779  13.086  11.772   0.238 -0.0091 -0.3841  0.1202
11163W        W26780  13.388  17.143   3.110 -0.2893 -0.0914  0.1299
11164W        W26781   9.927  10.395  11.366  0.0704  0.2307 -0.1352
11165W        W26782  13.511  17.393  11.943  0.5557  0.1856 -0.3101
11166W        W26783  14.498   9.728  14.358  0.0231  0.0681 -0.0576
11167W        W26784   7.642  13.551   3.908 -0.3133 -0.2209 -0.0394
11168W        W26785   2.488   0.926   2.322 -0.2135 -0.0279  0.0150
11169W        W26786  14.028   6.907   1.718 -0.2975  0.1292  0.1167
11170W        W26787   1.566  10.176   3.812  0.0199  0.2804 -0.2333
11171W        W26788  17.736   7.369   4.238 -0.0759  0.0140 -0.1131
11172W        W26789   4.068   0.952   2.530 -0.0981  0.0196 -0.1064
11173W        W26790   6.053   8.410  12.950 -0.2137  0.0092 -0.0383
11174W        W26791  13.742   5.669  12.984 -0.0452  0.0125 -0.1763
11175W        W26792   2.547   7.826   3.893  0.0008 -0.1072 -0.1877
11176W        W26793   2.939  18.202   2.260  0.0915  0.2526  0.0496
11177W        W26794   9.558  17.970   5.355 -0.3930  0.0535 -0.1301
11178W        W26795  13.700   1.233   0.534  0.0194 -0.3295 -0.0513
11179W        W26796   2.038  13.098   5.757  0.1044  0.0051  0.4746
11180W        W26797   4.395  16.745   4.860 -0.0791  0.0542 -0.0284
11181W        W26798  10.954   1.169  15.625 -0.2122 -0.0056  0.0995
11182W        W26799  14.855   7.502   3.388 -0.2328  0.0354  0.0864
11183W        W26800  13.731  16.260   4.135 -0.0590  0.2185  0.3230
11184W        W26801   0.477  16.104  14.539  0.1450 -0.0289 -0.1787
11185W        W26802  18.315   7.756  14.767 -0.0385  0.2085  0.0489
11186W        W26803  15.904   4.059   4.001  0.1541 -0.1428 -0.2088
11187W        W26804  12.089   6.047  13.899 -0.4472 -0.1554  0.3390
11188W        W26805  13.114  16.740   4.091  0.0504  0.0029 -0.0769
11189W        W26806  14.328  11.219   3.301  0.1461  0.0280 -0.1055
11190W        W26807   3.780   7.692   3.295 -0.3206  0.4334 -0.0748
11191W        W26808  18.257  16.245  15.828  0.2826 -0.3908 -0.1408
11192W        W26809  16.938   5.669   5.481  0.1690 -0.1362  0.0218
11193W        W26810   8.995   9.109   3.317  0.0422  0.3396  0.1584
11194W        W26811  18.216   2.134   3.844 -0.5293  0.1682  0.0927
11195W        W26812   2.050  12.069   3.862  0.1288  0.1176 -0.2053
11196W        W26813  17.838  17.737   3.985  0.0736  0.0511  0.0368
11197W        W26814   2.973   5.489  11.671  0.0991  0.4137  0.0150
11198W        W26815   3.795   3.252   4.363 -0.0640  0.0251  0.3967
11199W        W26816   2.848  17.654  13.859  0.1889  0.1465 -0.1600
11200W        W26817  18.158  17.407   2.366 -0.0344  0.0342 -0.0361
11201W        W26818   5.064  12.700  13.658 -0.1118 -0.0055  0.3464
11202W        W26819   3.891   4.560  14.983  0.1090  0.0315  0.0810
11203W        W26820  11.233   1.554   1.480  0.0103  0.1368  0.1145
11204W        W26821  13.530   3.198  13.983 -0.2534  0.2740  0.0669
11205W        W26822   5.632   3.840   3.988  0.2661 -0.0615  0.1293
11206W        W26823   6.332   4.706   0.807 -0.1739  0.0073 -0.1360
11207W        W26824  14.004  11.571  11.783  0.1198  0.0172  0.0250
11208W        W26825  17.722  14.696   2.992 -0.0573  0.2746  0.0401
11209W        W26826  17.711   0.047   5.655 -0.2381 -0.0003 -0.1189
11210W        W26827   7.155   6.734  11.831 -0.2899  0.1195 -0.1665
11211W        W26828   9.075  11.791  14.867 -0.1450  0.0718  0.0285
11212W        W26829   7.742   2.395   0.054 -0.4011  0.0567 -0.2616
11213W        W26830  13.821   7.040  15.078  0.0589  0.0663 -0.2333
11214W        W26831   6.459  15.552   0.227  0.0002  0.3053  0.1562
11215W        W26832   3.741   8.884   2.275 -0.1418 -0.0315 -0.3106
11216W        W26833   3.239   6.818   4.235  0.1157 -0.1615 -0.2557
11217W        W26834   3.442   9.065   1.083  0.0879  0.2796  0.1986
11218W        W26835  17.415  11.094   2.653  0.2203  0.0087 -0.1407
11219W        W26836  10.967   8.638  14.113 -0.0765  0.1766 -0.1413
11220W        W26837  18.340   5.901   4.557  0.1171 -0.2444  0.0230
11221W        W26838   2.564   0.502  13.431  0.0139 -0.1247 -0.0148
11222W        W26839  18.439   9.193  12.315 -0.3947  0.2646 -0.1024
11223W        W26840   6.418  15.101   3.361 -0.3794 -0.0784  0.4485
11224W        W26841   6.691   7.509  11.282 -0.1185  0.3100 -0.3149
11225W        W26842   3.545  18.221   0.001  0.1207 -0.0423  0.0769
11226W        W26843   4.851   6.970   0.670 -0.1008 -0.0863 -0.2775
11227W        W26844   3.187  11.168   3.077 -0.0164 -0.2147  0.0004
11228W        W26845   5.489   3.249  12.540  0.0062  0.1964 -0.1073
11229W        W26846  15.615   2.261  14.036 -0.0098 -0.1104  0.1526
11230W        W26847   1.688   1.735  13.226  0.4953  0.0757 -0.0398
11231W        W26848   2.757  13.268   2.313  0.2432  0.0969 -0.1105
11232W        W26849  10.743   7.851   3.117 -0.0515 -0.0584 -0.1222
11233W        W26850   7.164  13.928   5.530 -0.2479  0.2195 -0.1696
11234W        W26851  14.524  16.547   1.909 -0.1512 -0.2470  0.1194
11235W        W26852  10.202   0.212   0.700  0.1414  0.0688 -0.1875
11236W        W26853   2.600   3.403   3.830 -0.2236  0.0570  0.2178
11237W        W26854   2.315   0.089   3.442 -0.2653 -0.1055 -0.0009
11238W        W26855   1.146   9.115   4.195 -0.1678  0.1490  0.1731
11239W        W26856   7.006  12.805   0.287 -0.0233 -0.1430  0.3066
11240W        W26857   2.738   6.719   5.212  0.2691  0.2277  0.2813
11241W        W26858   0.366   4.561  11.675 -0.0681 -0.1086  0.4307
11242W        W26859  12.604   6.205   0.339 -0.1606  0.1690 -0.2116
11243W        W26860   2.121   6.588   3.238  0.1662 -0.1091 -0.1365
11244W        W26861   5.193   0.670  14.149 -0.1958 -0.1054  0.1491
11245W        W26862   3.152   5.073  14.365 -0.0368 -0.1082  0.2892
11246W        W26863  16.390   6.497   1.986  0.2332  0.1371 -0.0552
11247W        W26864  10.397   4.035   1.479  0.0468  0.2217  0.2392
11248W        W26865  15.400   3.848  13.797  0.2179  0.0631  0.2159
11249W        W26866   7.731   1.849   4.839 -0.0184 -0.1309 -0.1256
11250W        W26867   4.437  11.349   5.165 -0.0430  0.0877  0.0472
11251W        W26868   5.629  17.022   0.541 -0.1524  0.2282  0.0996
11252W        W26869   1.948  12.948   1.178 -0.1537 -0.4080 -0.1663
11253W        W26870   7.795   8.392   3.841 -0.2145 -0.1465 -0.2286
11254W        W26871  13.213  17.683  14.643 -0.1640  0.1912  0.2742
11255W        W26872  13.078  17.535   2.961 -0.1495 -0.0350  0.3508
11256W        W26873   2.737  13.376   6.515  0.0674  0.3006  0.0438
11257W        W26874   3.791  13.100   5.843 -0.0838  0.0223  0.0806
11258W        W26875   2.580   1.295  12.615 -0.1764 -0.2012  0.0875
11259W        W26876   5.491  10.480  11.801 -0.1790  0.0384 -0.0675
11260W        W26877  16.601   5.017  11.559 -0.0957  0.3292 -0.1572
11261W        W26878   9.100   6.725  13.764  0.0150 -0.2017  0.0390
11262W        W26879   9.142  14.064   4.799 -0.3189  0.2183 -0.0251
11263W        W26880  13.192   1.248  12.081 -0.1561  0.1411  0.1449
11264W        W26881  14.613   5.984   0.283  0.0822  0.1084 -0.2547
11265W        W26882   1.590   5.656   5.902 -0.1968  0.1371 -0.1812
11266W        W26883  12.085  17.989   4.388 -0.2333  0.1567 -0.1155
11267W        W26884  13.734  13.052   1.978  0.2010  0.1814  0.0544
11268W        W26885   7.221  12.301   0.063  0.3668 -0.0592 -0.1827
11269W        W26886  12.872  12.001  10.459 -0.0871 -0.0333  0.2684
11270W        W26887   9.276   0.326   3.515  0.4678  0.0309  0.1902
11271W        W26888  15.840  10.163  14.984 -0.2959  0.1621  0.0217
11272W        W26889  10.001  14.149   5.351 -0.0133  0.1465  0.0955
11273W        W26890  10.166   9.260   4.830  0.1075 -0.1206  0.1926
11274W        W26891   0.709  10.072  13.006  0.1889 -0.0842 -0.0171
11275W        W26892  11.339   7.235  12.813 -0.0673  0.0938 -0.0802
11276W        W26893  10.813   7.007   3.542 -0.0089 -0.1010  0.2220
11277W        W26894   9.326   7.256  10.928 -0.1431  0.0799 -0.1439
11278W        W26895  12.977  12.753  14.773 -0.1427  0.4830  0.2332
11279W        W26896  11.230   9.029  14.144  0.0638 -0.0398 -0.2687
11280W        W26897  17.359  13.593  11.657 -0.3833  0.0568 -0.0500
11281W        W26898   9.377  18.123  11.727 -0.1159 -0.1245  0.2015
11282W        W26899   0.845   2.467   2.645  0.0224  0.4416 -0.4378
11283W        W26900  18.038   4.402  12.024  0.2269 -0.2721 -0.0137
11284W        W26901  12.340  15.126   3.118  0.0748  0.0027 -0.1967
11285W        W26902   3.854   0.632   4.084  0.2245 -0.2952  0.1534
11286W        W26903  17.227   5.718   2.587 -0.0476 -0.0256  0.1165
11287W        W26904  11.146   7.071   5.892 -0.0176  0.0753 -0.1036
11288W        W26905  13.931   7.107  13.669 -0.2173  0.0528 -0.1098
11289W        W26906   4.754  15.540   5.578 -0.1810  0.0287  0.5774
11290W        W26907  16.746   1.343   4.185  0.1098 -0.0179  0.7173
11291W        W26908  14.980  18.190   4.077  0.1631  0.1011  0.4588
11292W        W26909  15.457   7.597  14.619  0.0711  0.1567 -0.1961
11293W        W26910  13.003   5.380  15.266 -0.1040 -0.0981  0.1908
11294W        W26911  14.040   8.133   3.081  0.1572 -0.1022  0.1415
11295W        W26912   6.571   7.631   3.398 -0.0431 -0.0734  0.2189
11296W        W26913   8.086   5.080  13.811 -0.1860  0.0435 -0.0186
11297W        W26914  13.304   4.375   4.214  0.2096 -0.0541 -0.1827
11298W        W26915  17.409   6.847   4.719  0.0075  0.1977 -0.0432
11299W        W26916  17.049  14.128   2.731 -0.0034  0.1967 -0.0347
11300W        W26917  14.564  10.628   0.478 -0.2300 -0.0351 -0.1811
11301W        W26918   8.254  10.256   3.715  0.1427  0.1921  0.1454
11302W        W26919  18.198   8.415  14.266  0.1474 -0.1198 -0.0563
11303W        W26920  10.293  16.642  13.839 -0.0771  0.1368 -0.0937
11304W        W26921   6.020   2.767  15.503  0.1325  0.2740 -0.1887
11305W        W26922   8.218  18.097  15.736  0.1145 -0.0516 -0.0058
11306W        W26923   3.613  12.614   5.735 -0.3530 -0.2899  0.1181
11307W        W26924  15.304   1.359  15.809 -0.0068 -0.2921 -0.1143
11308W        W26925  11.011  12.372   0.343  0.1485 -0.1755 -0.1110
11309W        W26926  16.040   6.299   4.107 -0.0071 -0.3231 -0.0327
11310W        W26927   9.735  16.066   3.416  0.0539  0.2347  0.3290
11311W        W26928  12.930   6.462   5.583  0.1120 -0.0447  0.1628
11312W        W26929   5.209  14.042   3.294  0.0892  0.1554 -0.0980
11313W        W26930  18.377  17.552   2.910 -0.0097 -0.0545  0.1733
11314W        W26931  11.510   6.493   4.522  0.0501  0.1461  0.1107
11315W        W26932   4.605   4.946  16.015 -0.4711 -0.0762  0.5702
11316W        W26933   4.776  13.324  12.260 -0.2056 -0.0278 -0.3110
11317W        W26934  15.589   3.477   0.246  0.1158 -0.3049  0.1469
11318W        W26935  12.626  11.882  12.719 -0.2308 -0.0516 -0.2609
11319W        W26936   1.608  10.654   5.070 -0.1718  0.0268  0.0828
11320W        W26937  13.041   6.153  12.365  0.1989  0.0284  0.0471
11321W        W26938  10.526  16.342   4.840  0.1058 -0.4246 -0.1159
11322W        W26939   9.436  17.492  15.779  0.2033 -0.0607 -0.1144
11323W        W26940  10.332   6.606  12.805  0.2280 -0.1595 -0.0779
11324W        W26941  17.500   5.359  14.622  0.0629 -0.0189  0.3439
11325W        W26942   8.881  18.387   0.554 -0.0297 -0.3448 -0.2711
11326W        W26943  18.450  16.725   3.623  0.1203 -0.1107  0.1543
11327W        W26944  10.986   8.095  14.193  0.0956 -0.0547 -0.0824
11328W        W26945   3.989   6.759  11.423 -0.0495 -0.2061  0.1246
11329W        W26946  15.604  17.459  14.598 -0.0297  0.0099  0.2810
11330W        W26947   7.769   8.266  11.331  0.0570 -0.0059  0.3096
11331W        W26948  18.054  11.341  13.702  0.2133  0.1857  0.0739
11332W        W26949   5.445  15.693  12.900 -0.2535 -0.3189 -0.1266
11333W        W26950  14.395  17.552  11.045 -0.0279 -0.0866 -0.1493
11334W        W26951   7.864  18.035   0.184 -0.0252  0.2619 -0.0502
11335W        W26952   9.562  12.277   1.632 -0.0981 -0.1034  0.0772
11336W        W26953   4.955   1.178  14.351 -0.2689 -0.0604 -0.0855
11337W        W26954  18.045  10.045  14.523  0.0725  0.0433 -0.3661
11338W        W26955  17.467  14.765  12.994 -0.1568 -0.0685  0.0799
11339W        W26956  10.554  16.295   0.351 -0.0723  0.1490 -0.0810
11340W        W26957  16.952   3.282  14.352  0.0649  0.1240  0.3846
11341W        W26958   9.857  11.595  12.622  0.0109  0.3499 -0.0219
11342W        W26959   9.205  12.222   4.054 -0.3597 -0.0015  0.0533
11343W        W26960   4.558   9.713  13.388 -0.0481 -0.1140 -0.1531
11344W        W26961   8.003   0.158   1.263 -0.1040  0.0671  0.0915
11345W        W26962  10.359   2.008  14.589 -0.1788  0.2577 -0.3268
11346W        W26963  14.961   7.159   3.964  0.0196  0.1272  0.2153
11347W        W26964  15.701   3.752   1.980 -0.3119 -0.1831 -0.0170
11348W        W26965   4.237  13.186  14.685  0.0349 -0.1387 -0.0300
11349W        W26966  11.805  15.576  13.878  0.1662  0.2708 -0.0138
11350W        W26967  13.184  11.693  11.646  0.0793 -0.0893  0.2984
11351W        W26968   2.080   9.243  14.271 -0.2285  0.0413 -0.0329
11352W        W26969  10.027   2.965   1.911 -0.2524 -0.0205  0.0166
11353W        W26970   5.863   5.518  15.731 -0.1490 -0.0679  0.0895
11354W        W26971  18.377   8.781   4.736 -0.1112 -0.0783 -0.0047
11355W        W26972   7.006  17.758   3.753  0.2727  0.3556  0.0462
11356W        W26973  10.413   1.360  11.851 -0.1717  0.2011  0.0756
11357W        W26974   3.467  13.630  13.734  0.0211 -0.1585  0.0360
11358W        W26975  11.452  12.005   4.013  0.1878  0.1536 -0.0162
11359W        W26976   1.676  12.697   1.641 -0.3554 -0.1603  0.1619
11360W        W26977   7.627   9.015  10.856 -0.1314  0.0210 -0.1301
11361W        W26978  14.847  10.304  13.600  0.0583 -0.0298 -0.1316
11362W        W26979  15.541  18.190  11.229  0.0420  0.1027 -0.3334
11363W        W26980   6.850  11.524   0.328 -0.2746  0.1997  0.1243
11364W        W26981  10.463  16.612   1.259 -0.0796 -0.4660 -0.1339
11365W        W26982  10.022  13.242   2.124  0.2235 -0.0930  0.0180
11366W        W26983   2.099  16.539   1.268 -0.2529  0.0852 -0.0179
11367W        W26984   6.083   6.108   3.441  0.2689  0.0965 -0.0438
11368W        W26985  15.793  13.057  12.783  0.0004 -0.1259  0.3928
11369W        W26986  13.276   5.972   2.507  0.1253 -0.0999 -0.0927
11370W        W26987  16.757   7.661   0.561  0.2197  0.0507 -0.0740
11371W        W26988  17.317  12.792  14.727  0.0727  0.2921  0.1708
11372W        W26989   4.958  10.018   3.144 -0.0269 -0.2641 -0.3311
11373W        W26990   4.444  17.387   0.521  0.3716 -0.1484  0.1057
11374W        W26991  12.933   0.406  13.690 -0.0696 -0.1227 -0.2074
11375W        W26992   0.581   4.974   3.983  0.1727  0.2426 -0.1989
11376W        W26993   0.197   7.342   1.641  0.0439  0.1108 -0.1165
11377W        W26994   9.156   6.327   0.588 -0.5060  0.0015 -0.0704
11378W        W26995   4.808  11.925  14.050 -0.0604  0.2170  0.2288
11379W        W26996  17.546   6.070   4.621  0.3663 -0.0776 -0.0093
11380W        W26997  16.081   0.164   0.269 -0.2540  0.1159 -0.0105
11381W        W26998   9.865   1.986  11.232 -0.0444 -0.0036 -0.0900
11382W        W26999  12.437   8.101   4.288  0.1698 -0.1829 -0.1228
11383W        W27000   8.065  11.670   3.708 -0.1215 -0.3051 -0.2322
11384W        W27001   4.811   8.310   2.184  0.3204 -0.0538 -0.0434
11385W        W27002   9.223  16.646   2.127 -0.0214 -0.1363 -0.1337
11386W        W27003  14.999   6.736  12.203 -0.0562 -0.3003 -0.1139
11387W        W27004  14.789   2.884   3.281 -0.0932 -0.0506 -0.2559
11388W        W27005   4.107   6.726  14.568 -0.1256 -0.2088 -0.2041
11389W        W27006   8.900   9.653  14.519 -0.2433  0.0379  0.2071
11390W        W27007   8.918   2.078  11.139  0.0101  0.0249 -0.0510
11391W        W27008   6.518   4.664  14.625  0.0620 -0.3097  0.0333
11392W        W27009   4.237   5.868  12.467 -0.0010 -0.1469 -0.2350
11393W        W27010  11.812   6.018   1.290 -0.0937  0.0017  0.0311
11394W        W27011  13.576   4.398  11.499 -0.2023 -0.1970 -0.0273
11395W        W27012  11.278  15.905  15.911  0.1450 -0.3531  0.1116
11396W        W27013   7.998   4.355   2.177 -0.1107 -0.0206  0.0760
11397W        W27014  15.607   2.660   0.701  0.3482  0.1556 -0.2371
11398W        W27015   4.749   0.936   4.979  0.1396  0.2266  0.0593
11399W        W27016   6.605   8.143  11.628 -0.0993 -0.1969 -0.2390
11400W        W27017   8.118   9.067  12.692 -0.1557 -0.1217 -0.1974
11401W        W27018   2.254  14.536  12.959  0.1391 -0.2761 -0.3328
11402W        W27019   1.986  13.389  14.131  0.2711  0.0486 -0.0907
11403W        W27020   7.490   7.327  12.931  0.0463  0.1093 -0.1123
11404W        W27021   8.865   1.100  15.440  0.0561 -0.1873 -0.0236
11405W        W27022  14.590   6.770   5.191 -0.0992 -0.0945  0.0216
11406W        W27023  11.345   2.257   0.780  0.1192 -0.3834 -0.0291
11407W        W27024   5.356  17.804  12.347 -0.2749  0.2312 -0.4542
11408W        W27025   8.649  15.667   2.501 -0.2049  0.0540 -0.1958
11409W        W27026  12.189   5.945  11.044  0.0314  0.3347 -0.2674
11410W        W27027   4.916  15.624  13.704  0.0538 -0.2502 -0.1603
11411W        W27028   7.569   1.941   2.283  0.1976 -0.1044  0.2427
11412W        W27029   8.959  11.639   1.318 -0.0113 -0.1008  0.1008
11413W        W27030  16.582  16.188  13.489  0.0340  0.0048  0.1498
11414W        W27031  12.938   6.689   3.273 -0.0373 -0.1195  0.2543
11415W        W27032  14.844  13.885   5.591  0.0695  0.0333  0.2370
11416W        W27033   3.600   9.725  14.552  0.1426  0.0491  0.1076
11417W        W27034   0.257  18.318  14.058  0.1448 -0.0984 -0.0107
11418W        W27035   4.841   0.919   4.042  0.2679 -0.0869  0.1055
11419W        W27036  11.686  13.161  12.196 -0.0642  0.0473  0.1615
11420W        W27037  16.419   5.182   5.565  0.1705 -0.1797  0.1141
11421W        W27038   8.442   7.885  12.072 -0.0552 -0.0395  0.1908
11422W        W27039   6.849   7.447  15.840  0.1620  0.1997  0.0743
11423W        W27040   1.069   4.098  12.735 -0.0247  0.2569 -0.3092
11424W        W27041   2.349   6.971  16.013 -0.0424 -0.1541  0.1467
11425W        W27042  15.974  18.313  12.007 -0.3638 -0.0129  0.2597
11426W        W27043  15.030  14.229  13.003 -0.0261 -0.0296 -0.4251
11427W        W27044  12.359   8.799   0.932  0.0792 -0.1801 -0.0024
11428W        W27045   4.037   2.287   1.600 -0.1378 -0.2419  0.1203
11429W        W27046   5.370  11.078   4.384 -0.2792  0.0405 -0.0352
11430W        W27047  16.786   2.591  12.201 -0.2483 -0.2606  0.1601
11431W        W27048   1.667  16.349  13.287 -0.0067  0.3896  0.1328
11432W        W27049   6.924   5.380   2.322  0.1089 -0.4302 -0.0380
11433W        W27050   8.905   8.109   0.649 -0.0878 -0.1290 -0.0738
11434W        W27051  10.134   2.649  15.655 -0.0847  0.1165 -0.0325
11435W        W27052   6.372  14.281  11.938  0.3098 -0.4348  0.1666
11436W        W27053   8.061   4.880   0.866 -0.2921  0.0115 -0.1324
11437W        W27054  14.753  18.113  13.048 -0.0208 -0.4058  0.2246
11438W        W27055  16.169   9.385   4.935  0.0989 -0.2267 -0.0806
11439W        W27056   9.158  14.848   2.612 -0.1664  0.0797  0.0471
11440W        W27057  14.916   6.094   2.602  0.0333 -0.0075  0.0678
11441W        W27058   4.947  13.995  11.191 -0.0229  0.2099  0.0985
11442W        W27059   5.552   1.547   2.406 -0.0632 -0.1472 -0.3332
11443W        W27060  16.538  14.274  15.360  0.2797  0.0312  0.1945
11444W        W27061   5.116   3.025   3.409 -0.0916 -0.0841  0.0698
11445W        W27062  15.327  11.194   1.472 -0.1758  0.1647 -0.3809
11446W        W27063  18.280  13.917  11.269  0.4805 -0.1094  0.4056
11447W        W27064  14.347  13.884  13.707  0.2991  0.2595  0.2578
11448W        W27065   3.634   3.133   3.853 -0.2270 -0.0690 -0.1049
11449W        W27066  14.658   1.131   4.930 -0.2023  0.0924 -0.0135
11450W        W27067   0.430   2.409  11.682  0.0392  0.0953 -0.0140
11451W        W27068  12.551   1.577  12.738 -0.1937 -0.1979 -0.1425
11452W        W27069   8.236   6.250   5.240  0.2483  0.1801 -0.1504
11453W        W27070   8.292   7.910  10.629 -0.2509 -0.1459 -0.2493
11454W        W27071   3.509   4.434  15.961  0.0761 -0.0945  0.1157
11455W        W27072   0.448  17.911   3.743 -0.0989  0.1877 -0.2182
11456W        W27073   7.254   0.736   0.573 -0.1568  0.0771  0.2187
11457W        W27074   7.083  13.322   1.613 -0.1402  0.0768  0.0236
11458W        W27075   8.087  14.919   2.496 -0.1271  0.2077  0.2998
11459W        W27076  17.425   4.241  16.119 -0.2507  0.1143 -0.1623
11460W        W27077   4.047   4.035   5.052  0.1482  0.2013 -0.0686
11461W        W27078  18.155  13.058  14.803  0.0039 -0.0623 -0.0769
11462W        W27079   2.829  13.540  16.087  0.1365 -0.0135  0.0131
11463W        W27080   2.114  17.886   0.286  0.0125 -0.1845 -0.1078
11464W        W27081   3.665   7.500  13.164  0.2426 -0.5645 -0.0137
11465W        W27082   0.998   5.895   4.521  0.1293  0.1045 -0.1863
11466W        W27083  18.022   2.634  13.297  0.0632 -0.1695 -0.3564
11467W        W27084   2.316   5.411  10.900 -0.0855 -0.1980 -0.1848
11468W        W27085  10.360  14.663   0.799  0.0657  0.0720  0.1381
11469W        W27086   7.658   2.719  15.728  0.0973 -0.0664  0.1307
11470W        W27087  10.303   3.875   1.913 -0.3407  0.1273 -0.2410
11471W        W27088   2.317   3.169  13.971 -0.1384 -0.0675 -0.2499
11472W        W27089   1.683  15.089   3.806 -0.1124  0.0033  0.5662
11473W        W27090   1.634  18.403  11.848  0.4489  0.0008 -0.1312
11474W        W27091   9.707   1.702   0.045  0.1796 -0.0164 -0.0048
11475W        W27092  18.019  14.802  11.654 -0.0390 -0.1038  0.1246
11476W        W27093   8.903   1.081   4.767  0.0901  0.1458 -0.3354
11477W        W27094  17.252  16.070  14.375  0.0243  0.1474  0.1247
11478W        W27095  12.150   9.421  14.533  0.3541  0.1089 -0.0842
11479W        W27096   9.262   3.221   2.764  0.2366 -0.0379  0.1408
11480W        W27097   9.778   0.339  15.322 -0.2451  0.1833  0.2712
11481W        W27098  12.593   1.512   1.462 -0.3806  0.1182 -0.1526
11482W        W27099  11.500  17.167   4.525 -0.0129  0.0699  0.0693
11483W        W27100   6.072  11.712  11.759  0.0127 -0.2361  0.2188
11484W        W27101   0.772   0.190   1.833 -0.3026  0.3198  0.2364
11485W        W27102   4.502  14.926   4.485  0.0873  0.1911  0.0780
11486W        W27103   8.924  14.792   5.323  0.2464  0.0873  0.1822
11487W        W27104   9.448   0.649  11.489  0.0671 -0.1545  0.1051
11488W        W27105  13.055   7.505   4.761  0.1402  0.0574  0.2316
11489W        W27106   0.244   5.363   0.126  0.2006  0.1755 -0.1060
11490W        W27107  16.692  15.301  13.093 -0.1933 -0.0751 -0.0299
11491W        W27108   2.109  16.338   4.278 -0.2680  0.1364  0.2516
11492W        W27109  17.625  14.604  12.540  0.2062  0.2332 -0.0233
11493W        W27110  11.855   4.889   5.554 -0.3359  0.1446  0.0070
11494W        W27111   6.048   5.993  11.850 -0.0924 -0.2832  0.2280
11495W        W27112  13.412   5.002   4.850  0.0517 -0.2662  0.1131
11496W        W27113   2.445   7.310   0.545 -0.0069  0.0197  0.0763
11497W        W27114   2.294   8.377  12.592 -0.1857  0.2466 -0.3231
11498W        W27115  11.912  10.250  12.944 -0.0948 -0.0504 -0.1537
11499W        W27116   7.466  10.915   2.274 -0.0530 -0.1195  0.4268
11500W        W27117   0.762   2.155   1.934 -0.3449  0.1488 -0.1348
11501W        W27118   8.244   4.136   2.507  0.0418 -0.0732 -0.0675
11502W        W27119  18.369   1.617   0.414  0.0832  0.0827  0.1199
11503W        W27120  14.069   9.294  15.188  0.4762 -0.0516 -0.0547
11504W        W27121  10.994   8.002  15.564 -0.1267  0.0884 -0.1549
11505W        W27122  12.077  16.545   0.559 -0.0339 -0.1424  0.1314
11506W        W27123  12.824  17.290   4.154 -0.2455 -0.4114 -0.0277
11507W        W27124  11.434  11.763   5.021 -0.1356 -0.2257 -0.0520
11508W        W27125  17.919  15.912   0.581  0.2613 -0.1763  0.1236
11509W        W27126  16.215  13.942  11.667 -0.2741 -0.0342  0.2080
11510W        W27127   0.417   7.659  12.861 -0.0332  0.0740  0.2884
11511W        W27128   7.343  14.688   4.442 -0.1504  0.0801  0.1643
11512W        W27129  13.739   5.331  12.460  0.1091 -0.3502  0.1323
11513W        W27130   1.253   4.793  13.257 -0.2992 -0.0953 -0.0494
11514W        W27131  17.427   5.961   5.651  0.2458 -0.0965  0.0738
11515W        W27132  17.171  13.429   6.349  0.2012 -0.1394 -0.0711
11516W        W27133   5.542   0.149   4.273 -0.2814  0.0151  0.0512
11517W        W27134  17.140  16.632   0.276 -0.2929  0.2073 -0.1109
11518W        W27135  11.641   4.477  10.925 -0.1417  0.2912 -0.3143
11519W        W27136   9.136  11.563   0.329 -0.1309 -0.1536 -0.1456
11520W        W27137   1.738   5.136   3.589  0.2009  0.4862 -0.1128
11521W        W27138  11.075  15.545   1.430  0.5080 -0.2153 -0.0129
11522W        W27139  17.824  14.252   6.397  0.0005 -0.1394 -0.1070
11523W        W27140  12.665  15.528  11.524 -0.0528 -0.4359 -0.1335
11524W        W27141  16.911   6.030  14.929  0.1924  0.0491  0.0055
11525W        W27142   3.051   6.578   0.300 -0.2241 -0.0173  0.1523
11526W        W27143   9.001   2.081  15.422 -0.4441 -0.2256 -0.0562
11527W        W27144  13.367   2.908   4.313 -0.0181  0.0104 -0.2978
11528W        W27145   0.329   8.470   5.450  0.0509  0.2487  0.0641
11529W        W27146  10.329   4.839  15.868 -0.1990  0.0947  0.0080
11530W        W27147   8.330   5.309  15.335 -0.1366  0.3666  0.3093
11531W        W27148   7.092   7.323  14.855 -0.0093 -0.1187 -0.3942
11532W        W27149   5.869  13.277   4.820  0.1232 -0.0940 -0.1338
11533W        W27150  18.215   4.645   5.023 -0.0110 -0.0174 -0.2124
11534W        W27151  13.275  14.018  13.361  0.2179  0.1399  0.0596
11535W        W27152   3.612   0.315  11.805  0.1035 -0.4392  0.0692
11536W        W27153  17.650  13.084  13.962  0.2218 -0.2500 -0.1079
11537W        W27154  14.111   4.377  11.618  0.2653 -0.1272 -0.1133
11538W        W27155   8.421   9.589   4.570  0.2946 -0.0012  0.1557
11539W        W27156  12.256  13.687   5.650  0.0105 -0.0581  0.1560
11540W        W27157  10.739   3.022  10.861 -0.0381 -0.2642 -0.1471
11541W        W27158  17.957  12.176   1.311  0.1223 -0.1499  0.2155
11542W        W27159  16.407   7.162  11.268  0.3379 -0.0358  0.1899
11543W        W27160   3.590   2.922  13.077 -0.2285  0.0519 -0.1887
11544W        W27161   6.750  14.449  14.135  0.0469  0.5269 -0.2110
11545W        W27162  13.542   1.664  14.904 -0.1032 -0.1298 -0.0006
11546W        W27163   0.473  10.893   3.202 -0.2727  0.1354 -0.2375
11547W        W27164   1.373   1.276  13.143 -0.1386 -0.2276  0.2594
11548W        W27165  13.418  16.373  15.657  0.1564  0.3028  0.2238
11549W        W27166  14.210  14.856  11.524 -0.1899 -0.2662 -0.2406
11550W        W27167  16.084  12.664   4.353 -0.1539  0.1497 -0.1650
11551W        W27168   6.635   0.267   0.025 -0.2843 -0.2345  0.2929
11552W        W27169   7.817   5.669  15.980 -0.1638 -0.0660  0.0168
11553W        W27170  11.214   0.712  16.024 -0.0944  0.2905 -0.4211
11554W        W27171   2.177  14.505   2.378  0.0950  0.1553  0.0582
11555W        W27172   5.775  16.254   3.716  0.1873  0.3640  0.0452
11556W        W27173   0.700   1.497  11.370  0.0941  0.2612  0.2261
11557W        W27174  14.012  13.533  15.417  0.0850 -0.1101  0.1087
11558W        W27175   0.635   9.494  13.002  0.0657  0.1259  0.1328
11559W        W27176   8.025  12.003  12.724 -0.3529  0.0184  0.2096
11560W        W27177   4.240  17.179  13.285 -0.3195  0.0192 -0.1876
11561W        W27178   5.632   5.163  13.559 -0.0657 -0.2977  0.3558
11562W        W27179   4.672   4.610  12.245  0.2703  0.0397 -0.1724
11563W        W27180  12.365   3.910   1.545 -0.0648 -0.0994 -0.0771
11564W        W27181   0.829  10.453   4.979 -0.0521  0.2311  0.1684
11565W        W27182  10.433   5.989  13.950  0.2918 -0.1175  0.0649
11566W        W27183   9.354   1.928   2.256  0.0075 -0.2482  0.1037
11567W        W27184   2.267   5.074  13.516 -0.0159 -0.1703  0.0066
11568W        W27185  16.063  15.954   0.380 -0.0007  0.1547 -0.0909
11569W        W27186   1.802   0.613   2.926  0.1246 -0.1055 -0.0162
11570W        W27187   0.348   8.294   4.237 -0.1021  0.1439 -0.0452
11571W        W27188  15.190   5.960  15.188 -0.4511  0.1067 -0.2805
11572W        W27189   7.927   5.082  14.333  0.0539  0.1484  0.0127
11573W        W27190   5.524  17.675  14.962  0.0373 -0.0017  0.0451
11574W        W27191   0.719   5.491  13.710  0.0028 -0.0189 -0.1090
11575W        W27192   2.549   0.963  10.882  0.1239  0.1407  0.1105
11576W        W27193   4.792  12.034  10.607 -0.2330 -0.0499  0.1370
11577W        W27194  14.364  15.318  11.657 -0.1448  0.0826  0.1713
11578W        W27195  13.010  17.269  11.797  0.1523  0.3055  0.1843
11579W        W27196   5.888   0.529   0.457  0.0412  0.3413  0.0168
11580W        W27197   6.098  14.743  15.434  0.2182 -0.2262 -0.0867
11581W        W27198  17.919   4.514  11.328  0.0393  0.0929  0.0198
11582W        W27199  16.946  17.077   0.098 -0.0898 -0.2607 -0.4080
11583W        W27200   2.720  12.503   3.209  0.0869  0.2080  0.5207
11584W        W27201   0.425  14.355  14.257  0.1470  0.3770 -0.1165
11585W        W27202  17.288  13.296   1.839 -0.1520 -0.2393 -0.4370
11586W        W27203  12.283  12.115  14.130 -0.0798 -0.0125  0.0593
11587W        W27204   2.881   4.560   4.066 -0.0144  0.1451  0.1830
11588W        W27205  17.441   9.413   1.298  0.0117  0.1868 -0.1829
11589W        W27206   5.511  17.794  13.786  0.2727 -0.2993 -0.2301
11590W        W27207   5.978   7.819   0.162 -0.0262  0.2013 -0.0799
11591W        W27208  16.049   6.224   3.590  0.0771  0.2597  0.0265
11592W        W27209  12.544   4.178  16.127  0.3122 -0.1277  0.0573
11593W        W27210  11.186  16.291   1.979 -0.1371 -0.1685  0.0843
11594W        W27211  14.337   6.418  11.255 -0.2164 -0.2320 -0.3636
11595W        W27212  14.215   6.243  15.472 -0.0153 -0.1452  0.0961
11596W        W27213  16.338   3.573  15.215  0.4379 -0.1097 -0.0344
11597W        W27214   8.991   3.784   9.962  0.1057 -0.2658  0.1395
11598W        W27215  13.201  13.963   5.861  0.0630  0.1210  0.0450
11599W        W27216   4.342  13.954   5.787  0.2659 -0.1230 -0.2198
11600W        W27217   4.992   4.795  14.263  0.0207  0.2139  0.1944
11601W        W27218  17.376   4.731   0.041 -0.0045  0.0479 -0.0349
11602W        W27219  14.256  10.330   0.016 -0.0666 -0.0800 -0.4266
11603W        W27220  16.590   3.734   2.725  0.0283  0.0391 -0.0139
11604W        W27221  10.250  16.322  11.873 -0.3256  0.1378  0.1443
11605W        W27222   4.862  11.994   0.691  0.1788 -0.0455 -0.2072
11606W        W27223   0.157   7.787  11.453  0.0138  0.0352  0.1479
11607W        W27224   2.154   2.549  12.141  0.3958 -0.0722  0.0352
11608W        W27225  12.258  17.912  13.574 -0.0164  0.1872  0.0785
11609W        W27226   2.158   7.711  13.411 -0.0825  0.0228 -0.0899
11610W        W27227   6.530  17.641  15.590  0.0128 -0.0636  0.0724
11611W        W27228  13.394  11.075   2.934 -0.2569  0.2123 -0.1114
11612W        W27229  15.334   7.946  15.932  0.1901  0.0679  0.0865
11613W        W27230  14.624  15.739   0.804  0.1700  0.2775  0.1105
11614W        W27231  16.813  12.617  12.282 -0.3627 -0.2687 -0.2534
11615W        W27232   3.021  15.757   5.549 -0.0539 -0.4957 -0.2281
11616W        W27233  15.981   5.421  14.264  0.1046  0.1159 -0.1541
11617W        W27234  15.175  13.477  11.151  0.0152  0.3323  0.0229
11618W        W27235  17.524   7.997   1.823  0.0500 -0.1438 -0.4308
11619W        W27236   1.589   5.402   1.355  0.2713 -0.1297 -0.1902
11620W        W27237  10.729  14.199  12.089  0.1356  0.0326 -0.2934
11621W        W27238  13.083   7.058  15.399  0.0131 -0.0560 -0.1349
11622W        W27239   5.017  18.304   2.604  0.0859  0.0199  0.4391
11623W        W27240   1.748   7.377   0.557  0.2199  0.0836 -0.0192
11624W        W27241   9.449   1.812  12.618 -0.1646 -0.2067  0.0346
11625W        W27242   6.025   1.094   2.384  0.0670  0.5869  0.0488
11626W        W27243   2.028   6.398   2.723 -0.1688 -0.1134  0.0027
11627W        W27244   7.394   5.116  11.814  0.1945  0.6044  0.0650
11628W        W27245   2.268   0.892  13.123 -0.0461 -0.1964  0.0019
11629W        W27246   4.527   0.376   1.875 -0.1995  0.1190 -0.0853
11630W        W27247   1.783   5.512  12.100  0.3620  0.0600 -0.3667
11631W        W27248   3.576   3.793  14.757 -0.0701 -0.0223 -0.0456
11632W        W27249   8.147  12.784   0.003 -0.1920  0.0595 -0.0320
11633W        W27250   7.485   7.939  10.711 -0.0532  0.1942 -0.0375
11634W        W27251   9.580  14.609   6.003 -0.2842 -0.2821 -0.0217
11635W        W27252   7.082  12.705   6.623  0.0045 -0.1978 -0.1170
11636W        W27253   3.239   5.815  14.537 -0.0899 -0.0392  0.1668
11637W        W27254  10.670  13.260  11.920  0.3716  0.1617  0.0085
11638W        W27255  11.317   0.298  15.561  0.0215 -0.0399 -0.1625
11639W        W27256   2.266  16.787  12.470  0.2015 -0.0852  0.2819
11640W        W27257   3.431  12.903  12.258 -0.2005  0.5506  0.0803
11641W        W27258   7.123   4.672   4.956 -0.2391  0.1421 -0.3908
11642W        W27259  13.276   1.722   6.108 -0.0369  0.0160 -0.1057
11643W        W27260   8.092   4.839   1.423  0.1129  0.0455  0.0743
11644W        W27261   8.873   5.913  10.731  0.1695 -0.1479  0.2570
11645W        W27262   7.469   8.607  10.495 -0.0624  0.1987 -0.1646
11646W        W27263  14.260   4.081  15.607  0.3147 -0.1524 -0.0425
11647W        W27264   0.020  11.921   2.638 -0.3097 -0.3299  0.1303
11648W        W27265  12.321   5.359   1.602  0.0307  0.1435 -0.0008
11649W        W27266   1.968  12.447   1.191  0.0152 -0.1424 -0.2278
11650W        W27267  16.102   2.525  13.935  0.2087 -0.0412  0.1845
11651W        W27268  12.827   1.270  14.362  0.2978 -0.2516 -0.0230
11652W        W27269  14.739   0.934   0.374 -0.0177  0.0000  0.1857
11653W        W27270   6.745  10.503   3.316 -0.1908  0.3504 -0.1285
11654W        W27271   0.132  13.670  13.136 -0.0953 -0.0356  0.2425
11655W        W27272  10.318  11.538   0.437 -0.1607 -0.2943  0.0701
11656W        W27273   8.594   1.081   2.007 -0.2004  0.2001  0.0720
11657W        W27274  16.474   4.427  12.476 -0.1528  0.2399  0.2079
11658W        W27275   8.590  17.464  11.466 -0.0028 -0.1190 -0.3251
11659W        W27276  10.568  14.616   2.094  0.0745 -0.0857  0.2996
11660W        W27277   7.886   8.681  11.071  0.1996 -0.1525 -0.4337
11661W        W27278   5.645  11.580  13.722  0.2725  0.2076  0.0066
11662W        W27279  13.020   7.191  14.824 -0.5561 -0.0450  0.2257
11663W        W27280  12.431  16.811   0.668 -0.0815 -0.0652 -0.0272
11664W        W27281  14.553   5.951  12.291 -0.1284 -0.0681 -0.3034
11665W        W27282   7.426  12.018  15.182 -0.0347  0.0282  0.0562
11666W        W27283   4.128   8.295   1.196 -0.0376  0.5145 -0.1301
11667W        W27284  18.432   8.312   4.561  0.1520 -0.1590 -0.2727
11668W        W27285   2.007   1.476   1.490  0.1820 -0.1416 -0.2048
11669W        W27286   8.832  16.536   1.182  0.1173 -0.0560 -0.2076
11670W        W27287  11.490   7.169   1.045  0.2734 -0.2886 -0.0128
11671W        W27288   5.625   9.237   1.411  0.0406  0.0469 -0.3106
11672W        W27289  12.861   6.277  15.105 -0.0577 -0.1124 -0.0803
11673W        W27290   6.807   0.224   2.622  0.1258  0.0210 -0.1225
11674W        W27291   8.283   7.794   3.878 -0.2450  0.2891  0.1918
11675W        W27292   4.100   8.035   3.696  0.1711 -0.0521 -0.0607
11676W        W27293  11.673   9.258   3.463  0.2517 -0.2166 -0.2978
11677W        W27294   2.598   7.057   4.839  0.1328  0.2204 -0.0564
11678W        W27295  17.784   0.550  11.480  0.1528 -0.0742  0.0749
11679W        W27296   1.240  13.072  12.516 -0.0035  0.0182 -0.0343
11680W        W27297  12.520   0.864  15.289  0.1519 -0.0104  0.0481
11681W        W27298  17.956  14.302   3.891 -0.3545 -0.0277 -0.1905
11682W        W27299  11.968  11.932   3.966 -0.0674  0.0382  0.0746
11683W        W27300  15.686  17.615   4.913  0.0081  0.2480  0.0861
11684W        W27301   3.218   4.292  12.534 -0.1403  0.3588 -0.0398
11685W        W27302   8.725  14.937  11.733 -0.2605 -0.2163  0.2226
11686W        W27303  10.554   3.526  12.854 -0.0286  0.0997  0.0068
11687W        W27304   2.151  12.822  14.242 -0.0438 -0.0124 -0.0599
11688W        W27305  11.412  10.333  14.644 -0.3692  0.0498 -0.3283
11689W        W27306   5.914   5.409   3.509  0.1644 -0.1825 -0.4597
11690W        W27307  12.700  14.658   2.898 -0.2165  0.1131 -0.3091
11691W        W27308  15.681   0.384   1.422 -0.2888  0.1590  0.0903
11692W        W27309  15.671   2.095  13.033  0.5075 -0.3317  0.4364
11693W        W27310  16.561  13.113   4.127 -0.1398 -0.2350 -0.0995
11694W        W27311  18.290   2.271   5.292 -0.0236 -0.2676 -0.1158
11695W        W27312   1.442  10.982   3.780  0.2989  0.0667  0.1173
11696W        W27313   8.226  11.132   4.431  0.2543  0.0892 -0.0254
11697W        W27314   5.921  14.235  12.953 -0.3338  0.2424 -0.1188
11698W        W27315  15.688   4.311   0.496 -0.1848 -0.3029 -0.0726
11699W        W27316   0.609   1.376   4.135 -0.0014 -0.3911  0.0643
11700W        W27317   1.108  18.321   4.997  0.3118 -0.0948 -0.3162
11701W        W27318  18.282   9.393   2.356 -0.0108  0.0201  0.1390
11702W        W27319  12.297  15.278  15.076  0.1460 -0.3084  0.0020
11703W        W27320   6.217   0.260   1.353 -0.1766  0.4572  0.0299
11704W        W27321  11.936  11.483  12.983 -0.0657  0.2004 -0.4145
11705W        W27322  13.014   4.208  15.249 -0.1608  0.0013  0.0105
11706W        W27323  15.420  16.727   1.920 -0.1743  0.0049 -0.0745
11707W        W27324  14.572   3.608   4.645  0.2112 -0.0512 -0.1925
11708W        W27325   3.460  18.394   0.472  0.1528 -0.0132 -0.1345
11709W        W27326   8.542   7.397   3.963 -0.1455  0.1428 -0.1297
11710W        W27327  17.435   9.778  11.819  0.2112  0.1919  0.0285
11711W        W27328   7.097   6.595  14.053 -0.0085 -0.0738 -0.2894
11712W        W27329  12.770  10.465   5.033 -0.1724 -0.1342 -0.0296
11713W        W27330   8.445   1.063   0.959 -0.1123 -0.0694  0.1334
11714W        W27331  13.206   9.677   2.385 -0.0082  0.2980 -0.3550
11715W        W27332   0.979  11.697   1.576 -0.2152  0.1030  0.4100
11716W        W27333  17.808   8.099  12.742  0.0682 -0.1757 -0.1187
11717W        W27334   0.107   6.353   2.192 -0.1518  0.2813 -0.1800
11718W        W27335  10.584  12.474   1.785  0.0672 -0.2856  0.2534
11719W        W27336  13.072   0.824   6.412  0.0245  0.0257 -0.3582
11720W        W27337   9.974  10.526   2.111 -0.0956 -0.2733  0.0888
11721W        W27338   5.852  15.027   3.404 -0.1590 -0.0446 -0.1114
11722W        W27339   4.430  16.629  14.609 -0.2255 -0.1096 -0.0818
11723W        W27340   0.779   9.243   1.511 -0.0388  0.2076 -0.2784
11724W        W27341   4.009   9.572   1.172 -0.2690 -0.0943 -0.0072
11725W        W27342  10.832  13.276  15.915  0.2379  0.0820  0.1815
11726W        W27343   4.392  17.070   2.535  0.0785 -0.1509 -0.1230
11727W        W27344  15.519  10.807   1.157  0.2839 -0.2274 -0.0404
11728W        W27345   6.428  17.521   0.485 -0.1050 -0.0444 -0.0864
11729W        W27346   7.652   7.777  11.631  0.0455 -0.2609 -0.2184
11730W        W27347  17.956   0.503  15.213  0.2921  0.1158 -0.1999
11731W        W27348  16.489   0.469   5.154 -0.0548  0.1586  0.4022
11732W        W27349  14.132  17.780   1.356 -0.1627  0.2110  0.0456
11733W        W27350   0.080  17.161  14.351  0.0795 -0.2845 -0.0123
11734W        W27351   6.182  15.254  12.862 -0.1861  0.0806  0.1595
11735W        W27352  10.086   9.242  14.328  0.1273  0.2006  0.0079
11736W        W27353   3.325  11.848  14.826 -0.0962  0.0807 -0.0456
11737W        W27354   1.267   4.243  12.110  0.3165 -0.0838 -0.0746
11738W        W27355   4.220  13.744   3.597  0.0541 -0.1778 -0.0475
11739W        W27356  10.879   1.156  11.691  0.0713  0.1852  0.1204
11740W        W27357   4.474  16.881  15.986 -0.2134 -0.0327  0.0271
11741W        W27358  15.132  18.454   0.071  0.0781  0.0251 -0.1929
11742W        W27359   3.879  12.360  13.613  0.1627 -0.4970  0.0011
11743W        W27360   6.278   1.075   3.878 -0.3283  0.4010 -0.2434
11744W        W27361   6.343  14.703   4.601 -0.0822 -0.0359 -0.1326
11745W        W27362  13.761  10.354  11.451  0.2483  0.1141 -0.0693
11746W        W27363   3.272  11.964   2.527  0.0186  0.3008  0.1110
11747W        W27364  13.641   2.174   4.844 -0.1814 -0.1448  0.1861
11748W        W27365  10.809   4.274   1.676 -0.0775 -0.1816  0.0215
11749W        W27366   9.087   1.107   5.788 -0.0514  0.0352  0.2027
11750W        W27367  16.860  12.709  11.722 -0.0638 -0.0382  0.2884
11751W        W27368   9.152   2.406  14.198  0.2431  0.1229 -0.0245
11752W        W27369   3.051   6.691  13.370 -0.0494 -0.0668 -0.1010
11753W        W27370  14.575  17.629  13.646  0.1692 -0.1357 -0.0622
11754W        W27371   6.650   1.587  11.697  0.1028  0.3882  0.1934
11755W        W27372   9.358   4.909  13.514  0.1705 -0.0768  0.1270
11756W        W27373  17.903   2.918  14.001 -0.3776  0.0293  0.1735
11757W        W27374  13.092   1.268   4.312 -0.0366 -0.2545  0.0737
11758W        W27375  15.303   8.706  13.156  0.1366  0.1698  0.0773
11759W        W27376   1.667  10.423  12.843  0.4157 -0.1507 -0.1090
11760W        W27377  11.907   7.769  14.266 -0.0504  0.2498 -0.1414
11761W        W27378   4.139   0.252   5.831 -0.0958  0.0367 -0.3032
11762W        W27379   3.594   6.474   3.152  0.0361  0.1294 -0.0625
11763W        W27380   1.148   3.813   0.243 -0.2072 -0.3647  0.0532
11764W        W27381   3.691  17.697  11.717  0.1004 -0.0776 -0.2615
11765W        W27382   1.712  17.458   5.075 -0.0699  0.1670 -0.1607
11766W        W27383  17.966   6.845   3.478 -0.0525 -0.3117  0.1365
11767W        W27384  10.780   1.123  14.655 -0.2209  0.0155 -0.1878
11768W        W27385   9.799  16.048  13.962 -0.1309 -0.2806  0.2123
11769W        W27386   8.848   6.894   3.695  0.1969 -0.0956  0.0503
11770W        W27387   5.657   8.096  12.651 -0.0118 -0.0779 -0.2112
11771W        W27388   7.350  12.519   0.495 -0.2140  0.0566  0.2034
11772W        W27389   2.543   4.432  11.961  0.1105  0.0223  0.1891
11773W        W27390  15.575   7.213   2.857 -0.0232 -0.0347 -0.0125
11774W        W27391   2.211   6.527   0.212 -0.0072 -0.0322  0.2557
11775W        W27392   9.352  16.597   1.166  0.1629 -0.0388 -0.2605
11776W        W27393  13.781   5.840  14.937  0.0461  0.0165 -0.2033
11777W        W27394  17.512   2.184   5.370 -0.1620  0.2868 -0.1666
11778W        W27395  15.691   9.313  15.873  0.3670  0.0077  0.1382
11779W        W27396   2.841  11.264  14.848 -0.0204 -0.0570  0.0824
11780W        W27397   7.261  16.892   4.567 -0.5580  0.0176 -0.1238
11781W        W27398   2.053  16.743   3.055 -0.1779  0.3089  0.3236
11782W        W27399   7.432   3.121   2.597  0.2172  0.4658 -0.0258
11783W        W27400  15.260   5.929   5.386 -0.1778 -0.2645  0.0743
11784W        W27401  14.790  10.162   5.003  0.1001 -0.1302  0.2173
11785W        W27402  10.262   6.550   4.938 -0.1644 -0.1674 -0.1574
11786W        W27403   9.437   6.778  11.775  0.1092 -0.0435 -0.4516
11787W        W27404  12.229   3.898  15.681 -0.2793  0.0505  0.2740
11788W        W27405   5.476  11.688   5.051 -0.2594 -0.2003 -0.0172
11789W        W27406   2.757   7.944  11.502  0.0292 -0.1028  0.2131
11790W        W27407  14.053   7.775   4.416 -0.1416  0.0991 -0.2067
11791W        W27408   8.061   4.058  12.667 -0.4305  0.0735  0.1053
11792W        W27409   2.236  12.128  14.015 -0.0633  0.0060 -0.0286
11793W        W27410   0.214  11.013   5.629 -0.0953 -0.0017 -0.0048
11794W        W27411   9.490   2.589  11.061  0.0876  0.0604 -0.0507
11795W        W27412  17.597   7.728  11.804  0.3299  0.0862 -0.0470
11796W        W27413   1.606   0.471   3.765  0.0278  0.0685  0.1611
11797W        W27414  12.792   3.792  13.487 -0.1256  0.2002 -0.0428
11798W        W27415   8.550  11.708   2.247  0.2540 -0.3211  0.0447
11799W        W27416   1.941   3.258   3.154  0.4092  0.0198 -0.0112
11800W        W27417   8.718   4.085   2.579  0.0903 -0.0290  0.0279
11801W        W27418   4.231   9.235  11.450  0.0787 -0.0041  0.0123
11802W        W27419   7.361  13.050   4.675 -0.0736 -0.1254  0.2240
11803W        W27420  17.803  12.225   1.860 -0.2129  0.0343  0.0374
11804W        W27421   1.842   6.369   0.547  0.3011  0.1785 -0.2581
11805W        W27422  15.641  17.616   3.701  0.1340 -0.2963 -0.2276
11806W        W27423   1.921  17.650   3.707  0.0356 -0.0618  0.0030
11807W        W27424  14.792   4.326   2.551 -0.1361  0.0427 -0.0065
11808W        W27425   2.692   6.704   2.019  0.0514 -0.0943 -0.1312
11809W        W27426   6.950  15.328  12.505  0.0993 -0.0089  0.1231
11810W        W27427  15.510   3.703  15.161 -0.0158  0.0308 -0.0871
11811W        W27428   5.778  15.872   1.748 -0.3105 -0.1615  0.0218
11812W        W27429  15.904   7.346   4.123 -0.0590 -0.5201  0.3057
11813W        W27430   9.019  13.493  14.810  0.0656 -0.3494  0.1333
11814W        W27431  15.753  16.988  13.709 -0.1516  0.0450 -0.0168
11815W        W27432  10.886   7.975  11.015  0.0380  0.1689 -0.1407
11816W        W27433   1.659   2.015   3.785  0.0490  0.0328  0.1405
11817W        W27434   3.006  18.430  14.913 -0.1181  0.1986 -0.2357
11818W        W27435   8.261   2.185  14.877 -0.5260 -0.1422 -0.0880
11819W        W27436   3.910  14.163  13.184 -0.0992 -0.2672 -0.2454
11820W        W27437   8.596   4.846   1.166  0.1003 -0.0199 -0.1612
11821W        W27438  16.816  10.664  11.564 -0.2977 -0.0888  0.0843
11822W        W27439   1.666  11.728   5.724  0.1665  0.2446  0.2200
11823W        W27440   5.787  17.908  14.269  0.2557 -0.0931  0.0020
11824W        W27441  17.096  12.347   2.944  0.0675  0.1062  0.0898
11825W        W27442   1.253   1.720  14.022  0.1090 -0.2330 -0.2184
11826W        W27443   8.249   8.271   3.668 -0.0706 -0.1188  0.1016
11827W        W27444  16.812   8.961   2.755 -0.1346 -0.0780 -0.1157
11828W        W27445   6.582   6.835  13.167 -0.1270 -0.0375  0.3886
11829W        W27446   3.995   6.232   3.347  0.0017 -0.1019  0.3919
11830W        W27447  15.892   5.352  14.919 -0.1352  0.1550  0.0723
11831W        W27448   8.980   4.812  13.988 -0.0833  0.1273  0.2551
11832W        W27449   2.969  10.146  13.500  0.3920  0.0476  0.0460
11833W        W27450  13.905   9.704   3.643  0.1060  0.0907  0.2030
11834W        W27451   9.523  17.782  10.074 -0.0883 -0.0040  0.1042
11835W        W27452  13.678   0.715   3.155 -0.0848  0.1609  0.0959
11836W        W27453  15.091   1.709   0.512  0.0975  0.0984 -0.0341
11837W        W27454  10.948   7.751   2.613  0.1462  0.2293 -0.2271
11838W        W27455  10.670   9.819   4.198 -0.0020  0.3077 -0.2803
11839W        W27456   2.239  16.706   0.788 -0.0241  0.0053 -0.0795
11840W        W27457   6.672  12.239   3.342  0.1292  0.3415 -0.0163
11841W        W27458   0.535  10.142   4.652 -0.5579 -0.1774  0.0515
11842W        W27459   0.432  14.120  14.747  0.1386 -0.3225  0.0853
11843W        W27460  14.636  13.741  15.812  0.0961  0.0400 -0.4342
11844W        W27461  13.002  10.471   0.770  0.3589 -0.1071 -0.2261
11845W        W27462   6.929   3.050   2.886 -0.1074 -0.0243 -0.0381
11846W        W27463  12.343  18.202   0.120  0.1680 -0.0215  0.2102
11847W        W27464  16.846  12.437   1.351 -0.2095  0.2426 -0.1247
11848W        W27465   1.079   3.043  15.563  0.0545 -0.0664  0.0302
11849W        W27466  14.868   4.670   3.408 -0.0343 -0.1764  0.0837
11850W        W27467   3.955   9.369  15.817 -0.1555 -0.3253  0.3173
11851W        W27468  14.820   3.233   1.820  0.1440  0.1207  0.0122
11852W        W27469  17.420  18.047   4.337  0.3076 -0.3158 -0.2090
11853W        W27470   0.106   8.561  12.754 -0.2149  0.0149  0.0586
11854W        W27471  12.570  10.765   0.860 -0.1946  0.0666 -0.2233
11855W        W27472   3.782   6.345  14.479  0.2029  0.0597 -0.1336
11856W        W27473  16.749   3.583  11.151  0.1195 -0.1914 -0.0997
11857W        W27474   1.180  11.022   2.012 -0.0972  0.0785  0.0455
11858W        W27475  17.455   2.924  15.852 -0.0212 -0.0019  0.2651
11859W        W27476   3.299   6.152   0.409 -0.1338  0.0083 -0.1194
11860W        W27477  13.796   3.900   0.396 -0.2485 -0.4196  0.1297
11861W        W27478   8.534   1.339   4.270  0.1534 -0.3517  0.0625
11862W        W27479   0.106   7.432   4.590  0.2094  0.0264 -0.3142
11863W        W27480  13.977   0.546   5.156 -0.1302  0.3665  0.0450
11864W        W27481  12.304   2.020  13.989 -0.0054  0.1768  0.1133
11865W        W27482  13.243   0.020  13.700  0.1969 -0.0046  0.1939
11866W        W27483   2.603  18.083   3.610  0.0358  0.2063  0.1827
11867W        W27484  13.755   1.324  14.543  0.2334  0.2325 -0.1811
11868W        W27485   8.066   9.761   0.768  0.5436  0.3832  0.3136
11869W        W27486   4.131   3.267   2.440  0.0777 -0.0495 -0.2375
11870W        W27487  16.107   2.310  14.475 -0.1436  0.0217 -0.1078
11871W        W27488   8.877   5.880  14.248 -0.0372  0.2678 -0.4307
11872W        W27489   7.541   9.119  11.360  0.2619 -0.2460 -0.0090
11873W        W27490   0.925  11.722  15.642  0.2622 -0.1807 -0.3763
11874W        W27491   2.826  12.192   2.155 -0.0598  0.1157 -0.1048
11875W        W27492   7.804   3.009   1.764  0.0354  0.0268  0.3137
11876W        W27493   7.402  14.205  15.033 -0.3694 -0.1238  0.0519
11877W        W27494  13.312  13.603   3.337 -0.0368  0.1036 -0.2747
11878W        W27495  13.664   1.084   1.653 -0.0245 -0.1553 -0.3003
11879W        W27496   5.361   6.891  11.035 -0.2323 -0.0995 -0.3541
11880W        W27497  16.559   6.335  15.424 -0.0854  0.1734  0.1539
11881W        W27498  16.463   2.572   1.300  0.2533  0.1832 -0.0476
11882W        W27499  11.925  17.514  15.008  0.1169  0.0276 -0.0831
11883W        W27500  13.393   2.864   5.179 -0.1320 -0.1699  0.1489
11884W        W27501   1.399  16.871   2.275 -0.2560  0.1438  0.0818
11885W        W27502  11.920  15.532   0.774  0.0561  0.2467 -0.1360
11886W        W27503  13.899  11.805  13.399  0.1685  0.1450 -0.2423
11887W        W27504   3.251   5.506   1.371  0.3241  0.1983 -0.0182
11888W        W27505   3.220  11.007  12.170  0.0529  0.0085 -0.0336
11889W        W27506   0.288  11.831   5.142  0.1386 -0.3861  0.2964
11890W        W27507  13.056   0.467  14.868  0.4723 -0.1729 -0.0358
11891W        W27508  14.851   2.231  10.384 -0.2032 -0.0696  0.3318
11892W        W27509  13.944   8.590  16.132 -0.0135  0.2385  0.2497
11893W        W27510  14.849  13.419   3.417 -0.1216  0.2084 -0.0965
11894W        W27511   5.170  16.217   0.809  0.0213  0.0557 -0.0099
11895W        W27512   6.282  16.116   0.850  0.0769 -0.1029  0.0349
11896W        W27513   0.220   4.311  16.044 -0.0084 -0.0234  0.0812
11897W        W27514   0.893  16.469   1.249  0.1015 -0.1390 -0.1857
11898W        W27515   4.442  10.796   4.884 -0.0886 -0.3384  0.1358
11899W        W27516   4.295  12.568  15.279  0.0788  0.2647  0.0062
11900W        W27517   0.128   9.528  11.894 -0.0233 -0.4052  0.0870
11901W        W27518   3.151  13.390   4.210  0.1491  0.1698  0.1013
11902W        W27519   9.291   5.592  15.832 -0.0820  0.1697 -0.0711
11903W        W27520   7.517   9.141  15.387 -0.0168 -0.0214 -0.2174
11904W        W27521   9.568   6.864  13.724  0.1270 -0.1442 -0.0910
11905W        W27522  11.718   5.682   0.215 -0.2094 -0.2941 -0.1716
11906W        W27523   9.221   4.983  11.270 -0.1756 -0.2109  0.0963
11907W        W27524   0.422  12.501  12.699 -0.3769 -0.2241  0.0363
11908W        W27525  18.199  13.378  11.290  0.3139 -0.4063 -0.2194
11909W        W27526   5.566   0.894  11.178  0.3370  0.0770 -0.0952
11910W        W27527   7.590   3.832  14.039  0.3087 -0.0857 -0.1419
11911W        W27528   5.128  12.804   1.447  0.0997 -0.0801 -0.3186
11912W        W27529  12.321  15.115  15.849  0.0646 -0.1192  0.1701
11913W        W27530  16.194  11.666   2.384 -0.2591 -0.0184 -0.1633
11914W        W27531   2.706  16.630  12.649  0.2579  0.3661  0.2614
11915W        W27532   3.921   1.013  12.248  0.1397 -0.0423 -0.2052
11916W        W27533   0.353   5.835   4.372  0.1002  0.0381 -0.0965
11917W        W27534   5.825  14.763   0.103  0.2344 -0.0508  0.3077
11918W        W27535   0.025   3.916  12.445 -0.3028  0.3659 -0.3633
11919W        W27536   0.245  17.883  11.579 -0.4471  0.0885  0.1680
11920W        W27537  11.357  16.676  15.977  0.0125 -0.1459  0.1748
11921W        W27538   1.529  10.101   4.324  0.2223  0.0883 -0.2091
11922W        W27539  16.448   8.008  13.507 -0.0024  0.0170  0.0219
11923W        W27540   7.758  16.810   1.850 -0.1198 -0.0088  0.0839
11924W        W27541  15.112   9.984   5.350  0.2479  0.1245  0.1157
11925W        W27542  13.061  11.319   0.978 -0.0824  0.4490  0.2823
11926W        W27543   0.512   4.661  12.200 -0.0040 -0.0374  0.2721
11927W        W27544  11.101  12.290   2.621 -0.2750  0.3300 -0.2582
11928W        W27545   7.275   9.124  13.655  0.2440  0.0683  0.0938
11929W        W27546  14.927  16.034   5.149  0.1590 -0.0232 -0.0266
11930W        W27547  12.099   5.174  13.553  0.0517 -0.0743 -0.2265
11931W        W27548   8.077  12.736   5.598  0.0996 -0.0738  0.0737
11932W        W27549  17.391  13.885   1.839  0.0438  0.1734 -0.0823
11933W        W27550   6.215   0.066  11.037  0.0374  0.0093  0.0544
11934W        W27551   1.861   7.303  13.250  0.0381 -0.1108 -0.1176
11935W        W27552  18.320  12.235   1.740 -0.1563 -0.0784  0.5007
11936W        W27553  12.855   7.870   4.117 -0.1380 -0.0300 -0.1212
11937W        W27554  16.615   1.915   3.031  0.1311  0.3225 -0.1396
11938W        W27555  14.029  15.709   4.500  0.3147  0.1812  0.1017
11939W        W27556  14.387  13.384   0.651 -0.3181 -0.0587 -0.0708
11940W        W27557   6.114   5.124   0.789 -0.3646 -0.1419  0.0455
11941W        W27558   7.999   5.384   2.584 -0.2119  0.2428 -0.1548
11942W        W27559  11.502  16.391   5.033 -0.0743  0.2611 -0.0379
11943W        W27560   8.515  10.694   2.807 -0.4198  0.0595  0.0311
11944W        W27561  17.863  17.143  16.056  0.0828 -0.0498 -0.0509
11945W        W27562   7.912  11.366   5.748 -0.2049 -0.0125 -0.3580
11946W        W27563   5.250   1.535  12.669  0.1070  0.3416 -0.0042
11947W        W27564  15.411   9.218  14.566  0.2637  0.0784 -0.0162
11948W        W27565   9.241   9.924   3.937  0.1888  0.0039  0.2036
11949W        W27566   0.478  15.572   5.375 -0.0039  0.2816  0.1191
11950W        W27567   4.861   7.684  15.192 -0.1364 -0.0662  0.0784
11951W        W27568  14.590   0.250  15.585  0.0044 -0.0525 -0.0917
11952W        W27569   1.607   7.468   2.016 -0.1730  0.0165 -0.0902
11953W        W27570   1.386   9.634  10.661 -0.0416  0.2118  0.0452
11954W        W27571  14.535   6.299   2.819  0.0921  0.1111  0.1195
11955W        W27572  10.524  18.331   0.731  0.2526  0.0639  0.5614
11956W        W27573   2.528  15.755  13.694  0.0735  0.4701  0.1938
11957W        W27574   0.780   8.031  11.962 -0.0631  0.1819  0.0793
11958W        W27575  10.078   3.321  12.909  0.0382  0.0372 -0.0231
11959W        W27576  10.310   1.104   4.888 -0.1784  0.1446 -0.0873
11960W        W27577  14.607  10.305   2.169  0.1759 -0.1056  0.1269
11961W        W27578   2.599  10.183  11.791 -0.3464 -0.1478 -0.0128
11962W        W27579  14.901   7.237   5.053  0.3245  0.2172 -0.0594
11963W        W27580   4.501   2.814   5.970 -0.3370 -0.0450 -0.0471
11964W        W27581  12.163  12.442  11.937 -0.0153 -0.0383  0.0441
11965W        W27582  17.933   1.451  14.021 -0.0522 -0.1372 -0.0450
11966W        W27583  14.321   1.277  14.581  0.1043  0.2622  0.2506
11967W        W27584  10.131  15.100   3.986 -0.1300  0.2915 -0.0453
11968W        W27585  12.730   5.831  14.051  0.1108  0.0547 -0.4123
11969W        W27586  14.608   2.379   3.985 -0.0254 -0.1356  0.0347
11970W        W27587   5.891   6.325  15.577  0.1203  0.0631  0.0218
11971W        W27588  14.681  13.162  16.114 -0.3170  0.1308 -0.1699
11972W        W27589   3.440   2.165  15.623  0.0846  0.1346 -0.2062
11973W        W27590   1.713  13.465  13.630 -0.0291  0.0754  0.1674
11974W        W27591  13.340  10.521   1.700 -0.0474  0.0508  0.0027
11975W        W27592  14.445  15.691  15.230 -0.2734 -0.1557 -0.0555
11976W        W27593  16.342   5.152  13.906 -0.1125 -0.0486 -0.1702
11977W        W27594  13.029   1.119  13.296  0.0728  0.0480  0.1919
11978W        W27595  17.779  14.639   4.266  0.0296 -0.2091 -0.0405
11979W        W27596  15.817  13.293  13.908  0.0756 -0.2511 -0.0784
11980W        W27597  12.226   3.906   0.583 -0.0809  0.0081  0.1310
11981W        W27598   2.982   8.080  13.559  0.0934  0.0473  0.2509
11982W        W27599   3.228   2.139   2.794 -0.0604  0.0776 -0.2055
11983W        W27600   1.942   7.428  10.445 -0.0731 -0.2474  0.3114
11984W        W27601   4.427  18.457  14.040  0.2269  0.3966  0.0683
11985W        W27602   4.276  16.870   3.019  0.1839  0.0642  0.4043
11986W        W27603   5.911   6.835  15.136  0.0934 -0.0779 -0.0226
11987W        W27604   3.075   9.571   2.017 -0.0456 -0.2785 -0.0582
11988W        W27605  18.034  13.366   0.071 -0.2130  0.1317 -0.3708
11989W        W27606   5.087  12.465  12.250  0.1168  0.1314 -0.0110
11990W        W27607   0.743  10.123  12.060 -0.1644 -0.0662 -0.1316
11991W        W27608   3.822   4.926  12.025  0.1006  0.2571  0.1498
11992W        W27609   2.802   1.982  14.882 -0.0180 -0.1133  0.2114
11993W        W27610   5.287   6.079   0.721 -0.0713 -0.1353  0.0419
11994W        W27611   3.632  12.225   2.706  0.2672 -0.1469  0.0602
11995W        W27612  11.694   8.438   4.980 -0.2778  0.1042  0.0496
11996W        W27613   7.465   9.792  14.324 -0.0695  0.1025  0.3421
11997W        W27614  16.087  14.934   1.612  0.2441  0.0055 -0.2776
11998W        W27615   3.474  15.980  16.012 -0.1003 -0.5576 -0.0529
11999W        W27616   9.506   1.004  13.006 -0.0255  0.1845  0.4627
12000W        W27617   9.825   5.410   4.468 -0.0369  0.0169 -0.1061
12001W        W27618  15.657  10.017   0.232 -0.0933 -0.2161  0.1522
12002W        W27619   5.702   4.278   9.605 -0.3580  0.3421 -0.0208
12003W        W27620   7.567   8.049  15.617  0.0914  0.0476  0.1675
12004W        W27621  12.329  13.316  11.666  0.0981 -0.1179  0.3099
12005W        W27622   9.814  12.641   3.483 -0.1060 -0.5175 -0.2636
12006W        W27623  15.431   8.937  11.471 -0.1355  0.0882  0.3098
12007W        W27624  18.165  14.670   5.570  0.1866 -0.2440  0.1540
12008W        W27625  18.366   2.484  11.802  0.2269  0.0165  0.0710
12009W        W27626   1.174   3.411   1.317  0.4561  0.3942  0.1229
12010W        W27627   6.615   9.660   3.215 -0.1624 -0.0017 -0.0109
12011W        W27628   3.105   9.273  13.930  0.0263 -0.2744 -0.0490
12012W        W27629  17.043  17.483   0.408 -0.0864  0.0011  0.0459
12013W        W27630   8.604  17.317   0.172  0.2842 -0.1396  0.2405
12014W        W27631  10.087  12.238  15.594  0.2619 -0.2463  0.1831
12015W        W27632  15.973  11.640   0.808  0.0390 -0.1800 -0.2870
12016W        W27633  15.521   3.768   4.923 -0.3611 -0.0772 -0.2012
12017W        W27634  16.757  16.769   4.620 -0.2261 -0.0867 -0.0959
12018W        W27635   9.766   7.300  15.034 -0.0037 -0.0515 -0.0499
12019W        W27636   9.009   0.341   2.115  0.0367 -0.0814 -0.0685
12020W        W27637   5.197   8.117  11.779  0.0714  0.2244  0.4525
12021W        W27638   3.573   3.201   1.674 -0.1969  0.3668  0.0976
12022W        W27639  17.878   9.314   1.503 -0.4043  0.0422  0.0542
12023W        W27640  15.910   5.314  13.711 -0.1035 -0.1906  0.1041
12024W        W27641  11.234  16.073  13.624  0.2817  0.0193  0.1517
12025W        W27642  14.780  10.108   1.574 -0.0301  0.2142  0.1330
12026W        W27643   6.014   1.337  13.504 -0.1605 -0.6092 -0.2878
12027W        W27644   5.241  16.021   0.297 -0.0629  0.4246  0.0363
12028W        W27645   5.052   6.022   4.495 -0.2651 -0.3003  0.1012
12029W        W27646  13.101   7.457  10.699  0.0569 -0.0593  0.1887
12030W        W27647  13.307  14.477  14.241  0.0594  0.1599 -0.2187
12031W        W27648  17.164   5.933  10.758  0.2513 -0.1665 -0.0778
12032W        W27649  15.021  10.593   3.565  0.1455 -0.1724 -0.1538
12033W        W27650   5.200  16.487  12.498  0.1569 -0.2485  0.2051
12034W        W27651  15.125  15.424   2.604  0.1087  0.0615 -0.2232
12035W        W27652   7.039   9.718   2.487  0.1495  0.0562 -0.0537
12036W        W27653  15.114  15.687   2.082  0.2088  0.1138  0.0783
12037W        W27654   9.904  11.477   2.300 -0.3211 -0.4142 -0.0888
12038W        W27655   1.822  10.673  13.904  0.0298  0.1790  0.1201
12039W        W27656  10.144   6.891   4.624  0.3152 -0.1908  0.1895
12040W        W27657   4.310   9.288   0.792  0.0467 -0.0319 -0.0728
12041W        W27658   9.712   7.153  13.257 -0.0830  0.3137  0.0161
12042W        W27659  13.998  16.820  12.734  0.0224 -0.0240  0.0293
12043W        W27660   8.178  12.665   1.027 -0.1385  0.0925  0.2883
12044W        W27661   5.969  15.303  11.808  0.2548 -0.1540  0.1313
12045W        W27662   1.921  12.390  14.298 -0.1607 -0.0276 -0.2918
12046W        W27663   2.497  10.512   1.153 -0.2484 -0.1434  0.2035
12047W        W27664  13.146   1.038   5.563 -0.3418  0.1279  0.1238
12048W        W27665  14.183   4.726  12.971 -0.0371  0.1991  0.2168
12049W        W27666   9.216   4.156  10.547  0.2516 -0.0122  0.0961
12050W        W27667  15.920   5.150   5.377 -0.0914  0.1885 -0.0892
12051W        W27668   4.567   2.914   0.692 -0.2167  0.4325  0.1013
12052W        W27669  14.422   5.901  14.361  0.0926 -0.0828  0.1177
12053W        W27670   6.145   5.859   0.327  0.2351 -0.1089 -0.0350
12054W        W27671  17.305  17.833   0.035 -0.1366 -0.1880 -0.3908
12055W        W27672  16.984  11.227   4.171 -0.2394 -0.1915 -0.0938
12056W        W27673   7.884   9.567   3.483 -0.1665 -0.1442 -0.1513
12057W        W27674  13.962  16.392  13.057  0.0704 -0.3762 -0.3570
12058W        W27675  14.593   5.723   2.747  0.0790 -0.0073  0.1928
12059W        W27676  11.811   2.086  13.883 -0.3542 -0.0947 -0.0804
12060W        W27677  15.568  11.754  15.725  0.2966  0.1827 -0.0568
12061W        W27678  10.704  11.422   2.900 -0.1193 -0.2778 -0.0446
12062W        W27679   5.329   1.369  14.795  0.0977  0.1002 -0.1085
12063W        W27680   3.498  13.463  16.076 -0.1885 -0.1648 -0.1489
12064W        W27681   6.659  14.651  13.472 -0.0465  0.1103  0.1204
12065W        W27682  10.127   0.411  14.957  0.2348 -0.2162 -0.1098
12066W        W27683   4.854   1.307   3.693 -0.2142 -0.0624  0.0387
12067W        W27684  11.742   8.620  14.694  0.1280 -0.2078  0.1126
12068W        W27685   8.752   8.796  15.843 -0.2752 -0.0601  0.1554
12069W        W27686   4.247   2.740   1.711  0.1568 -0.1286 -0.1585
12070W        W27687  12.612   5.566  10.994  0.1217  0.0605 -0.1649
12071W        W27688   7.237   3.846   3.661  0.3205  0.0690  0.3489
12072W        W27689  12.738   1.614   3.102  0.1531 -0.2476 -0.0747
12073W        W27690  17.711  16.528  15.128  0.0918  0.1334 -0.3239
12074W        W27691   5.541   6.181  13.308 -0.2321 -0.0850 -0.3097
12075W        W27692   1.939   4.772  13.885 -0.2169  0.0996 -0.1198
12076W        W27693   7.590  15.941   1.205  0.3156 -0.0574 -0.2790
12077W        W27694  18.083  15.140   1.069  0.0673  0.0819 -0.2163
12078W        W27695  14.299  17.865   5.141  0.2547 -0.0134  0.2105
12079W        W27696   8.683  12.980  15.343 -0.1451  0.3215  0.0338
12080W        W27697   6.934  11.477  12.085  0.0603 -0.1112  0.0665
12081W        W27698   4.115   9.516   3.573  0.2247  0.0729 -0.3916
12082W        W27699  17.742   1.386   4.532 -0.2336 -0.0922  0.0524
12083W        W27700  16.628  10.625  13.724 -0.4361 -0.1498 -0.0081
12084W        W27701  14.898   0.617  13.095  0.2394 -0.0777 -0.1066
12085W        W27702  10.844  13.011   5.781 -0.0396  0.2623  0.1174
12086W        W27703  17.078  17.635  11.365 -0.3208  0.0047  0.1520
12087W        W27704  17.159   3.686  16.128  0.1971 -0.2545 -0.0447
12088W        W27705  15.885  18.176   2.924 -0.2247 -0.0070  0.0381
12089W        W27706  14.563  11.447  15.539  0.0793 -0.0989 -0.0252
12090W        W27707   6.274  15.875  11.975 -0.2588  0.0246  0.0810
12091W        W27708   0.242  10.462   4.909 -0.1102  0.0228 -0.1418
12092W        W27709   9.657   5.014   2.516 -0.0963 -0.2172 -0.0969
12093W        W27710   1.571  18.360   2.165 -0.0852 -0.0434  0.1866
12094W        W27711  16.379   0.791  11.806 -0.2718  0.1500 -0.0357
12095W        W27712  16.003   7.819   4.006 -0.0722 -0.0168  0.0404
12096W        W27713   0.388   0.843   3.417 -0.0816 -0.3268  0.0542
12097W        W27714  18.017   8.456  11.253 -0.2732 -0.1399 -0.1295
12098W        W27715  12.217   0.704  12.415 -0.0644 -0.1620 -0.2555
12099W        W27716  15.348   2.028  15.769  0.0725 -0.1288  0.2846
12100W        W27717  15.405   9.881  15.129 -0.0786  0.0780 -0.2373
12101W        W27718   8.196  10.632  14.397  0.0072 -0.3971  0.2759
12102W        W27719   4.987   7.163  15.055 -0.0127  0.0141  0.3626
12103W        W27720  16.446   1.753   3.977  0.2285  0.0405 -0.1335
12104W        W27721  12.687   1.545  13.319 -0.0578  0.1316 -0.1237
12105W        W27722   8.198  12.680  15.515  0.4376 -0.0475  0.0422
12106W        W27723   2.422   5.863   1.586 -0.2107 -0.1543  0.1547
12107W        W27724   2.556   7.694  13.809  0.1105  0.3091  0.1945
12108W        W27725  17.905  16.211  12.316  0.0064  0.0863  0.0284
12109W        W27726   0.444   3.196   3.055  0.0687  0.0610  0.1553
12110W        W27727  14.632  15.073  14.467 -0.0406  0.2278 -0.0840
12111W        W27728  14.179   9.439  11.807  0.0498 -0.0251 -0.0838
12112W        W27729  11.914  11.380  14.548 -0.2975  0.2457 -0.0224
12113W        W27730  12.736  10.466  14.323  0.2158  0.1576 -0.0353
12114W        W27731   2.999   2.002  11.734  0.3812  0.0666 -0.0778
12115W        W27732  14.230   5.371   5.232  0.2294 -0.0352  0.1206
12116W        W27733  11.889   8.582  12.867 -0.1751 -0.1938  0.0121
12117W        W27734  13.006   8.736   0.303  0.1573 -0.2398  0.1140
12118W        W27735   4.489  18.357   4.341  0.0761  0.0836  0.2866
12119W        W27736   5.566   0.156   0.269  0.1061 -0.3018  0.2312
12120W        W27737  11.616  10.430   2.691 -0.1681  0.2065  0.2003
12121W        W27738  11.768   1.455   0.940  0.1599 -0.1829  0.0958
12122W        W27739  18.417  16.418   5.474 -0.3447  0.0567  0.2680
12123W        W27740   4.876   7.713  14.374  0.1027  0.1904  0.1274
12124W        W27741   7.327   8.247  12.956 -0.3504  0.2286 -0.3608
12125W        W27742   6.328   7.296   0.676 -0.1539 -0.0555 -0.1866
12126W        W27743  17.460   7.968   0.259  0.1188  0.1290  0.2328
12127W        W27744   5.092   8.106  14.000  0.2247 -0.1105  0.0735
12128W        W27745   9.834   0.464   5.483  0.2771 -0.3634 -0.0331
12129W        W27746   3.498  11.827   2.935  0.2038  0.1438 -0.2288
12130W        W27747   6.813   0.090  15.743 -0.3282  0.1875 -0.0963
12131W        W27748   3.276   0.755  14.413 -0.2531  0.0251 -0.6106
12132W        W27749   1.520  15.553   3.486 -0.1388 -0.2309  0.1576
12133W        W27750  17.637  14.829  14.302 -0.3174  0.0164 -0.0356
12134W        W27751  11.132   0.005   4.815  0.3208  0.0021  0.1281
12135W        W27752  13.663  11.876  13.908 -0.1428 -0.1286 -0.0948
12136W        W27753   8.073  10.444   4.697  0.0172 -0.0114  0.0711
12137W        W27754  15.663  12.170   4.493  0.4798 -0.0091 -0.4002
12138W        W27755  13.619   4.650   4.493  0.0733  0.2657 -0.1160
12139W        W27756  12.821   8.180  13.476 -0.0832 -0.2088  0.1060
12140W        W27757  16.347  13.507  12.328  0.2216  0.0553 -0.0672
12141W        W27758  18.026   5.670   3.844  0.0958 -0.3293 -0.0167
12142W        W27759   5.797   0.194   5.195  0.0702 -0.0812 -0.0536
12143W        W27760  11.418   6.397  12.238  0.3071 -0.0015 -0.1545
12144W        W27761  10.338   6.632   2.702 -0.1380 -0.0349 -0.1305
12145W        W27762  15.667  16.729  14.214  0.0502 -0.0130  0.1350
12146W        W27763   4.604   0.832   3.526  0.0161  0.0472  0.2624
12147W        W27764   6.771   0.901   0.669 -0.0863 -0.0144  0.2616
12148W        W27765   7.351  14.976  14.451 -0.1706  0.2460  0.0391
12149W        W27766   8.840   9.647   3.845  0.0060  0.1505  0.0813
12150W        W27767  10.659   2.041   4.320  0.1092  0.0632  0.0170
12151W        W27768  10.346   1.660  15.542  0.0336 -0.1093 -0.0280
12152W        W27769  16.895   1.817  15.037  0.3610 -0.0478 -0.1190
12153W        W27770  12.434  14.574   1.681 -0.2157 -0.1401 -0.3346
12154W        W27771  14.014   1.415  11.554 -0.0811 -0.1065  0.2224
12155W        W27772   0.658  16.207   3.304  0.0585 -0.0160 -0.0853
12156W        W27773  13.253  14.525  15.199  0.2196 -0.1902 -0.0533
12157W        W27774  11.780  13.356  15.889 -0.0553  0.2331 -0.2986
12158W        W27775  15.752   9.412   5.173 -0.0863 -0.1290  0.1289
12159W        W27776  11.797   9.574   4.533 -0.0704 -0.2172  0.1116
12160W        W27777  16.138  11.812  14.987  0.0776 -0.2292  0.0377
12161W        W27778   3.879  10.596   0.771  0.0515 -0.0692  0.1766
12162W        W27779  14.751   4.278   1.613  0.1618  0.2135 -0.0543
12163W        W27780  10.034   9.559  12.876  0.0443  0.3466  0.0956
12164W        W27781  12.733  17.307  15.411 -0.1140 -0.0195 -0.0135
12165W        W27782   0.804   2.609  16.120 -0.2945  0.0145 -0.1112
12166W        W27783  10.382  14.788   3.468 -0.1324 -0.0785  0.0322
12167W        W27784   8.913   9.275  15.664  0.3181 -0.1316  0.0606
12168W        W27785   7.871  12.770   6.856  0.2642 -0.0544 -0.3479
12169W        W27786   6.344  12.718   0.729  0.0735 -0.1094 -0.2169
12170W        W27787   6.119   8.132   0.871 -0.1409  0.1391 -0.1889
12171W        W27788   0.779   0.926  12.507 -0.1828  0.0197 -0.2041
12172W        W27789  15.600   3.435   5.427 -0.2082  0.0482  0.1446
12173W        W27790  12.184   8.532  11.378 -0.0596  0.1103  0.3758
12174W        W27791   3.614   9.239  14.096  0.2122 -0.1491 -0.2161
12175W        W27792   8.348   7.067   2.742 -0.0359  0.2064  0.1360
12176W        W27793  10.596   1.566   0.291  0.0822 -0.2700 -0.0195
12177W        W27794  16.821  15.917   1.274  0.3464  0.0424  0.2296
12178W        W27795   0.797   3.100  14.075  0.0349 -0.0022  0.6742
12179W        W27796  12.058  12.044  12.421  0.0023  0.1650 -0.2006
12180W        W27797   7.465   5.807   0.185 -0.0971  0.1516  0.0831
12181W        W27798   7.088   1.342  11.903 -0.0811 -0.1601  0.1711
12182W        W27799   3.503   7.973   2.942 -0.4365  0.1991 -0.0095
12183W        W27800  15.192  16.135   0.284 -0.3870  0.0389 -0.2790
12184W        W27801  10.696  12.090   5.130  0.1152  0.2325 -0.2186
12185W        W27802  18.218  13.344   1.622  0.0250  0.0613 -0.4060
12186W        W27803   4.215   0.835   4.816  0.2395  0.0481 -0.2190
12187W        W27804   0.639  10.205   1.071 -0.1153  0.1994  0.1410
12188W        W27805   8.517  10.680   0.345 -0.1349  0.2028 -0.0066
12189W        W27806   0.924  13.574   0.782  0.0505 -0.0647 -0.1495
12190W        W27807   9.038  13.819  15.877 -0.1398 -0.1988  0.0065
12191W        W27808   0.237  13.262   2.418 -0.1108  0.2509 -0.0867
12192W        W27809  14.627   3.080   5.475  0.0494 -0.1112  0.3455
12193W        W27810   9.210   8.359  13.397  0.1641 -0.3171  0.0387
12194W        W27811   6.790   7.831   2.754 -0.2638  0.1995 -0.1469
12195W        W27812  15.053  12.288  13.714 -0.1192 -0.0177 -0.0581
12196W        W27813   8.120  17.259   5.082  0.0138  0.1261 -0.0242
12197W        W27814   6.083  13.158   5.386  0.1201  0.0837 -0.3140
12198W        W27815  11.106   4.837  15.225  0.0968  0.1602 -0.1754
12199W        W27816   4.050  14.596   0.746 -0.0690 -0.1165  0.1358
12200W        W27817  16.271  12.609  14.262  0.0152  0.1749  0.0164
12201W        W27818  15.543  12.206  11.717 -0.4441  0.0152  0.0750
12202W        W27819  13.555   7.290  10.502  0.1105  0.0599 -0.1867
12203W        W27820  13.814   9.814   1.322 -0.1151  0.0889  0.2925
12204W        W27821   4.481   2.303  11.200 -0.0201 -0.3338  0.0175
12205W        W27822  17.365   4.187   5.573  0.0057  0.2014 -0.3410
12206W        W27823  13.414  12.331   4.836  0.0094 -0.2987 -0.2719
12207W        W27824   6.772   2.046  11.072  0.4032  0.2051 -0.0362
12208W        W27825   1.461   4.445   3.357  0.1780 -0.1483 -0.1300
12209W        W27826   8.903   7.444  13.406  0.0290  0.1158  0.1901
12210W        W27827  15.549   0.418  15.416 -0.1436 -0.1016 -0.1375
12211W        W27828   1.866   0.925  15.803 -0.1365 -0.2041  0.0051
12212W        W27829   2.869   3.670   3.519 -0.1061 -0.0362 -0.0983
12213W        W27830   1.969  11.270   3.151 -0.2939 -0.1892  0.3012
12214W        W27831   9.483   8.168   4.453 -0.2366 -0.2273  0.0717
12215W        W27832  17.812   2.725  11.100  0.1050 -0.0243 -0.1252
12216W        W27833  12.655   2.684  14.274  0.0985  0.0373 -0.0616
12217W        W27834   5.379  18.174   1.084 -0.0862  0.5372 -0.1577
12218W        W27835   0.322  11.184  15.293 -0.0723  0.1624 -0.4938
12219W        W27836  12.365  12.808   4.337  0.0269 -0.0191 -0.1462
12220W        W27837  17.308   5.983   5.163  0.1471 -0.3910  0.0781
12221W        W27838  11.343   4.868   1.956  0.0476 -0.1640 -0.2757
12222W        W27839   8.873  10.182   1.133  0.0505  0.1184  0.0848
12223W        W27840   6.738   6.225   1.577  0.0418 -0.0473  0.1954
12224W        W27841   5.287   1.108   6.600 -0.1664 -0.0947  0.0357
12225W        W27842  17.328  10.302   2.328  0.0340  0.0410 -0.3009
12226W        W27843   5.270   2.045  12.347 -0.2087 -0.2675 -0.0828
12227W        W27844   7.884  14.688   1.950 -0.0646  0.3373  0.0187
12228W        W27845  15.544   1.526   0.598  0.3490 -0.0599 -0.0093
12229W        W27846   8.128   3.342  13.303  0.1101 -0.0740  0.0262
12230W        W27847   1.819  14.124   2.539  0.1308 -0.0234 -0.0162
12231W        W27848   2.812   0.363  11.461 -0.3325 -0.0714  0.1938
12232W        W27849   9.028  10.049   1.566  0.2994  0.1911  0.0199
12233W        W27850   5.204   3.476  15.329 -0.2395 -0.2957  0.0481
12234W        W27851   9.218   9.086   2.779 -0.0981 -0.0528 -0.0703
12235W        W27852   1.082  14.740   5.375  0.2346 -0.3962 -0.0096
12236W        W27853  17.477  16.949  12.129  0.0660 -0.2248 -0.0850
12237W        W27854  17.597   6.726  14.807  0.0812 -0.1449  0.1029
12238W        W27855   6.267  12.486  12.286 -0.2930 -0.1842  0.0733
12239W        W27856  15.268  14.013  13.439 -0.1081 -0.2237  0.0141
12240W        W27857   8.031  16.724  13.287  0.1031 -0.0195  0.0291
12241W        W27858  16.692   8.193   1.190 -0.0796  0.1752 -0.2099
12242W        W27859  17.099   3.596   4.476 -0.0919  0.1301 -0.1122
12243W        W27860  17.383  17.476  12.322  0.0485 -0.2112  0.0530
12244W        W27861  10.811  17.021  15.771 -0.2774 -0.2862 -0.0029
12245W        W27862  18.150   0.105   5.960 -0.1045 -0.0293  0.0803
12246W        W27863   1.713   1.225  12.329 -0.2266 -0.0924  0.3187
12247W        W27864  13.635   1.412   0.069  0.0420 -0.0868 -0.1896
12248W        W27865   1.273   5.364  11.042 -0.1455  0.0621  0.2980
12249W        W27866   2.451   7.418  11.532 -0.1120  0.3118 -0.0079
12250W        W27867   4.388  15.794  11.469 -0.0919 -0.0180  0.2486
12251W        W27868   5.782   6.899   2.606 -0.1434 -0.0187  0.0317
12252W        W27869  18.161  12.156  12.983 -0.1528  0.3614  0.0710
12253W        W27870  13.766   0.810  13.806 -0.0928  0.2732 -0.1071
12254W        W27871  16.137  18.171   4.650  0.2037  0.2119  0.0950
12255W        W27872   5.207  14.408   1.362 -0.2448  0.1063  0.3723
12256W        W27873   2.439  15.733   0.517 -0.0408  0.0639  0.0273
12257W        W27874   4.074  13.732   2.061  0.1435  0.0958 -0.0956
12258W        W27875  16.013  15.480   1.855  0.1469  0.0064 -0.1295
12259W        W27876  11.415  10.594   4.082  0.1447  0.1206  0.0644
12260W        W27877   7.963   2.084  14.394 -0.0527  0.0464 -0.2749
12261W        W27878  17.105   5.718   3.083 -0.2010  0.0317 -0.3171
12262W        W27879   7.062   8.171  10.539  0.1006  0.1799 -0.4566
12263W        W27880  11.698   0.332  15.246 -0.3024 -0.0412 -0.1752
12264W        W27881   3.773   8.368  13.756  0.0609  0.0120 -0.0633
12265W        W27882   0.107   8.285   2.887  0.0669  0.2103 -0.1346
12266W        W27883  14.455  14.374   3.027  0.0856  0.3804  0.0413
12267W        W27884   7.749  14.898  12.269  0.0377 -0.0055  0.1297
12268W        W27885  13.623  10.952  11.374  0.2539  0.3019  0.0983
12269W        W27886   5.911   2.958   2.109 -0.3181  0.1606 -0.1043
12270W        W27887   5.448  11.477  15.814  0.0694  0.2699 -0.1378
12271W        W27888  13.930  17.110  13.961  0.2968  0.2367 -0.2538
12272W        W27889   0.430   8.700   2.886  0.0225  0.1963 -0.0884
12273W        W27890  11.425   8.557  12.712 -0.2292  0.1233  0.0390
12274W        W27891   0.795  10.386   0.256  0.0746  0.1129  0.1529
12275W        W27892  14.726  11.488  16.027  0.0216 -0.2111 -0.1572
12276W        W27893   3.992   9.921  14.286  0.0217  0.2388 -0.0744
12277W        W27894  13.470   8.551   0.900  0.0455  0.1435 -0.5541
12278W        W27895  11.205  10.782   5.186 -0.3426 -0.0624 -0.3273
12279W        W27896  14.306  16.451   3.440 -0.1690 -0.0085  0.0359
12280W        W27897  15.325   8.662  14.487  0.0961 -0.2789 -0.1232
12281W        W27898   4.609  14.749   5.077  0.0219  0.1760  0.1978
12282W        W27899   0.447  12.996   6.728 -0.0642 -0.1868 -0.1782
12283W        W27900  17.719   0.128  13.363  0.2599  0.1514  0.0997
12284W        W27901  12.917  18.098   3.884 -0.0287 -0.0415 -0.4639
12285W        W27902   5.048  10.217  11.218  0.0052 -0.1221  0.0389
12286W        W27903   7.609  15.224  12.609 -0.1800 -0.0105 -0.0364
12287W        W27904   5.732  11.101   2.901  0.0970 -0.0537  0.0059
12288W        W27905   6.603  10.564   2.018  0.2784 -0.0964 -0.0485
12289W        W27906  18.443   5.670  11.434  0.2300  0.1603  0.2083
12290W        W27907   7.937   3.969   4.970  0.0330 -0.1642  0.1750
12291W        W27908   3.365   8.434   0.159  0.0494 -0.0250 -0.1156
12292W        W27909   3.593  14.996   6.371 -0.0167  0.1093 -0.1183
12293W        W27910   1.701   1.189  15.209 -0.5414  0.1162 -0.3728
12294W        W27911   7.987  15.430  15.897 -0.4650  0.3237  0.0712
12295W        W27912  13.139  14.005   3.018  0.1162 -0.0711  0.0829
12296W        W27913  10.477   1.948   3.035 -0.3778  0.0302  0.1975
12297W        W27914  18.225   1.973  14.703  0.0495  0.0463 -0.0467
12298W        W27915   0.623   3.734  14.656  0.2125  0.0252 -0.3313
12299W        W27916   8.078  17.776   1.862  0.0458 -0.2625  0.0079
12300W        W27917   2.185  17.921  14.441  0.0470 -0.4599 -0.1430
12301W        W27918   0.444  12.937   3.331  0.1148  0.0119  0.0896
12302W        W27919  10.270   0.082  15.550  0.3538  0.3401  0.0836
12303W        W27920  11.494   2.876  14.826  0.0916 -0.1853 -0.0746
12304W        W27921  15.721  11.092   2.925 -0.0286  0.4321 -0.3958
12305W        W27922   3.618   5.067  14.169  0.0476 -0.0415 -0.1715
12306W        W27923  16.900  15.894  14.829  0.1871  0.0017 -0.1609
12307W        W27924   7.263  11.680   2.851 -0.2548  0.3326  0.0829
12308W        W27925  13.153  16.897  11.100  0.2300 -0.0690 -0.2003
12309W        W27926   4.881   0.945   1.270 -0.0062  0.2765  0.0583
12310W        W27927  13.849   1.476   1.950  0.1830 -0.1461 -0.2916
12311W        W27928   6.190   5.159   4.295 -0.0070 -0.1188 -0.2291
12312W        W27929  17.269   0.374   4.755  0.0285  0.0243  0.1610
12313W        W27930   7.378   0.276   0.791 -0.0801 -0.1676  0.0477
12314W        W27931   8.036   0.450  11.174 -0.3852  0.2169 -0.1265
12315W        W27932   6.833  15.038   0.923  0.0305  0.2068  0.0913
12316W        W27933   8.477   3.190  12.436 -0.1019 -0.2208  0.0375
12317W        W27934  12.020   3.612  11.175 -0.2881 -0.0981 -0.1973
12318W        W27935  14.639  17.204  11.858  0.2632 -0.0436  0.1621
12319W        W27936  10.687   4.492  15.179 -0.1802  0.0806  0.2371
12320W        W27937   7.379  12.307  15.688  0.0801  0.0590 -0.0451
12321W        W27938  14.226   4.823   5.088 -0.1493 -0.1211  0.1022
12322W        W27939   2.175  13.622  13.757 -0.2208  0.0516 -0.1246
12323W        W27940  16.100  13.401  10.093  0.1208 -0.1371 -0.1608
12324W        W27941  14.225  10.336   1.253 -0.1256 -0.3170  0.1153
12325W        W27942   0.667  12.312   1.685  0.0398  0.1400  0.1982
12326W        W27943  11.140   5.965   3.279  0.2879 -0.0945  0.0361
12327W        W27944   9.068   8.334   2.015 -0.2110  0.1288 -0.1310
12328W        W27945  16.800  16.291  15.325 -0.3702 -0.3256  0.0924
12329W        W27946   0.239  10.071  11.986 -0.1165 -0.2235 -0.2786
12330W        W27947  10.208   6.102  14.478  0.1236  0.1730  0.1472
12331W        W27948   4.331   2.175   2.055  0.2323 -0.0386  0.0700
12332W        W27949   4.449  16.175  14.474 -0.1611  0.2620 -0.0452
12333W        W27950   0.150  10.366   3.987  0.3363 -0.2165 -0.3131
12334W        W27951   6.155  17.369   2.973  0.1199  0.0879 -0.0867
12335W        W27952  18.247  15.267  11.591 -0.0591 -0.3147  0.1667
12336W        W27953   2.889  17.898  14.733  0.1624  0.0604 -0.1308
12337W        W27954   2.185   9.613  13.210  0.1588 -0.1352  0.0482
12338W        W27955  15.907   3.824  11.218 -0.2473 -0.1292 -0.0392
12339W        W27956  12.982   8.246   0.056 -0.0290 -0.0839 -0.1548
12340W        W27957   2.649   5.483   0.247  0.0722 -0.1636  0.1195
12341W        W27958  16.726   6.152  10.656  0.1101  0.0466 -0.1610
12342W        W27959   0.546   4.580   3.474  0.3635  0.1424 -0.1484
12343W        W27960  10.673   6.729  15.842 -0.1940 -0.0208 -0.0342
12344W        W27961   8.896  13.831   0.695 -0.0529  0.3176  0.2453
12345W        W27962   2.356   2.855   1.386  0.1700 -0.2370 -0.1802
12346W        W27963  17.952  17.678   2.026  0.0072 -0.3611  0.3946
12347W        W27964  10.059   3.691  13.716  0.2142  0.0931  0.0989
12348W        W27965  11.778   9.323  10.930 -0.0464  0.2432 -0.3228
12349W        W27966   0.582  17.384   2.138  0.0001  0.3616 -0.2006
12350W        W27967   3.603   9.268   2.748  0.2054 -0.1457 -0.1681
12351W        W27968   9.119  17.328   1.080  0.1520 -0.0793  0.1162
12352W        W27969  16.720   5.398  11.986 -0.2684 -0.1004 -0.0925
12353W        W27970  16.784  12.775  10.722 -0.1306 -0.0555 -0.1298
12354W        W27971  15.307   6.424  13.992 -0.2521 -0.0982  0.2594
12355W        W27972   5.405   7.145   3.851 -0.1924  0.0058 -0.2849
12356W        W27973   3.137   6.936  14.884  0.3189 -0.1152  0.1107
12357W        W27974  12.163   1.822   1.666  0.2059 -0.0189 -0.0345
12358W        W27975   3.249   2.399   1.290  0.4017  0.0793  0.0379
12359W        W27976  18.235  14.132   5.388  0.5132  0.3686  0.2585
12360W        W27977  15.479   8.980   5.383  0.2855  0.0328 -0.2618
12361W        W27978  10.802  18.252   4.135 -0.2570 -0.0877  0.3922
12362W        W27979  15.741  10.068   3.897 -0.2600  0.1019 -0.0232
12363W        W27980   4.412  13.407   1.913 -0.1740  0.1065 -0.1138
12364W        W27981   6.842  17.905  12.492  0.0971  0.7467  0.2734
12365W        W27982   9.661  13.747   3.465  0.0477 -0.2602  0.2176
12366W        W27983   1.097   4.171   5.811  0.0984 -0.2433  0.1670
12367W        W27984   2.115   8.301   0.711 -0.2236 -0.1373  0.1086
12368W        W27985  11.734   9.877  12.674  0.6744 -0.0774 -0.0148
12369W        W27986  16.391   8.574  12.907  0.0615  0.0285 -0.1454
12370W        W27987  15.719  12.342   2.279  0.0120  0.0402 -0.1917
12371W        W27988  13.392  10.467   1.085  0.2239 -0.0122 -0.2842
12372W        W27989   7.746  16.357  15.029 -0.1051 -0.0974  0.1531
12373W        W27990   6.710   5.316  10.386 -0.1053  0.1378 -0.1569
12374W        W27991   3.685  16.833  14.873 -0.1699 -0.2851  0.1431
12375W        W27992  10.108   8.789   4.516 -0.0173 -0.4209  0.0153
12376W        W27993  14.209   9.401  13.321 -0.2990  0.0191  0.0069
12377W        W27994   8.471  17.432  14.468 -0.1603  0.2973  0.0126
12378W        W27995   5.265  16.928   1.437  0.4900 -0.0303 -0.0865
12379W        W27996   5.367   8.613  14.474  0.1361  0.1310  0.2019
12380W        W27997  12.567  12.121  15.947 -0.2353 -0.1944 -0.1009
12381W        W27998   2.692   1.845  11.358 -0.1936 -0.0215 -0.0926
12382W        W27999   5.045  12.887  11.745  0.1340 -0.2611  0.1674
12383W        W28000   2.379   2.713   3.412 -0.3063 -0.0713  0.0820
12384W        W28001  15.271   8.767  10.917  0.1856 -0.3860 -0.0526
12385W        W28002   6.511   5.526   0.358  0.0954 -0.1164 -0.2015
12386W        W28003   0.136   0.959   4.732  0.0061 -0.0119 -0.0335
12387W        W28004  18.204  10.902  11.596 -0.1014 -0.0397 -0.0097
12388W        W28005   4.857   9.224  15.249  0.0124  0.2022  0.1606
12389W        W28006  12.600   1.876   5.078 -0.3597  0.2658 -0.3352
12390W        W28007   9.890   5.420   2.401 -0.0818 -0.2297 -0.2126
12391W        W28008  13.434  12.579  14.699 -0.2364  0.0047 -0.1781
12392W        W28009   2.314  16.561   6.496 -0.0514  0.1287  0.0863
12393W        W28010   1.025   5.158  11.489 -0.0453  0.3160 -0.1946
12394W        W28011   9.168  12.695   4.981  0.0605  0.2551 -0.3107
12395W        W28012   1.424  15.114  14.526 -0.4421  0.2667 -0.0681
12396W        W28013   5.964   8.477  13.942  0.1006  0.4121  0.1650
12397W        W28014   3.782  16.476   5.529 -0.0063 -0.3457  0.4960
12398W        W28015  10.982   7.893  13.422 -0.5206  0.2140  0.4729
12399W        W28016   2.852   0.953   4.247 -0.1649 -0.0387 -0.0426
12400W        W28017   1.955  10.844   5.419 -0.2483 -0.0958  0.1876
12401W        W28018   3.750  12.321   4.679 -0.2349  0.0772 -0.0910
12402W        W28019  14.395   4.743   0.710  0.0122  0.0773 -0.2434
12403W        W28020   2.056   5.337   4.326  0.2761 -0.2548  0.1708
12404W        W28021   6.132   0.959   0.318  0.2269 -0.0883  0.0233
12405W        W28022   3.549   7.855   2.394  0.0162  0.0876 -0.1342
12406W        W28023  14.768  18.165   1.135  0.0636  0.0826 -0.0348
12407W        W28024  12.575  13.842   5.987  0.1379  0.1050 -0.0576
12408W        W28025   1.234   0.735   6.514  0.1619  0.1641 -0.2090
12409W        W28026   4.584  12.573   2.657  0.1890  0.0601 -0.1074
12410W        W28027   2.720   2.308   5.969 -0.0746 -0.3144 -0.3008
12411W        W28028  11.260  14.564   5.905  0.0807 -0.1316  0.0454
12412W        W28029  13.074   7.908  10.697  0.3273 -0.3649  0.0871
12413W        W28030   0.079   0.905   2.996  0.3431  0.1211  0.2990
12414W        W28031   2.519   6.387   3.489 -0.1386 -0.0739  0.1845
12415W        W28032   7.990  12.020   4.962 -0.1488  0.1571  0.2402
12416W        W28033   8.118   2.000  11.494  0.0326  0.1760  0.1092
12417W        W28034   8.127   8.527  12.771  0.1725 -0.0293 -0.1524
12418W        W28035  16.928  15.416  15.660  0.2710 -0.0314  0.1540
12419W        W28036   6.699   4.157   0.461  0.0788  0.4484 -0.2945
12420W        W28037   2.973  10.560  13.859 -0.1583  0.1514 -0.1837
12421W        W28038   4.679   1.735   1.760  0.1978 -0.0038  0.1584
12422W        W28039  13.670  11.861  12.894 -0.1568  0.2890  0.0365
12423W        W28040  11.877  13.305  12.980  0.1269 -0.0330  0.2770
12424W        W28041   1.776   7.500  15.487 -0.0872  0.0006  0.1606
12425W        W28042  17.059   2.147  12.534 -0.2499 -0.3156  0.0486
12426W        W28043  17.708  13.510  11.973  0.1421  0.2370 -0.1181
12427W        W28044  12.531  16.121   0.308 -0.2738  0.1004 -0.1134
12428W        W28045   1.069   3.063   2.810  0.2177  0.0248 -0.2173
12429W        W28046  17.962   3.418  12.850 -0.1760 -0.2863 -0.0297
12430W        W28047  11.080   4.212  15.270 -0.1110 -0.1283 -0.2824
12431W        W28048   0.149  14.237   0.695 -0.2253 -0.0176 -0.0681
12432W        W28049   6.648  16.397  16.096  0.3129 -0.5177  0.0047
12433W        W28050   1.157   8.338  12.188 -0.1163  0.0768 -0.0886
12434W        W28051   7.937   2.229   2.591 -0.1330 -0.0833  0.0125
12435W        W28052   6.719   6.914   3.503 -0.3252  0.5143 -0.1363
12436W        W28053  17.060  11.777   3.729  0.0882  0.2275 -0.0958
12437W        W28054   5.430   8.748   4.794  0.0724  0.0802  0.0458
12438W        W28055   3.361  12.060   2.036  0.0978 -0.2502 -0.1010
12439W        W28056   0.236  18.055   4.835  0.1118 -0.0337 -0.0746
12440W        W28057   7.825  14.384  15.215  0.0943 -0.2172 -0.1378
12441W        W28058   4.291   3.190  12.388  0.1124 -0.0447  0.0397
12442W        W28059   8.297  16.284  11.360 -0.0194  0.1429  0.1284
12443W        W28060  13.052   3.254   5.053  0.1748  0.4114  0.2486
12444W        W28061  14.427  14.019   3.909  0.1758 -0.1104  0.1687
12445W        W28062  14.666  14.699   1.359  0.2510  0.2583  0.1397
12446W        W28063  14.056  15.249  15.108  0.1714  0.1655  0.2769
12447W        W28064  15.281   2.626  14.558  0.2420 -0.3470  0.0699
12448W        W28065  10.093   2.627  13.644 -0.1511  0.1585  0.2580
12449W        W28066   8.349  17.301   2.238  0.1618  0.2552  0.0286
12450W        W28067  10.531  14.500  11.274  0.1737 -0.1050  0.1856
12451W        W28068   1.814  18.352   1.022 -0.1278 -0.2231 -0.1139
12452W        W28069   3.046  17.852   2.836 -0.2331 -0.0678  0.1024
12453W        W28070   8.053   2.867  10.227 -0.0835  0.1033 -0.2016
12454W        W28071   6.203   7.624   3.721  0.1212  0.2407  0.0832
12455W        W28072  10.250   5.331   4.137  0.1460 -0.0865 -0.0806
12456W        W28073  11.006  16.790  11.341  0.0077 -0.0716 -0.1926
12457W        W28074  10.994   1.688   2.794 -0.0566  0.3812 -0.1827
12458W        W28075  17.592   2.973  11.958  0.0172 -0.0574  0.0673
12459W        W28076   3.160  13.301  15.059 -0.1704 -0.0720  0.0088
12460W        W28077  11.440   0.513   4.941 -0.0338  0.2440  0.0196
12461W        W28078  15.081  14.388  12.075 -0.1316  0.3905 -0.1796
12462W        W28079   2.938  18.188  13.753 -0.0913 -0.2238  0.0746
12463W        W28080  14.872  16.833   4.565  0.2594  0.3241 -0.0206
12464W        W28081   4.558  17.600   5.200 -0.1230  0.0607  0.2093
12465W        W28082   7.130   8.296   3.819  0.0197  0.0459  0.1446
12466W        W28083   7.701   2.313  14.017 -0.0910  0.0444  0.1582
12467W        W28084  12.210   5.841   4.347 -0.2495  0.3100 -0.0060
12468W        W28085   1.751   8.152   0.973 -0.4158  0.0279  0.2357
12469W        W28086   8.932   4.310   1.869 -0.2349 -0.3227  0.0390
12470W        W28087  16.823   2.478  15.525  0.1564 -0.0171 -0.1167
12471W        W28088  18.172  13.753   2.587 -0.1391  0.1179 -0.1762
12472W        W28089   3.330   7.064  13.446  0.1767  0.1447  0.0146
12473W        W28090   9.061   2.801   3.031 -0.1609  0.0492 -0.0192
12474W        W28091  12.485  13.107   1.895  0.1355 -0.1212  0.0237
12475W        W28092  15.825   7.938  14.746 -0.1470  0.2323  0.3307
12476W        W28093   3.218  16.466  12.447 -0.0122  0.2160  0.0302
12477W        W28094  13.753   1.803   1.336  0.1733 -0.1032 -0.1438
12478W        W28095  13.455   1.403  13.234 -0.2202 -0.0664  0.2764
12479W        W28096   3.520  13.193   1.791  0.0422 -0.1062  0.0253
12480W        W28097  14.181   3.309  14.211  0.2908 -0.2167 -0.2064
12481W        W28098   1.342   3.055  13.466  0.0371 -0.0211 -0.2062
12482W        W28099   9.713   1.126  15.935 -0.0475 -0.1248 -0.1238
12483W        W28100  17.692   3.346   4.673 -0.1422 -0.2295  0.0147
12484W        W28101  16.366  15.568  13.743 -0.1488 -0.0502 -0.0366
12485W        W28102  15.383   9.716   3.642  0.2065 -0.2564  0.2856
12486W        W28103  18.272  14.516   4.286  0.2290 -0.3057 -0.4632
12487W        W28104  15.253  17.889  13.603  0.2349  0.0329 -0.0324
12488W        W28105  11.388   4.880   3.609 -0.1601 -0.0891  0.0198
12489W        W28106   3.890  16.286  13.734  0.0296 -0.2913 -0.0358
12490W        W28107  11.183  16.220   0.879 -0.0869 -0.2755 -0.0822
12491W        W28108   9.266  10.301   3.525  0.2060  0.1513  0.1743
12492W        W28109   3.711   1.915  10.936  0.2050  0.0706  0.1672
12493W        W28110   0.119  14.555  15.180  0.0719  0.2344 -0.1291
12494W        W28111   4.499   2.746  12.422  0.1310 -0.0250 -0.0619
12495W        W28112   6.091  15.876   3.359  0.0560 -0.1038  0.3428
12496W        W28113   8.445  11.217  15.768  0.0194  0.1449 -0.3778
12497W        W28114  11.103   3.493  11.347  0.0483 -0.3337 -0.3853
12498W        W28115   1.309  10.917   4.278 -0.1482 -0.0968 -0.3057
12499W        W28116   2.340  14.025   2.633  0.2286  0.0913  0.0605
12500W        W28117   7.298   1.632  11.050  0.0129  0.3294  0.0112
12501W        W28118  12.088   4.801   0.112  0.3437  0.0086  0.0690
12502W        W28119   6.714  15.270   2.462 -0.0265  0.1603 -0.2316
12503W        W28120  16.901  11.470   0.580 -0.0952 -0.0113 -0.3275
12504W        W28121  16.860  13.484  12.187 -0.4134 -0.0705  0.0349
12505W        W28122  15.213  17.264  12.083  0.0248 -0.2396  0.2578
12506W        W28123  15.964   0.632   5.002  0.1248  0.1200 -0.0941
12507W        W28124   5.092  16.609  15.297  0.1599 -0.2558  0.0208
12508W        W28125  16.275   1.302   4.340 -0.0249  0.2389 -0.1672
12509W        W28126  14.572   5.146   3.353  0.3849 -0.1063 -0.0110
12510W        W28127  10.808   1.607  13.876  0.1618  0.3417 -0.2195
12511W        W28128   3.129  13.872   4.518  0.0274 -0.1889 -0.0480
12512W        W28129  10.526  17.111   0.079  0.4515  0.1813 -0.0542
12513W        W28130  10.714   6.742   4.791 -0.2792 -0.0205 -0.1482
12514W        W28131   7.027  11.102  15.503 -0.2389 -0.0324 -0.0426
12515W        W28132   4.205  12.068   6.289  0.0558 -0.2324  0.0107
12516W        W28133  16.242   8.555   5.049  0.0163  0.3700 -0.2203
12517W        W28134  11.432  14.904  14.550 -0.3904 -0.1772 -0.0792
12518W        W28135  16.674   3.405   0.247 -0.2686 -0.4392  0.3088
12519W        W28136   4.939  12.001   5.108  0.2654  0.1750 -0.1082
12520W        W28137   0.070   1.277  12.847  0.1100 -0.0491  0.0649
12521W        W28138   7.814   6.009  13.181  0.0982 -0.0727  0.1789
12522W        W28139   4.583  12.786   0.817  0.3605 -0.1713  0.0607
12523W        W28140  11.732   0.413  11.260 -0.1626  0.3100 -0.1059
12524W        W28141   9.679  11.231   1.789 -0.1791 -0.2732 -0.0695
12525W        W28142  11.083  13.232  12.226  0.0718 -0.0672 -0.1024
12526W        W28143  10.133   7.871   2.694 -0.1866 -0.1910 -0.1690
12527W        W28144  16.721   4.213   4.322 -0.0093  0.3522  0.1135
12528W        W28145  17.364   2.137   4.186  0.1174 -0.1566  0.1501
12529W        W28146   6.794   2.653  11.956  0.0630  0.0751 -0.4638
12530W        W28147  17.975  13.078   6.364  0.2574 -0.2793  0.0812
12531W        W28148  17.754  17.113   2.228  0.0101  0.1621 -0.2681
12532W        W28149   9.710  17.098   3.289  0.0304 -0.0431 -0.0752
12533W        W28150  15.923  12.529  14.601 -0.0986  0.0179 -0.1766
12534W        W28151  14.694  10.426   2.683 -0.1251  0.2989  0.1796
12535W        W28152   1.238   1.301   0.829  0.1867  0.1607  0.3025
12536W        W28153  18.349   6.221  11.344  0.0158  0.0029 -0.1830
12537W        W28154   1.579   2.995   3.407 -0.0284  0.1039 -0.0910
12538W        W28155   0.120  10.612  11.385 -0.0753  0.0434 -0.3641
12539W        W28156   7.009  15.590   0.966 -0.1141  0.4084  0.1784
12540W        W28157  13.689   9.655  15.234 -0.1394  0.0286 -0.0612
12541W        W28158   8.053  12.172   1.234  0.1932 -0.1265  0.1044
12542W        W28159  16.073   9.336  13.400 -0.0120  0.5501 -0.3037
12543W        W28160   3.981   3.283  16.053 -0.2353 -0.0407 -0.0315
12544W        W28161  15.721  16.078  15.626 -0.1580 -0.0764  0.1774
12545W        W28162   4.920  13.317   2.220  0.2040 -0.1121 -0.0638
12546W        W28163  15.691  17.242   0.552 -0.0573  0.1601  0.0794
12547W        W28164   9.267  16.739  12.417  0.2298  0.0361  0.2148
12548W        W28165  12.582   3.211   3.531 -0.3800  0.1995 -0.2932
12549W        W28166  12.449   7.012  13.664  0.1348 -0.1901  0.2080
12550W        W28167  14.618  13.473  14.539  0.3996 -0.0818  0.1785
12551W        W28168   8.628   5.652  14.660 -0.0678  0.0343  0.1308
12552W        W28169  15.803   8.008   3.549  0.2748  0.1017 -0.2475
12553W        W28170  14.801  16.930  11.495 -0.0410  0.0681 -0.1565
12554W        W28171   6.046   9.587   1.532 -0.1927  0.0136  0.2557
12555W        W28172   0.916   4.153   2.077  0.0642  0.0206 -0.0848
12556W        W28173   4.455  13.554  12.925 -0.0604 -0.0943 -0.2359
12557W        W28174   9.206  18.253   4.343  0.3146 -0.2814  0.0818
12558W        W28175   4.629   2.632  15.595  0.2063 -0.4338  0.2192
12559W        W28176  16.666   4.365  16.112  0.1534  0.2958 -0.0710
12560W        W28177   2.528  14.757   0.086 -0.2757 -0.2856 -0.1580
12561W        W28178   0.735   8.215   4.640  0.2676 -0.3041  0.4219
12562W        W28179   0.187  16.384   4.179 -0.1847 -0.3212  0.2753
12563W        W28180   5.912   8.268   1.359  0.0104  0.0167  0.1611
12564W        W28181  16.452   5.969  15.111 -0.2789 -0.2602  0.0076
12565W        W28182   1.935   5.874  11.227 -0.1764 -0.0848  0.0493
12566W        W28183  14.850  15.246  11.897  0.0588  0.2041 -0.1619
12567W        W28184   1.870   3.302   1.541 -0.1226 -0.0984  0.1270
12568W        W28185   5.995   8.873   3.277 -0.1116  0.0681  0.0277
12569W        W28186  10.380  17.389  11.786 -0.1883 -0.2616 -0.2945
12570W        W28187   4.815  16.022   3.376  0.2346 -0.0116  0.1883
12571W        W28188  15.231  17.072   0.258  0.0317  0.2593 -0.0317
12572W        W28189   1.017   7.873  15.512 -0.2891  0.0484  0.1801
12573W        W28190   2.628   3.682   2.015 -0.3638  0.0434 -0.2883
12574W        W28191  10.441   6.677   3.472  0.0458  0.4222  0.1428
12575W        W28192  14.977  11.604   5.056 -0.1373 -0.0703  0.0846
12576W        W28193   1.827   0.334  12.802 -0.2354  0.2562  0.1607
12577W        W28194   0.639   4.377  15.468  0.0615  0.0668 -0.4285
12578W        W28195   6.537   2.203  13.702 -0.0619 -0.2089  0.2299
12579W        W28196  16.540  16.323   0.968  0.0693  0.2222  0.1092
12580W        W28197  14.406   5.557  11.635 -0.1683  0.0803 -0.1357
12581W        W28198   3.903  17.077  10.992  0.2080 -0.0946  0.1399
12582W        W28199  13.417  12.390   3.764 -0.1112  0.1397 -0.0699
12583W        W28200  14.478   7.012  11.784 -0.3540  0.0488  0.1638
12584W        W28201  17.967   8.296   3.694  0.1008 -0.0270 -0.0273
12585W        W28202  12.791   4.808  10.673  0.0183 -0.3735  0.1544
12586W        W28203   0.014  15.885   6.412  0.0734  0.1909  0.1009
12587W        W28204   9.308  11.870  11.395 -0.0438 -0.1232  0.3930
12588W        W28205  13.253  11.057  14.027 -0.1717 -0.1234 -0.3819
12589W        W28206   5.078   3.908   3.549  0.1606  0.3431 -0.2296
12590W        W28207  16.120  14.529   2.156  0.0740  0.5153  0.1804
12591W        W28208  17.555  12.885   1.878 -0.1171 -0.0511 -0.3268
12592W        W28209   7.661   1.054   0.356  0.2480 -0.2960  0.0113
12593W        W28210  12.978   5.085  15.680  0.1316  0.0736  0.2607
12594W        W28211   2.152  18.330   4.862 -0.0780  0.0094 -0.2280
12595W        W28212  14.907  17.451   4.451 -0.2018  0.2095 -0.1810
12596W        W28213   4.974   3.741   1.725 -0.0337  0.0497  0.1778
12597W        W28214  12.888   7.946   1.929  0.1313  0.0377  0.0287
12598W        W28215   3.990  12.816   3.221  0.0467 -0.0449 -0.2435
12599W        W28216   0.510  17.203   0.783  0.3756  0.1950 -0.1328
12600W        W28217   9.607   3.934   3.270  0.1918  0.1836 -0.0718
12601W        W28218   6.547   1.256  13.376  0.0715  0.0769 -0.2292
12602W        W28219   8.031   1.959  16.057 -0.0682  0.1017 -0.1028
12603W        W28220  11.823  14.923   2.278  0.0689  0.0349  0.2026
12604W        W28221   7.727  16.441  13.620 -0.3349 -0.2333  0.2652
12605W        W28222  14.041   1.598   0.935 -0.0582 -0.2231  0.0632
12606W        W28223   1.459   0.340   1.299  0.3784  0.1147  0.1313
12607W        W28224   2.209   0.923   5.576  0.2545  0.0749  0.2358
12608W        W28225   3.088   6.973   1.150 -0.3396 -0.3644 -0.0283
12609W        W28226   3.803  18.141  13.746  0.2231 -0.1127  0.5909
12610W        W28227  18.257   8.015  15.207 -0.2479 -0.1565 -0.0629
12611W        W28228   7.812  13.632   0.476 -0.2209  0.3830  0.3359
12612W        W28229   5.825   7.826  14.617 -0.1391  0.1476 -0.0220
12613W        W28230  10.017   9.678  14.496 -0.0085 -0.1676  0.4478
12614W        W28231  13.829  18.208   3.813 -0.1673 -0.2946 -0.3302
12615W        W28232  16.622  14.186   3.006 -0.0247 -0.0506 -0.0827
12616W        W28233   8.264  17.609   0.881  0.1069 -0.2010  0.0362
12617W        W28234   1.172  10.696   0.401  0.2218  0.0034  0.1029
12618W        W28235   9.441   5.979   2.517  0.1390  0.0634 -0.0844
12619W        W28236   7.007   8.199  12.119  0.0567 -0.0639 -0.1828
12620W        W28237  12.216   3.234  16.031  0.0367 -0.0902  0.0016
12621W        W28238   0.577   2.644   0.550 -0.1440  0.1074 -0.2148
12622W        W28239  16.842  11.763   4.707 -0.0149  0.1870  0.0821
12623W        W28240  17.120   3.450  13.317 -0.0649 -0.0240 -0.0319
12624W        W28241   9.715  10.288  15.999  0.0814  0.1572 -0.0872
12625W        W28242   3.123   5.186   5.102 -0.0375  0.0344 -0.2474
12626W        W28243  10.976   3.799   3.221 -0.7130  0.2405 -0.1702
12627W        W28244   3.381  12.380  15.303 -0.2891 -0.0911  0.1782
12628W        W28245   0.180   6.359  13.456  0.0400  0.0321  0.1518
12629W        W28246  13.564  12.515  11.845  0.2207 -0.1850 -0.1346
12630W        W28247  17.044   1.169   1.278 -0.3960 -0.1736 -0.0976
12631W        W28248  14.054   5.787  15.807 -0.2641 -0.1328  0.2970
12632W        W28249  17.034   9.644   4.012  0.1147  0.0280 -0.2607
12633W        W28250   1.246  11.394   5.569  0.2365  0.0776 -0.0467
12634W        W28251  11.755  12.425  12.904 -0.0918 -0.2003 -0.1498
12635W        W28252   2.692  17.723   5.592 -0.2353 -0.1280 -0.0025
12636W        W28253   5.638  11.925  11.522 -0.5028  0.1447  0.0701
12637W        W28254  16.158   1.423  12.995 -0.0345  0.0567  0.2754
12638W        W28255   5.795   4.615  14.708 -0.0022 -0.1956 -0.0551
12639W        W28256  17.743   0.981  13.994 -0.3347 -0.0161  0.1790
12640W        W28257  16.376   0.940  15.124 -0.1381  0.0741  0.1859
12641W        W28258  11.197   2.117   5.248  0.0847  0.0570  0.0803
12642W        W28259  17.823   8.652   4.124 -0.4442  0.1705  0.3078
12643W        W28260  10.721  17.010   0.971  0.0832  0.1122 -0.3650
12644W        W28261   7.500   9.933  13.798  0.2725 -0.1398 -0.1101
12645W        W28262   7.914  12.525   6.015 -0.1129  0.0038 -0.0911
12646W        W28263   8.368   4.759  13.005  0.0765  0.0222  0.0569
12647W        W28264   1.090   1.394   3.992  0.0637 -0.0096  0.0216
12648W        W28265   9.369   9.426  15.884 -0.0671 -0.1092 -0.1963
12649W        W28266   8.699  14.829  14.248  0.1794  0.1134 -0.0248
12650W        W28267   6.399   2.104   2.345 -0.0474  0.0405  0.0496
12651W        W28268  14.912   7.803  14.849  0.0699  0.0508  0.1301
12652W        W28269   1.519  15.241   1.482  0.0167 -0.3845 -0.2415
12653W        W28270   0.512  16.441   2.373  0.0657  0.0180  0.3492
12654W        W28271  18.162  15.453   0.477  0.0331  0.2528 -0.1733
12655W        W28272   5.556  11.565   4.581 -0.0754 -0.0980 -0.0644
12656W        W28273   4.945   2.690  12.801 -0.1275  0.0115 -0.2496
12657W        W28274   6.988  10.765   3.690 -0.0995 -0.3205  0.3802
12658W        W28275   4.663   3.423  12.178  0.2527 -0.5383  0.2014
12659W        W28276  17.013   5.816  12.379  0.2682 -0.0492  0.2417
12660W        W28277   4.196   6.224   1.524 -0.2713  0.0879  0.0110
12661W        W28278  11.178  10.343  14.216 -0.0715  0.6272 -0.0142
12662W        W28279   0.233  18.195  12.715  0.0593  0.0117  0.1855
12663W        W28280   6.823   1.806  15.368 -0.1743 -0.2905 -0.1463
12664W        W28281   7.101   9.572  13.948  0.0419  0.1865 -0.0553
12665W        W28282  12.132  17.342   1.406 -0.2192  0.4236 -0.0007
12666W        W28283   0.117  15.897   3.140  0.2313 -0.0084 -0.0487
12667W        W28284   2.921  15.811   0.002 -0.0657 -0.0250 -0.1781
12668W        W28285  15.694   6.897  11.249 -0.0774 -0.3246  0.2332
12669W        W28286   2.062   2.567  14.608 -0.0116  0.0609 -0.0002
12670W        W28287   9.868  15.399   1.865  0.1190 -0.3163 -0.3617
12671W        W28288   0.622   7.068   4.651 -0.0123 -0.0349  0.1528
12672W        W28289  18.092   6.346   4.422 -0.0840 -0.1052  0.0281
12673W        W28290  16.370   5.306  13.443 -0.0576 -0.1072 -0.0838
12674W        W28291   3.668   9.753   4.678 -0.2015 -0.0254  0.0238
12675W        W28292  16.780  18.405   2.441  0.1853  0.1178  0.0175
12676W        W28293  14.209   3.939   2.977  0.0902 -0.2171  0.3657
12677W        W28294   8.383   3.574   3.722 -0.1285 -0.2291 -0.2365
12678W        W28295  17.457  11.980   1.115  0.4669 -0.2878  0.0556
12679W        W28296   5.589   2.058   3.745 -0.0279 -0.1143  0.0046
12680W        W28297  13.735  15.806  11.176 -0.2924  0.0215 -0.0011
12681W        W28298   3.851   6.461   5.784 -0.1105  0.2220 -0.2227
12682W        W28299  12.125   4.205  14.451  0.2823 -0.1871  0.1394
12683W        W28300   5.394  18.227  14.023 -0.0785 -0.1285  0.2175
12684W        W28301   2.841   9.680  15.342 -0.0457  0.0970 -0.0120
12685W        W28302  17.171  17.858   3.022  0.2213  0.0558  0.1271
12686W        W28303   6.640   8.467   3.735  0.1755  0.2040 -0.0237
12687W        W28304  10.398   4.321  15.902  0.0250  0.0663  0.1710
12688W        W28305   5.993   1.874  10.922  0.0786 -0.0110 -0.1536
12689W        W28306  13.505   4.310  15.500  0.3620 -0.1938  0.0468
12690W        W28307  14.236   5.166   0.405  0.0175  0.0513  0.2557
12691W        W28308   0.493  17.013  11.985 -0.1300  0.0983  0.2391
12692W        W28309   4.028   5.689   2.299 -0.0224 -0.1044 -0.0111
12693W        W28310  14.732   2.326  13.329 -0.2203  0.0022  0.2277
12694W        W28311   2.387  15.722  13.223 -0.0742  0.0035  0.0758
12695W        W28312   4.171   2.612  15.416  0.0674  0.0560  0.2001
12696W        W28313  16.161   3.761  12.076  0.0089  0.1686 -0.2102
12697W        W28314   1.340  14.052   0.102 -0.1534 -0.0603  0.0999
12698W        W28315   6.523  10.525  11.382  0.0700  0.0143 -0.2560
12699W        W28316  15.434  15.016   3.740  0.0858  0.0972  0.0198
12700W        W28317  17.578  12.150  11.341 -0.1647 -0.0790 -0.0155
12701W        W28318   5.420  16.838  15.545 -0.1000 -0.1487  0.1707
12702W        W28319  14.358   6.740  14.341  0.0869 -0.0708  0.2037
12703W        W28320   0.937  17.058   5.349  0.0311 -0.1326  0.0050
12704W        W28321   6.709   1.859   1.962  0.1238  0.0341 -0.1115
12705W        W28322   1.342   4.566  15.648 -0.0712 -0.0385 -0.1434
12706W        W28323  17.755   1.929   1.021 -0.0810 -0.1708 -0.2350
12707W        W28324  15.794   6.147  12.032 -0.2062 -0.1793  0.3514
12708W        W28325   8.169  12.867  13.644 -0.1218 -0.0774  0.2290
12709W        W28326   2.796  15.540   4.208  0.1012  0.0502  0.1941
12710W        W28327   3.224   9.565  15.914 -0.0103  0.4904 -0.1652
12711W        W28328   3.911  15.194  16.098  0.0157  0.2145  0.1356
12712W        W28329  14.480   5.418  15.607  0.3655  0.2428 -0.1034
12713W        W28330   4.480   2.186   0.447 -0.0616  0.0996 -0.2720
12714W        W28331  11.172   1.759   3.306 -0.1687 -0.2255  0.1383
12715W        W28332   9.411  11.414  13.585 -0.3163 -0.0786 -0.3102
12716W        W28333   1.104   7.466   4.169  0.2578 -0.1238  0.0394
12717W        W28334  15.469   4.222   2.290 -0.1124 -0.1515  0.4682
12718W        W28335  11.596   8.063  12.872 -0.2110  0.0977 -0.0099
12719W        W28336  13.655   3.351   4.121  0.1917  0.1538  0.3478
12720W        W28337   9.258  11.081  10.184 -0.2655  0.1127 -0.1625
12721W        W28338  13.790  17.631   1.704  0.1291 -0.3458 -0.1276
12722W        W28339  13.748   9.043   5.119  0.1282 -0.4848  0.0978
12723W        W28340   3.904   6.218   5.287  0.0593  0.3162  0.0285
12724W        W28341  14.693   8.014   5.825 -0.2317 -0.1939  0.2116
12725W        W28342   4.097   0.497   0.840  0.1545 -0.3874  0.0627
12726W        W28343   9.604  12.388   4.292  0.0167 -0.1897  0.2140
12727W        W28344   6.145   2.124  14.056  0.0876  0.1775 -0.0593
12728W        W28345  13.408  14.166   1.335  0.0683  0.0892  0.1223
12729W        W28346   8.218   4.654   3.838  0.1698 -0.0083 -0.2061
12730W        W28347   0.082  14.436  13.813 -0.0877 -0.1145  0.2970
12731W        W28348   2.729   3.619   0.854 -0.2577  0.1218  0.3029
12732W        W28349  10.828   8.842   3.682  0.1864 -0.0657 -0.0575
12733W        W28350   9.372  10.862  14.818 -0.1318 -0.3001 -0.0323
12734W        W28351   2.172   2.949   2.221 -0.1979  0.1773  0.0682
12735W        W28352  11.752   9.071  14.444  0.0139 -0.1204 -0.1414
12736W        W28353   2.319   7.278   4.510  0.1703  0.1474 -0.2692
12737W        W28354   2.679  14.245  13.221 -0.1727 -0.0219 -0.1341
12738W        W28355   7.051   8.533   3.323 -0.1868  0.0545 -0.0948
12739W        W28356   4.340  13.330  13.684 -0.3331  0.0934  0.0488
12740W        W28357  12.976   3.072  12.735 -0.1958  0.1822  0.0338
12741W        W28358  16.014  18.220  13.313 -0.0813  0.0298 -0.1710
12742W        W28359   4.014  15.874  13.967  0.2368  0.0057 -0.2884
12743W        W28360  16.926   8.862  14.222 -0.1731  0.2823  0.0516
12744W        W28361   7.066   3.704   4.467  0.1229 -0.1455 -0.0738
12745W        W28362  18.231  13.190  13.078 -0.0653 -0.1895  0.1656
12746W        W28363  15.378  18.031  15.886  0.0967  0.0709 -0.0844
12747W        W28364  11.511  17.393  13.401  0.0719 -0.3081  0.1729
12748W        W28365  10.298  18.006   3.320  0.1199 -0.1135 -0.1513
12749W        W28366   1.375  14.412   1.108  0.0322  0.0306 -0.0914
12750W        W28367  15.981   4.124  14.516  0.0060  0.2580 -0.2251
12751W        W28368   2.377  15.636  15.636  0.0484 -0.0241  0.0406
12752W        W28369  11.170  12.282   3.655 -0.0771  0.2203  0.0183
12753W        W28370   6.528  10.613   0.618  0.0345  0.0149  0.0210
12754W        W28371   8.069   4.556  11.598  0.0325 -0.0733 -0.2358
12755W        W28372  12.651   0.598   1.953  0.0271 -0.0878 -0.2907
12756W        W28373   2.431  12.892   3.923  0.0334 -0.1873 -0.0611
12757W        W28374   3.561  17.965  14.198 -0.0005 -0.3965  0.3190
12758W        W28375  12.286   6.476   4.275 -0.1785  0.2817 -0.0423
12759W        W28376  17.105  16.357  13.638 -0.1295 -0.1235 -0.1055
12760W        W28377   6.153   9.121  11.772 -0.1986 -0.0611 -0.1127
12761W        W28378   6.864   0.780   5.061  0.0256  0.1587 -0.0823
12762W        W28379   5.645   7.948   5.443  0.0882 -0.0161 -0.0288
12763W        W28380   6.912   8.718  12.088 -0.2618  0.1196  0.3003
12764W        W28381  14.226  18.255   3.023 -0.0444 -0.0693  0.3287
12765W        W28382   8.626  10.026  12.125 -0.0538  0.1588  0.2001
12766W        W28383   0.572   9.600   4.662 -0.1716  0.1159 -0.0163
12767W        W28384   5.478   1.592  15.644  0.0547 -0.1513 -0.1802
12768W        W28385   4.618   7.762  10.150  0.0563 -0.0325  0.1021
12769W        W28386   7.501  16.781  13.099  0.5388 -0.0179  0.3703
12770W        W28387   8.314  18.285  14.235  0.0407 -0.1567  0.0258
12771W        W28388   3.755  17.368  12.393 -0.3870 -0.2386  0.1343
12772W        W28389   1.020  12.906  13.336 -0.3989  0.0743 -0.1970
12773W        W28390   2.480   9.540   3.346 -0.0316  0.2239 -0.0237
12774W        W28391   8.698  13.635  13.504  0.2086 -0.2495 -0.3437
12775W        W28392   7.566  16.477   3.062 -0.0371 -0.0132  0.0115
12776W        W28393  10.074   7.203  11.481 -0.0449 -0.0480  0.0470
12777W        W28394  12.974  17.620   5.762  0.2162  0.0635  0.3828
12778W        W28395   1.921   7.340   1.582  0.0040 -0.0253 -0.3187
12779W        W28396  10.056   1.004  11.007 -0.0723 -0.1830 -0.1017
12780W        W28397  18.188   5.318  11.151 -0.1064 -0.2232  0.0368
12781W        W28398  16.940  10.525   3.234  0.1729 -0.4251  0.0950
12782W        W28399   4.060  10.091   1.212  0.1504 -0.0254  0.1397
12783W        W28400   8.190   4.468  15.428 -0.2394  0.1885 -0.0728
12784W        W28401  11.021   9.116   5.706 -0.0596 -0.0075 -0.0499
12785W        W28402  14.482   3.502   2.278 -0.1499  0.0320  0.3174
12786W        W28403   3.586   4.993   0.500 -0.1874  0.2026  0.1054
12787W        W28404   3.036   3.283  15.552  0.0635  0.1275 -0.0415
12788W        W28405   4.683  17.356  15.161  0.1661 -0.0280 -0.3056
12789W        W28406   0.290   4.496   1.206  0.3627 -0.1048  0.2263
12790W        W28407  10.563  10.083  15.731 -0.2483  0.0045 -0.2126
12791W        W28408   6.593  18.052  14.890 -0.2284 -0.0513 -0.1352
12792W        W28409  14.823  16.473  15.150  0.2753  0.0120 -0.0692
12793W        W28410   3.014  11.896   3.877 -0.0660 -0.1799 -0.1863
12794W        W28411  15.005  17.107  12.689 -0.0286  0.1433  0.0194
12795W        W28412  10.562  17.670  11.381  0.0856  0.0753 -0.0674
12796W        W28413   4.513   9.924  15.284 -0.1935 -0.0717 -0.0172
12797W        W28414   8.529   8.711  12.552  0.0745  0.0476  0.1090
12798W        W28415   2.687   8.095  12.871 -0.1271 -0.3039  0.1139
12799W        W28416   2.692   5.367  13.146 -0.2400 -0.0219 -0.1318
12800W        W28417   9.830   4.810  15.514  0.1737  0.1318  0.0318
12801W        W28418   8.810   1.559  14.541  0.1155  0.2089  0.1875
12802W        W28419   3.707  15.898  11.873 -0.1156  0.2433 -0.0358
12803W        W28420   4.523   2.476  12.018 -0.1523  0.0676 -0.1928
12804W        W28421   9.153  13.811   3.979 -0.1626 -0.0096  0.0743
12805W        W28422   5.202   4.026  11.828  0.0698  0.1194  0.0838
12806W        W28423   7.267  14.778  12.088 -0.1104  0.2371 -0.0243
12807W        W28424  16.485   3.975   4.658 -0.0958 -0.2847  0.0635
12808W        W28425  11.821  12.024   6.646  0.1431  0.1546 -0.2525
12809W        W28426   5.584   0.725   0.074 -0.1285  0.1182 -0.3648
12810W        W28427  16.936   6.251   1.384 -0.0688 -0.1487 -0.0800
12811W        W28428   9.215   9.308  12.034  0.0063  0.0703  0.0718
12812W        W28429  13.757  14.471  12.293  0.0345  0.3224  0.2754
12813W        W28430   3.530  11.676   4.080  0.0844 -0.0772  0.0756
12814W        W28431  10.057  14.259   4.344 -0.1520  0.0966  0.0041
12815W        W28432   0.911  10.572   4.392  0.1429  0.0374  0.1709
12816W        W28433   3.958  15.661  12.279  0.0699 -0.0152  0.1210
12817W        W28434   2.313   5.781  15.603 -0.0985  0.1619 -0.3572
12818W        W28435   8.810   5.530   2.228 -0.0897 -0.1847 -0.2354
12819W        W28436  15.932   4.591   0.093 -0.0611 -0.1023 -0.0672
12820W        W28437   2.493   8.417  10.346  0.0558 -0.0845 -0.0596
12821W        W28438   5.841  17.428   1.258  0.0344  0.1571 -0.0571
12822W        W28439  11.017  17.415  15.141 -0.2400  0.0647 -0.1935
12823W        W28440   5.491   8.770  11.753  0.1784  0.1335 -0.2057
12824W        W28441  11.265   5.806  11.034  0.2217  0.0990 -0.2920
12825W        W28442  11.252  11.062   0.935 -0.0264  0.1644  0.2922
12826W        W28443   7.534  10.034   0.483 -0.0641  0.0484 -0.0589
12827W        W28444  16.238  13.275   3.374  0.0226 -0.3921  0.2294
12828W        W28445   9.806   9.555  10.554 -0.1197 -0.0674 -0.3152
12829W        W28446  16.180   4.684  12.783  0.0574 -0.1268  0.1115
12830W        W28447  16.631   3.434   0.782  0.0301 -0.1119  0.0943
12831W        W28448  16.930   1.660  11.339 -0.0255 -0.0322  0.2814
12832W        W28449   4.078   2.907   4.109  0.0863  0.0779  0.0262
12833W        W28450   4.455  13.922   2.296  0.1024  0.3386  0.0346
12834W        W28451   9.556   9.015   3.535 -0.3212  0.2241  0.0520
12835W        W28452  10.986  17.869  15.360 -0.2678 -0.4103  0.1708
12836W        W28453   5.786  11.849   1.097  0.0503 -0.2819 -0.2541
12837W        W28454  12.370  13.600  13.563 -0.1886  0.1806  0.1718
12838W        W28455   6.936   6.213  12.405  0.1217 -0.1370  0.0408
12839W        W28456  17.995   5.154   0.820  0.2297 -0.1070  0.1111
12840W        W28457  14.501   1.622   1.132  0.2765 -0.0226  0.1444
12841W        W28458   3.702  11.343   3.049  0.0078  0.0208  0.1633
12842W        W28459   6.012  17.209   3.639 -0.0854  0.0508 -0.1467
12843W        W28460  14.840  12.424  13.026 -0.0783  0.0822  0.3986
12844W        W28461  12.143  13.167  12.487  0.0091  0.0408 -0.1874
12845W        W28462  11.317   3.969  14.103  0.2762  0.0298 -0.2510
12846W        W28463   6.638  10.922  12.140  0.2762 -0.0407 -0.1336
12847W        W28464  12.124   9.121  14.053  0.0451 -0.0901 -0.1711
12848W        W28465   7.945  13.957   6.156  0.0501  0.0130 -0.0430
12849W        W28466   9.713  13.175   3.044 -0.0219  0.1195  0.2870
12850W        W28467  13.381  12.246  11.469  0.1361  0.0803 -0.0495
12851W        W28468   0.367   7.191  15.204 -0.1885  0.1594 -0.0308
12852W        W28469  13.050   5.030   1.244 -0.2010  0.2771  0.3436
12853W        W28470  12.437   8.811  13.670 -0.0294  0.0238  0.0287
12854W        W28471   6.953   9.248   3.027  0.1864 -0.0102  0.1313
12855W        W28472   7.478   5.626  11.969  0.0131 -0.1703 -0.0811
12856W        W28473  16.875  14.793   6.451 -0.0106  0.1434  0.5746
12857W        W28474  11.029  16.785   2.816  0.0394 -0.0838  0.1856
12858W        W28475   6.194  14.918  15.847  0.1367 -0.1203  0.0719
12859W        W28476   7.990   8.900   4.045 -0.0241  0.1769 -0.3459
12860W        W28477  16.210   3.298   0.479 -0.1128  0.2023 -0.1237
12861W        W28478   9.441   4.578   1.178 -0.0765 -0.2023 -0.0145
12862W        W28479   5.027  13.395  14.390 -0.5734  0.1615 -0.0821
12863W        W28480  16.792  12.734  14.165  0.2756  0.0198  0.0089
12864W        W28481   4.960   8.990  11.859 -0.1791  0.1362 -0.1292
12865W        W28482   1.058   9.106  14.483  0.0310  0.0441 -0.0606
12866W        W28483  10.569  10.709   1.332 -0.4588 -0.1523  0.0841
12867W        W28484   0.628   9.237   0.979 -0.1026  0.1997 -0.0074
12868W        W28485   1.364   4.067  13.555  0.3301 -0.0990 -0.1699
12869W        W28486  14.329   1.474   1.954  0.2093  0.1177  0.1380
12870W        W28487   1.529  11.086   3.264  0.0264  0.1634  0.0023
12871W        W28488  16.367   7.648  11.178 -0.1891 -0.0394  0.1177
12872W        W28489  18.402   0.135  12.787 -0.3547  0.0030  0.0176
12873W        W28490  16.150  12.870  15.072 -0.2722 -0.0199  0.1621
12874W        W28491  16.517   9.395   2.812 -0.2706 -0.3906  0.5059
12875W        W28492  17.199  15.086  13.349  0.0434 -0.1511  0.0801
12876W        W28493  14.305  12.387   4.710 -0.0382  0.1979  0.0338
12877W        W28494  10.171  15.800  10.523  0.1633 -0.1642  0.1536
12878W        W28495   0.986  12.642  14.447  0.1057  0.0307 -0.1486
12879W        W28496   7.619   0.882  13.252 -0.0676  0.0731 -0.4258
12880W        W28497  10.842   4.913   0.731 -0.0037  0.1877 -0.1201
12881W        W28498   0.812   8.462   0.689 -0.2131  0.0692 -0.0544
12882W        W28499   6.832   8.064   3.317 -0.1862  0.0853 -0.0430
12883W        W28500   7.046  17.239  11.642  0.3137  0.1376  0.3281
12884W        W28501   8.249   9.966  11.533 -0.0651 -0.4421  0.0619
12885W        W28502  15.763  16.280   1.836 -0.2103 -0.0578 -0.0892
12886W        W28503   9.089   0.770  13.392 -0.1219 -0.0520 -0.0936
12887W        W28504   0.592   6.381   2.012  0.1761 -0.2494  0.0534
12888W        W28505  12.095   3.167   5.951  0.0345  0.1433  0.2241
12889W        W28506  12.080   7.027   2.350 -0.0316 -0.0179  0.1368
12890W        W28507  10.708   1.555   3.238  0.0632 -0.2490 -0.3295
12891W        W28508   9.495  11.434   3.325 -0.0200 -0.0986  0.1270
12892W        W28509  13.899   7.643  13.951  0.0190 -0.2972 -0.0562
12893W        W28510   7.139   2.958   3.914 -0.0097  0.1804  0.1333
12894W        W28511  14.032   7.927  15.524  0.0248 -0.0220  0.6053
12895W        W28512  12.959   1.137   0.288 -0.2629  0.0032  0.0834
12896W        W28513  12.329  18.177  15.014  0.2311  0.4408  0.1512
12897W        W28514   7.274   1.395  14.065  0.0041  0.2527 -0.0787
12898W        W28515  14.179   0.879   3.644  0.0766 -0.0268  0.0678
12899W        W28516  12.842  10.426  15.499 -0.1302 -0.2022  0.2428
12900W        W28517   5.266   2.939  16.126 -0.1028 -0.0391  0.0653
12901W        W28518   2.607   9.293  12.413  0.0490  0.0689  0.1961
12902W        W28519   5.017  14.432   0.819 -0.3158  0.1564 -0.1550
12903W        W28520  11.905   0.732  10.256 -0.1157 -0.3139 -0.0379
12904W        W28521   6.707  13.984   2.696  0.0327  0.2393  0.2434
12905W        W28522  15.485  10.324   3.554  0.1907  0.1611 -0.0390
12906W        W28523   3.353  11.248   0.077 -0.1541 -0.0868  0.2804
12907W        W28524  10.572  11.778  11.910  0.1651  0.2241 -0.0369
12908W        W28525   1.402  11.944  14.068  0.1275 -0.0676  0.1165
12909W        W28526  16.043   4.767   0.622  0.0654  0.0870  0.0187
12910W        W28527  17.461  12.016   3.918 -0.2947  0.3219 -0.0700
12911W        W28528   8.956   8.557   1.091 -0.2383 -0.1674 -0.0971
12912W        W28529   8.959   1.169   1.115 -0.2360  0.1027  0.1718
12913W        W28530  13.058  11.507  13.850  0.1096  0.1587 -0.2712
12914W        W28531  13.342   1.293   5.145  0.1122  0.1202  0.0388
12915W        W28532   2.357  13.011  15.602  0.0264  0.0312  0.0194
12916W        W28533  14.661   6.623   3.238 -0.2218 -0.1939  0.2630
12917W        W28534   5.142  14.778   5.926 -0.0130 -0.2315 -0.2214
12918W        W28535   3.833  11.944   4.327 -0.3037 -0.0348 -0.1826
12919W        W28536   0.777  13.216  12.351  0.1386 -0.3126 -0.1160
12920W        W28537   8.397  15.114  15.001 -0.0964  0.1355  0.3436
12921W        W28538   8.872   3.481  12.286 -0.1695  0.1571  0.3190
12922W        W28539   8.106   1.648   4.166  0.0392 -0.0815  0.0973
12923W        W28540   5.352  13.628  11.304  0.2814 -0.0143  0.1427
12924W        W28541   0.444   1.362  15.222  0.0237 -0.1340  0.2607
12925W        W28542   0.447   1.641   3.364 -0.0747 -0.2582 -0.2633
12926W        W28543   2.655  15.437  14.773  0.1485  0.1899 -0.1547
12927W        W28544  17.358  12.890   5.550 -0.0413  0.1766 -0.1420
12928W        W28545   0.875   0.662   3.218 -0.1777 -0.0917  0.0748
12929W        W28546   2.932  12.585  14.338  0.1293  0.0738  0.2788
12930W        W28547   3.586  13.363   1.340  0.1946 -0.1201  0.2419
12931W        W28548   0.866  12.629  11.412 -0.0663 -0.0565  0.0855
12932W        W28549   1.588  15.340  15.394 -0.3012  0.2140 -0.0840
12933W        W28550  16.998   2.277   6.157  0.0033  0.0329 -0.2079
12934W        W28551  11.034  17.450  13.354 -0.1857  0.0740 -0.0699
12935W        W28552   9.747  15.284  12.772  0.1821  0.1073 -0.3056
12936W        W28553  14.960   8.986  11.234 -0.3570 -0.0127 -0.1948
12937W        W28554  17.049  14.529   2.420  0.4064 -0.1598 -0.1847
12938W        W28555   5.094  13.582  12.838 -0.0738  0.2733  0.0427
12939W        W28556  11.857   2.485  12.221 -0.1062 -0.1343 -0.4082
12940W        W28557   1.316  15.600   1.752 -0.0143 -0.2541 -0.2620
12941W        W28558   9.603  10.564   0.890 -0.2323 -0.2325 -0.0832
12942W        W28559   5.209  13.547   1.326  0.1816 -0.1467 -0.2309
12943W        W28560   6.117   4.101  12.166  0.1214 -0.2753 -0.1068
12944W        W28561  10.253  16.340   5.946  0.1336  0.1060  0.0014
12945W        W28562  15.264  14.742  11.219 -0.1405 -0.2744  0.3922
12946W        W28563  13.179   5.740   5.439 -0.1410  0.1151  0.0036
12947W        W28564   6.642   2.381  12.652  0.1685  0.1020  0.1607
12948W        W28565   7.983   2.172   4.317  0.2224 -0.2181  0.1824
12949W        W28566  16.229  10.251  14.466 -0.3259 -0.2258  0.1721
12950W        W28567  11.123  18.274   3.649  0.1567 -0.0597 -0.2440
12951W        W28568   9.036   9.595   0.025  0.0722  0.1315  0.0052
12952W        W28569   5.515   0.392   0.866 -0.0607  0.1979 -0.0061
12953W        W28570  10.918   6.971  13.555 -0.2416  0.2527  0.1678
12954W        W28571   9.638  15.193   3.181 -0.1268  0.0191  0.0971
12955W        W28572  12.406   1.208   0.248  0.0164  0.2390 -0.0045
12956W        W28573   2.619  13.769  12.699  0.0109  0.3269 -0.1662
12957W        W28574  18.280   5.674   3.392  0.0083 -0.2504  0.0689
12958W        W28575   6.328   5.566   4.496  0.1291 -0.1927 -0.1803
12959W        W28576  13.878   8.529   4.971  0.0111  0.1917  0.1262
12960W        W28577  15.735   8.523   5.197  0.2660  0.0509  0.0289
12961W        W28578  14.688  12.379   2.131 -0.2223  0.3064 -0.1178
12962W        W28579  18.416  14.364   2.104  0.0632 -0.2432 -0.1143
12963W        W28580  16.159   0.610  13.129  0.1997  0.1574 -0.1478
12964W        W28581  10.849  13.790  15.788 -0.0962  0.2134 -0.0721
12965W        W28582  15.100  13.586   1.872  0.1233  0.0097 -0.0259
12966W        W28583  14.421   4.339  13.897  0.0920 -0.0150 -0.1722
12967W        W28584  17.321  10.154  10.964 -0.1129  0.0158 -0.0894
12968W        W28585   3.908  11.688   3.332  0.0551  0.1777  0.1329
12969W        W28586   3.224  15.083  11.599  0.2809  0.0393 -0.1643
12970W        W28587  15.733  16.766   5.549  0.0507  0.1462 -0.2428
12971W        W28588   7.980   9.604   1.245  0.1927 -0.0328 -0.3281
12972W        W28589   0.141   6.948  12.079 -0.0401 -0.2145  0.0016
12973W        W28590  16.013   7.500   2.342 -0.1764 -0.3062 -0.0169
12974W        W28591  11.411   4.620   4.723  0.1488 -0.0004 -0.2566
12975W        W28592  15.292  18.267  13.311 -0.1520 -0.1972 -0.0962
12976W        W28593   4.396   6.224  15.234  0.0436 -0.0660  0.0204
12977W        W28594   5.941   8.665  16.046 -0.0606  0.1743  0.0667
12978W        W28595  15.956  17.854   1.475 -0.1224 -0.0004 -0.0978
12979W        W28596  15.320   7.610  11.650 -0.1456  0.1515 -0.2529
12980W        W28597  11.046   6.699  12.189 -0.1167  0.0010  0.0526
12981W        W28598   2.555  16.217   1.041  0.0704 -0.1568 -0.3620
12982W        W28599   4.948   4.762   0.791  0.1712 -0.0674  0.2562
12983W        W28600  17.324  11.479   2.987 -0.0738 -0.1242  0.0656
12984W        W28601   5.769   0.728   4.953 -0.3674 -0.1507 -0.0058
12985W        W28602   1.828   4.540  12.567 -0.0286  0.1081 -0.2646
12986W        W28603   6.588   6.333  13.857 -0.2489  0.3414 -0.0242
12987W        W28604  11.904  16.846  15.367  0.1101  0.1250  0.1345
12988W        W28605  10.968   2.357  14.293  0.1485  0.1276 -0.3109
12989W        W28606   5.996   1.893  13.618  0.1562 -0.2587 -0.1371
12990W        W28607   6.598  11.083   3.422 -0.1235 -0.2433 -0.1936
12991W        W28608   2.175   4.202  14.621 -0.1842 -0.0714 -0.4039
12992W        W28609   7.035   8.615   9.794 -0.0274  0.0019 -0.0754
12993W        W28610   5.045  18.016   3.525  0.0175  0.2465  0.3042
12994W        W28611   9.744  14.412  15.327 -0.2362  0.2748 -0.0506
12995W        W28612  14.849   1.774   4.503  0.2198  0.0891 -0.0407
12996W        W28613   8.228  16.926   1.628  0.5000  0.0048  0.1849
12997W        W28614  12.602   9.365   3.731  0.2517  0.5340  0.1930
12998W        W28615   6.938  12.025  11.976  0.2565  0.1993 -0.2821
12999W        W28616  10.304  10.261   2.383  0.0232  0.0056 -0.1802
13000W        W28617  16.132  11.915   1.283 -0.1829 -0.1621  0.1902
13001W        W28618  16.759  10.545  11.026 -0.1016  0.0502  0.1354
13002W        W28619  17.807  15.861  12.679  0.0755  0.2050 -0.2383
13003W        W28620   6.858   8.618   5.896 -0.0297  0.1187  0.1682
13004W        W28621  15.229   1.752  14.466 -0.0739  0.2153 -0.1296
13005W        W28622   1.376   2.597   5.203  0.0345 -0.3088  0.2582
13006W        W28623   5.845   5.242  14.319 -0.0172 -0.0941 -0.1684
13007W        W28624  15.843  18.088   5.049 -0.2194 -0.0274 -0.0209
13008W        W28625  15.168  12.921   4.627 -0.1049  0.2166 -0.0628
13009W        W28626  10.130   4.317  10.411 -0.2136 -0.2264  0.1328
13010W        W28627  15.511   2.345   4.049  0.3440 -0.1253 -0.0195
13011W        W28628  17.217   9.926   1.536  0.1431  0.0014 -0.0976
13012W        W28629  11.371   3.901  16.017  0.0214  0.5649  0.1381
13013W        W28630   7.951  18.300   5.999  0.0837 -0.1720  0.1272
13014W        W28631  14.914   4.601  14.221 -0.1087 -0.2654  0.1833
13015W        W28632   7.403   5.394   4.070  0.0007 -0.1542  0.2162
13016W        W28633   8.208   5.886   0.567 -0.1288  0.0617 -0.1447
13017W        W28634   2.448  17.954  13.681 -0.0302  0.1492  0.0976
13018W        W28635   7.168  17.419   4.630 -0.1804  0.1134 -0.2821
13019W        W28636   9.251   7.079  15.030 -0.2286  0.0720  0.2192
13020W        W28637  15.281   7.776   1.688 -0.1373  0.1358 -0.4057
13021W        W28638   1.455   8.644  14.509  0.0948  0.0074  0.0038
13022W        W28639   9.134  11.104   1.465 -0.2962  0.2993 -0.1785
13023W        W28640  13.874  11.136  12.112 -0.0857  0.2019  0.0708
13024W        W28641   6.880  16.997   6.264  0.5864 -0.2847  0.0381
13025W        W28642   6.019  14.387   3.790 -0.1375  0.1259 -0.0753
13026W        W28643   4.645  17.209  10.533 -0.0207 -0.2006  0.1447
13027W        W28644   4.578   5.157   3.542 -0.0354  0.0433 -0.0117
13028W        W28645  16.431  15.183  14.111 -0.0011  0.0625  0.0977
13029W        W28646  17.871   3.637  14.344 -0.2258 -0.0192 -0.1886
13030W        W28647  15.160   0.222   1.569  0.0324  0.0040  0.2692
13031W        W28648   6.982   3.562  12.522 -0.0725  0.2143 -0.3457
13032W        W28649  16.221  11.224   2.672  0.2002 -0.0246 -0.2521
13033W        W28650   1.614   1.973  15.986 -0.1591  0.1836 -0.1359
13034W        W28651  14.661   3.226   4.244  0.1553 -0.2991 -0.3204
13035W        W28652   6.804  17.810   3.177 -0.0367 -0.0291  0.2033
13036W        W28653  10.264   8.045  14.405  0.0791  0.1367  0.0072
13037W        W28654  14.103  14.732   2.900  0.0152  0.2249 -0.0559
13038W        W28655  15.212   8.375  15.052 -0.3177 -0.1419 -0.0540
13039W        W28656   9.646  12.516  13.047  0.0328 -0.2630 -0.4693
13040W        W28657  14.091   8.941  11.714 -0.2224 -0.0408 -0.0197
13041W        W28658  11.772   6.768   0.817 -0.2369  0.3251  0.0474
13042W        W28659  14.126   6.797   5.038  0.0518  0.0838  0.1631
13043W        W28660   2.302   5.996  13.445  0.0133  0.1597 -0.1505
13044W        W28661   9.069  14.030   0.256  0.2376 -0.0811  0.0972
13045W        W28662   3.712  15.571   0.745 -0.1199  0.2591 -0.0874
13046W        W28663   4.024   7.712  10.987 -0.1416  0.1249 -0.1236
13047W        W28664  10.855  12.144  15.304 -0.1654  0.1544 -0.2025
13048W        W28665   1.060   4.944   4.808  0.2498  0.1420 -0.1245
13049W        W28666  15.246   4.226  15.000 -0.0899 -0.2230  0.2305
13050W        W28667  18.043  17.926  11.817  0.2695 -0.3307 -0.0999
13051W        W28668  10.015  18.457   4.012  0.1997  0.0411  0.0124
13052W        W28669   3.850  16.085   0.970  0.0933  0.1250  0.2949
13053W        W28670   2.335   0.025  15.776  0.1033  0.3614  0.2743
13054W        W28671   8.577  13.831   4.028 -0.0253 -0.2725  0.1044
13055W        W28672  13.443  17.255   0.713 -0.0150  0.1592  0.1079
13056W        W28673  17.552  16.216  12.959  0.2791  0.2707 -0.1689
13057W        W28674  11.342   1.400  15.373  0.1602  0.1192  0.0699
13058W        W28675   8.960  10.308   4.499  0.0954  0.5652  0.0635
13059W        W28676   4.596   2.760   4.309 -0.0479  0.0366 -0.1577
13060W        W28677   5.321  13.606   2.327 -0.1029  0.3162 -0.0585
13061W        W28678   7.840   7.243  13.901 -0.3441 -0.4234  0.3371
13062W        W28679   4.374  14.805  14.749 -0.2737 -0.0436 -0.0943
13063W        W28680   0.123   0.376  13.279 -0.2405  0.4317  0.1806
13064W        W28681  12.117  17.464  12.185 -0.0159  0.0049 -0.3000
13065W        W28682  15.968  18.199   0.479 -0.1532  0.0401 -0.1453
13066W        W28683   5.526   1.584  11.083 -0.0305 -0.1434 -0.0140
13067W        W28684   5.318  17.762  14.525  0.2648  0.2798  0.2986
13068W        W28685  15.027  18.180   3.239  0.3146  0.2352  0.3507
13069W        W28686   5.738  10.637   1.766  0.3016 -0.0609  0.2912
13070W        W28687   9.687   3.024   2.421  0.2619  0.0011  0.0594
13071W        W28688  15.968   7.285  12.112  0.0811 -0.1427 -0.0313
13072W        W28689   9.599   7.226  11.464 -0.3470 -0.3843 -0.1304
13073W        W28690  15.261   9.804  11.058  0.3230 -0.4005 -0.1866
13074W        W28691  13.209   8.383  11.537 -0.0080 -0.1052 -0.1766
13075W        W28692  15.090  11.877   1.094 -0.2575  0.1309 -0.1257
13076W        W28693   1.615   7.765  11.429 -0.1083 -0.0194  0.0680
13077W        W28694  18.089   5.193   3.974 -0.0363 -0.1626  0.4869
13078W        W28695   6.421   0.031  13.891 -0.0546  0.0801  0.3277
13079W        W28696  17.949   6.479   3.874  0.2135 -0.2652 -0.0456
13080W        W28697   4.785   4.649  13.768  0.2853  0.2994  0.1092
13081W        W28698   0.533   8.918   0.369 -0.2723  0.3520 -0.1103
13082W        W28699   3.001   6.669   0.782 -0.4380  0.0103 -0.1939
13083W        W28700  15.846   8.880  14.611  0.1767 -0.2449  0.2645
13084W        W28701  13.132  17.660  12.083  0.1517 -0.1467  0.0889
13085W        W28702  10.259   6.045   4.826  0.1403 -0.0265 -0.0745
13086W        W28703  14.028  17.360  12.885  0.0126  0.1013 -0.0158
13087W        W28704  10.530  17.582   3.094 -0.2796  0.0663 -0.1029
13088W        W28705  13.556  13.312   5.219  0.0779  0.0116  0.2015
13089W        W28706  13.840   9.668  11.026  0.0288 -0.0843 -0.0812
13090W        W28707  14.190   9.770   2.134 -0.0577 -0.0231 -0.1434
13091W        W28708  15.577  15.345   2.878  0.4113 -0.3437  0.1026
13092W        W28709  14.405   6.340  10.573  0.2764 -0.0123 -0.0010
13093W        W28710  12.179   0.428   3.773 -0.1110  0.2899 -0.1205
13094W        W28711   4.337   6.208  12.016  0.2129  0.0886 -0.1709
13095W        W28712   7.347   5.058  12.763 -0.2004 -0.0434 -0.2936
13096W        W28713  12.294  11.917   1.402  0.0126 -0.0188  0.4964
13097W        W28714   7.444  15.724   3.798 -0.3048  0.2454 -0.1568
13098W        W28715   4.331   9.859   0.861  0.3222  0.2479  0.1139
13099W        W28716   7.372  14.280   4.065  0.1669  0.1202  0.1459
13100W        W28717  17.997  12.261  15.951 -0.0478  0.2934  0.0588
13101W        W28718  13.702   9.029   0.095  0.0341  0.0792  0.0283
13102W        W28719   9.290   2.087   3.721  0.0660  0.1647 -0.1507
13103W        W28720   5.415   9.609   5.191 -0.4242  0.1707 -0.1187
13104W        W28721   5.626   1.296  15.256 -0.1658 -0.2009  0.1581
13105W        W28722  15.743   2.645  14.315 -0.1919  0.0221  0.1069
13106W        W28723  18.232   2.154  13.342  0.0651  0.1584 -0.2327
13107W        W28724   2.083   3.140  15.359 -0.2550  0.0615 -0.1247
13108W        W28725  10.081   1.840   4.944 -0.0420  0.1638  0.0472
13109W        W28726  16.412  12.778   3.423 -0.3063 -0.0299  0.1874
13110W        W28727   9.481   5.038  10.770  0.2099 -0.2573  0.1128
13111W        W28728  16.059  16.327   4.362  0.1935  0.1138  0.6334
13112W        W28729  15.412  10.240   4.344  0.1512  0.0456  0.1073
13113W        W28730   0.953   3.457  12.335  0.1936 -0.0906 -0.2509
13114W        W28731   0.126  17.838  14.882 -0.0373  0.2537 -0.1837
13115W        W28732   0.081  12.252  14.246  0.2361 -0.0570 -0.2350
13116W        W28733   5.171  17.911  15.341  0.1705  0.1733  0.1563
13117W        W28734  15.382  10.262  15.508  0.2250  0.1549 -0.1049
13118W        W28735   6.709  15.472   1.458 -0.2688  0.1264 -0.0002
13119W        W28736  16.185  17.284   0.652  0.2210  0.3461 -0.1193
13120W        W28737  17.424  16.452  14.110 -0.0830 -0.2927 -0.1618
13121W        W28738   4.598  11.876   1.652  0.0321  0.2545 -0.1684
13122W        W28739  17.719  17.371  11.467  0.0296  0.2080 -0.1695
13123W        W28740   1.624  15.735   4.042 -0.2520 -0.4193  0.2046
13124W        W28741  14.993  17.643  11.819 -0.2597  0.0768 -0.0108
13125W        W28742  10.154   3.059   0.585  0.4006 -0.0647 -0.1439
13126W        W28743  15.040   2.092  13.673 -0.2708 -0.5006  0.0329
13127W        W28744  12.675  17.174  12.608  0.2350  0.0884 -0.0726
13128W        W28745   5.197  12.851  10.669 -0.0956  0.0254 -0.2608
13129W        W28746  15.601   1.913   3.276  0.2187 -0.0611  0.0289
13130W        W28747  10.611   6.226  15.809  0.0559  0.0269  0.0376
13131W        W28748  16.099  10.736   4.547 -0.0738  0.2718  0.0809
13132W        W28749   7.183  15.295   3.668  0.1903  0.2085  0.2488
13133W        W28750   3.079   0.536  12.072 -0.1937  0.0048  0.0453
13134W        W28751  15.412  10.680  11.241 -0.0804  0.0795  0.4019
13135W        W28752  16.144   7.719  15.047  0.0244 -0.0299 -0.3005
13136W        W28753  16.115   9.712  11.604  0.1208 -0.2083 -0.2934
13137W        W28754   4.728   1.082   5.628  0.0468  0.0018  0.0913
13138W        W28755   2.819  15.399  13.934 -0.0369  0.2340 -0.1562
13139W        W28756   3.365  10.391   3.952 -0.2196 -0.0760  0.0250
13140W        W28757  11.322   6.351  14.070 -0.2291 -0.1939 -0.2436
13141W        W28758  10.571  14.000   1.983 -0.1678  0.0701  0.1259
13142W        W28759  10.467   9.546  15.115  0.0241  0.3213 -0.3510
13143W        W28760  17.517   8.470  12.993 -0.0856  0.1125 -0.3370
13144W        W28761   3.862   3.524   4.910 -0.0255 -0.2074 -0.0262
13145W        W28762  11.198   6.610  12.704 -0.3142 -0.4363 -0.2072
13146W        W28763  15.263  11.374   1.033  0.3768 -0.1132  0.0841
13147W        W28764  17.146   6.715   4.025  0.0119  0.2400  0.1890
13148W        W28765   1.620   1.024   0.797 -0.2683 -0.1619 -0.0581
13149W        W28766  16.307  11.465  11.310 -0.1584 -0.2084 -0.1794
13150W        W28767   3.997  10.666  15.649 -0.3190 -0.1870 -0.2516
13151W        W28768  17.942  12.607  15.533  0.2317  0.1946  0.0275
13152W        W28769   0.821   9.882  13.760  0.0476 -0.2042  0.2869
13153W        W28770   2.737  15.739  15.240 -0.1394 -0.2461 -0.1722
13154W        W28771  16.380   6.273  11.952 -0.0613 -0.0725  0.0841
13155W        W28772  17.043  10.407   3.697  0.1767  0.0253 -0.1108
13156W        W28773  11.080  10.655   1.234 -0.1015 -0.1753  0.1892
13157W        W28774   3.096   9.940  10.879  0.0443 -0.1641 -0.1337
13158W        W28775   3.488   5.016   1.269  0.0106  0.0932 -0.2685
13159W        W28776   0.237   0.697   5.134  0.3373  0.0607 -0.3200
13160W        W28777  14.738  13.032  13.140 -0.2581 -0.1055  0.3067
13161W        W28778  12.783   9.536  15.233  0.0814 -0.0606  0.4863
13162W        W28779   1.928   8.645  12.873  0.0231 -0.0876  0.1214
13163W        W28780   2.987  17.584  15.691 -0.0029 -0.1976 -0.3187
13164W        W28781   9.423  11.447   2.345  0.2491  0.3011 -0.2855
13165W        W28782   6.806  18.194   5.268 -0.1537  0.2316 -0.2276
13166W        W28783  13.179  12.676   0.651  0.0753  0.3855 -0.0419
13167W        W28784   7.317   8.849  13.202 -0.0431 -0.1193 -0.0903
13168W        W28785  12.222   3.689  13.255  0.0403 -0.2190  0.1040
13169W        W28786   7.103   0.414  14.409 -0.0684 -0.0624  0.0882
13170W        W28787  13.261  13.435  11.270 -0.0316 -0.1197  0.0487
13171W        W28788  17.851  13.394  15.483  0.1152 -0.0759  0.1122
13172W        W28789  12.896  15.342  13.277  0.0430 -0.1551 -0.2926
13173W        W28790   3.545   7.211   4.051 -0.1142  0.2099  0.4558
13174W        W28791  16.486   6.030   0.577 -0.0190 -0.1410 -0.1212
13175W        W28792   1.044  14.970   2.902 -0.0766 -0.1897 -0.2981
13176W        W28793   6.665  13.078   1.520 -0.0511 -0.0669 -0.2074
13177W        W28794   4.882   2.480   1.190  0.0775  0.2050  0.1959
13178W        W28795  18.260   9.461   1.852 -0.4599  0.3049  0.0117
13179W        W28796   3.177   6.170  13.495  0.5976  0.1895 -0.1693
13180W        W28797  12.980  17.305   3.665  0.1542 -0.0618  0.1299
13181W        W28798  15.150  16.619   0.497 -0.1610 -0.2659 -0.1936
13182W        W28799   1.281   4.971   5.251 -0.1516  0.0522 -0.1320
13183W        W28800   5.866  10.534  12.102  0.1815  0.0164  0.0171
13184W        W28801  18.245   9.195  14.738  0.1433  0.0093  0.1643
13185W        W28802   6.613   0.514  15.658  0.2731 -0.1777 -0.1537
13186W        W28803  17.117   2.118   4.626  0.1405  0.0893 -0.3228
13187W        W28804   8.939   8.107   4.618  0.1675  0.0706  0.0608
13188W        W28805   1.741  11.756   2.068 -0.0864 -0.0145  0.1017
13189W        W28806   9.932   0.792   2.000 -0.0713 -0.1061  0.1008
13190W        W28807  15.370   7.512   3.184 -0.2119 -0.2247 -0.4975
13191W        W28808   1.476  17.828   2.149 -0.1505 -0.1585 -0.0252
13192W        W28809   3.602   6.508   2.528  0.6757  0.1817  0.0429
13193W        W28810   9.285   9.353   3.784 -0.0521 -0.1039 -0.2503
13194W        W28811   4.307  11.731  14.002  0.2245  0.1712  0.0271
13195W        W28812  14.516   2.764  13.100 -0.0786  0.2568  0.2103
13196W        W28813   0.793  12.894  12.866  0.1753  0.2558 -0.1310
13197W        W28814  16.909   0.186   5.045 -0.2034  0.1744 -0.0709
13198W        W28815   3.955  17.387   0.680  0.1387 -0.1190 -0.2042
13199W        W28816  17.719   6.531  13.260 -0.2569  0.2005  0.1212
13200W        W28817  18.093   5.279   2.078 -0.0671 -0.2488  0.1311
13201W        W28818   3.502  15.778   3.053  0.1012 -0.5086  0.0992
13202W        W28819   9.822   5.582   3.970 -0.0842  0.1639  0.0092
13203W        W28820  11.831  18.392  14.467 -0.0370  0.3756  0.1264
13204W        W28821   1.192   3.156   5.477  0.3454  0.3106 -0.1306
13205W        W28822   8.451   6.595  13.775  0.1629  0.1577  0.0061
13206W        W28823   5.573  12.104  13.854 -0.1025  0.0607 -0.3610
13207W        W28824   4.614   6.847   4.087 -0.1861  0.2665  0.0493
13208W        W28825  12.924  18.290   2.256  0.3487  0.2296  0.1894
13209W        W28826  14.346  10.302   4.721 -0.0052  0.3842 -0.0789
13210W        W28827  16.215   4.969  15.046 -0.3604 -0.2193 -0.2147
13211W        W28828   5.521  15.467   4.339  0.0630 -0.1394 -0.1699
13212W        W28829   2.033   5.589   5.015  0.0627  0.1440 -0.3067
13213W        W28830  13.859  13.214  12.511  0.2350  0.0323  0.1817
13214W        W28831  17.965  16.641  14.374  0.2642  0.3452 -0.0126
13215W        W28832  15.786   1.169  11.371  0.0199  0.1362 -0.1641
13216W        W28833   5.226  14.626  15.087 -0.0632  0.2157 -0.0157
13217W        W28834  17.516  15.315  12.671  0.0535 -0.0639 -0.0015
13218W        W28835   2.870  15.527  15.722  0.1663 -0.0325 -0.0643
13219W        W28836  10.005   7.289  13.838  0.0019  0.0142  0.3436
13220W        W28837   9.903  18.370  15.822  0.0005  0.0613  0.3556
13221W        W28838   1.661   9.718  13.237 -0.2591  0.2030  0.0855
13222W        W28839   9.663   6.319  11.625  0.1626 -0.2866  0.1233
13223W        W28840   3.853   8.745  13.341 -0.0860  0.2698 -0.0981
13224W        W28841   0.022   4.261  14.909 -0.4130 -0.0007  0.1063
13225W        W28842  17.985  10.501   1.062 -0.2703 -0.1645  0.0266
13226W        W28843   1.043   1.494   2.085 -0.2254  0.0031 -0.1750
13227W        W28844   6.122  13.713   0.537 -0.0103  0.3155 -0.0422
13228W        W28845   0.891   7.339  13.480  0.2564  0.2469 -0.0864
13229W        W28846   9.996   6.512   3.676  0.0758 -0.3156 -0.0548
13230W        W28847  10.734  16.501   1.729  0.5096 -0.0443  0.1194
13231W        W28848   5.309  12.731  13.165  0.2295  0.0090  0.0120
13232W        W28849  16.915  17.167   5.640 -0.1425  0.4166 -0.1503
13233W        W28850  15.679   9.386   2.703 -0.1238 -0.0746 -0.3838
13234W        W28851  18.112  17.310  13.424  0.5394 -0.2285 -0.0084
13235W        W28852   0.874   5.742   3.450  0.0431  0.1727  0.1882
13236W        W28853   4.975  15.111   5.470  0.0709 -0.2670  0.2441
13237W        W28854  13.533   4.066   3.700  0.1892  0.0019  0.2996
13238W        W28855   9.087  10.411  10.730  0.0230 -0.0583  0.3204
13239W        W28856   3.530   1.157  12.437  0.2617  0.2371 -0.1148
13240W        W28857   9.584   0.077  11.460 -0.0676 -0.0671  0.1899
13241W        W28858  17.789  11.606   2.052  0.0591  0.1254  0.0348
13242W        W28859  12.995  13.307   0.807 -0.1872  0.0159 -0.0528
13243W        W28860   8.804   0.530  13.754  0.0116 -0.1443  0.0544
13244W        W28861   6.461   2.630   0.084 -0.1844  0.2247 -0.1283
13245W        W28862  17.372   9.408   4.337  0.2472 -0.0857  0.1118
13246W        W28863   5.584  16.323  13.749 -0.2444  0.0903 -0.0357
13247W        W28864   5.320   0.849  15.146  0.0461 -0.2629 -0.1435
13248W        W28865  13.495  12.448   5.386 -0.0777  0.0654 -0.1218
13249W        W28866  11.215   9.346   3.789  0.0098 -0.1110  0.1588
13250W        W28867   7.394  11.336   5.843  0.1100 -0.1420 -0.0529
13251W        W28868   6.174  15.673  14.531  0.2608  0.3759  0.4245
13252W        W28869  10.645  18.297  11.945 -0.1628  0.1419  0.2403
13253W        W28870   9.849   9.840  12.534 -0.4051 -0.2659  0.2603
13254W        W28871   0.759   4.094   4.832  0.2058 -0.1521 -0.0151
13255W        W28872   6.038  11.082  11.693 -0.0226 -0.0198  0.1152
13256W        W28873  17.621   4.016   1.399 -0.0218 -0.0699 -0.0616
13257W        W28874   5.871  12.348   1.231  0.0752  0.0314 -0.1193
13258W        W28875   1.476   9.770   3.541 -0.1201  0.0332 -0.0232
13259W        W28876   8.917   2.967   4.867  0.1112  0.0129 -0.0863
13260W        W28877   6.698  10.920   2.978 -0.1289  0.0932 -0.1724
13261W        W28878   9.223   9.960  13.027 -0.2823 -0.0508 -0.2614
13262W        W28879   4.338   0.260   0.458  0.2075 -0.0054 -0.0822
13263W        W28880  18.231  15.990   2.724  0.0065 -0.0275  0.1765
13264W        W28881  13.718   8.617  14.186  0.1021 -0.4639  0.4696
13265W        W28882   7.662  16.952  15.376  0.2951  0.2257 -0.0476
13266W        W28883   3.162   0.473   4.546  0.2364  0.1008 -0.0810
13267W        W28884  12.180   0.397   2.001 -0.2137  0.0440  0.0337
13268W        W28885   6.134  16.018   2.028  0.1863 -0.1863  0.1112
13269W        W28886  13.987   1.422   2.903  0.1386  0.1837  0.4775
13270W        W28887   0.454   3.994  10.439  0.0115  0.1820 -0.4631
13271W        W28888   3.328   3.311   2.099  0.4327  0.0801  0.0506
13272W        W28889   4.659  13.978   3.546  0.2751 -0.0446 -0.2962
13273W        W28890   5.797   0.577   4.253 -0.2012  0.3641 -0.1435
13274W        W28891   3.752  12.021  16.129  0.0980  0.1313  0.1001
13275W        W28892  12.985  17.590  15.100 -0.1956  0.1453 -0.0622
13276W        W28893   6.779  18.398   6.191  0.2602 -0.0774 -0.2247
13277W        W28894   7.399  18.350  13.760 -0.0318  0.2620  0.0246
13278W        W28895  10.929  17.808  14.790 -0.4185 -0.0595 -0.0610
13279W        W28896   2.655  10.815  14.824 -0.2625  0.0789 -0.1664
13280W        W28897   6.323   0.934  14.763  0.2601 -0.1311 -0.0150
13281W        W28898   7.470  12.600  15.294  0.0642  0.1203 -0.0170
13282W        W28899  12.118  11.589  11.391 -0.2221 -0.0077 -0.1036
13283W        W28900   8.315   1.796   5.831 -0.1066  0.3353 -0.0537
13284W        W28901   0.528   4.870   0.503  0.1664  0.1991 -0.3117
13285W        W28902   0.817   2.418   3.972 -0.2548 -0.2511  0.0739
13286W        W28903  17.657  14.448   4.703 -0.1885 -0.1236  0.3025
13287W        W28904  13.784   8.394  15.588  0.1781  0.0652 -0.1897
13288W        W28905   1.842  14.840  11.290 -0.0546  0.0222  0.1228
13289W        W28906  14.402  16.235  12.975 -0.1664  0.2029 -0.0845
13290W        W28907   1.188  11.941   5.622 -0.1829 -0.2326  0.0802
13291W        W28908  12.187   7.072   0.574 -0.0079 -0.1928  0.4075
13292W        W28909   1.474  16.888   4.593  0.1776 -0.0923  0.4013
13293W        W28910  12.486  14.486  12.587 -0.0280  0.2731  0.4080
13294W        W28911   3.126   6.211  14.886 -0.0172  0.0244 -0.2719
13295W        W28912  12.555   7.316  14.098  0.1872  0.3684  0.3282
13296W        W28913   0.596   8.568  12.827  0.2119 -0.2223 -0.0835
13297W        W28914   1.445   7.222   3.099  0.1283 -0.2072 -0.0465
13298W        W28915  10.623  12.553  14.062  0.1220  0.1780 -0.2154
13299W        W28916  11.710  11.995  15.386  0.0099 -0.2414 -0.0548
13300W        W28917   4.143   0.242  14.419  0.2368  0.1734  0.3314
13301W        W28918  12.776  16.968  10.149  0.2066 -0.1150  0.1025
13302W        W28919  17.605  12.895  10.653  0.0234  0.2299  0.1494
13303W        W28920   3.768  12.447   3.582  0.0026 -0.1656  0.1480
13304W        W28921  14.538   3.356  15.016  0.0293  0.3479  0.2653
13305W        W28922  17.409   6.917  15.774  0.2158 -0.0566  0.0463
13306W        W28923  15.656   1.043   4.901  0.0456 -0.1617 -0.0537
13307W        W28924  11.488   5.247  12.997 -0.1483 -0.1093 -0.1402
13308W        W28925  14.349  17.935  12.579 -0.0722  0.0675  0.1369
13309W        W28926  14.889  15.927   6.042 -0.1537 -0.0458 -0.1234
13310W        W28927  11.136   2.787   1.485  0.0397  0.1993 -0.1174
13311W        W28928   1.394   1.411  12.018  0.2322  0.1796  0.5269
13312W        W28929   4.134   7.138  10.955  0.2421 -0.1577 -0.2656
13313W        W28930   4.963   7.220   1.225  0.0713  0.1711  0.0021
13314W        W28931  13.428   9.791  14.256  0.0754 -0.1123 -0.0401
13315W        W28932   5.928  17.891   0.878  0.1757  0.0207 -0.2399
13316W        W28933   9.616   8.972   0.490 -0.0500  0.4891  0.2697
13317W        W28934  10.501  16.026   4.428 -0.0548 -0.0187  0.2514
13318W        W28935  12.048   9.762  10.912  0.0911  0.2681  0.1588
13319W        W28936   9.474  13.107  13.669 -0.0853  0.0793  0.0917
13320W        W28937   6.984  15.770   3.569 -0.1528  0.1519  0.2097
13321W        W28938  18.043  10.154   5.870 -0.0132  0.0229  0.2379
13322W        W28939   2.887  10.425   3.720 -0.2549  0.2737  0.2918
13323W        W28940  15.092  12.797  15.733 -0.2800 -0.1119 -0.2871
13324W        W28941  15.136   8.074  11.612  0.1640 -0.0550 -0.3060
13325W        W28942   5.006   5.970   1.203 -0.0193 -0.2709 -0.0704
13326W        W28943  11.377   9.610   3.265  0.0546 -0.0249 -0.2829
13327W        W28944   8.127  11.649  13.281 -0.0299  0.0977  0.2804
13328W        W28945   3.878  17.314  14.875  0.0968 -0.1980 -0.0641
13329W        W28946   3.864   0.495   3.455 -0.0637  0.1608  0.1789
13330W        W28947   3.861   0.004  12.080  0.1456 -0.0325 -0.0259
13331W        W28948   9.768  11.156   5.359 -0.0919 -0.0675 -0.0992
13332W        W28949  12.604   4.268  10.684  0.0880  0.3543 -0.1692
13333W        W28950   0.763   0.944  13.870 -0.0323  0.2527  0.1739
13334W        W28951   0.155   1.276  13.325 -0.1378 -0.3398  0.2187
13335W        W28952   9.529  11.612  15.009  0.1034 -0.0249  0.1845
13336W        W28953  17.441  18.190   1.319 -0.1674  0.0086 -0.1025
13337W        W28954   1.988   3.743  14.724 -0.2222  0.0279  0.0747
13338W        W28955  15.832   5.983   1.352 -0.0460  0.1300  0.1418
13339W        W28956  12.615  11.544  14.043 -0.0296  0.0667  0.1203
13340W        W28957   0.650  12.935   5.441 -0.0515 -0.1975 -0.0162
13341W        W28958  14.640   4.506  12.217 -0.1975 -0.0732  0.3477
13342W        W28959   1.278  10.370  11.079 -0.0993  0.2872 -0.3554
13343W        W28960   9.735   3.394  10.076  0.1156  0.0659 -0.2917
13344W        W28961  11.941  16.663   5.070 -0.3638  0.2815 -0.1667
13345W        W28962   1.237   7.937   3.857  0.2681 -0.1090  0.1364
13346W        W28963   4.070   2.919  13.260 -0.0178  0.3113  0.0252
13347W        W28964  12.123  14.713  11.785 -0.0540 -0.0241  0.1935
13348W        W28965   6.848   4.463   4.074  0.0461 -0.2696 -0.0387
13349W        W28966  12.900  18.431  14.674  0.0157 -0.2612  0.0075
13350W        W28967  17.796  15.831   2.876  0.1181 -0.2831  0.2392
13351W        W28968   3.696  13.355   2.379 -0.0797 -0.5253 -0.3367
13352W        W28969  11.362  14.413  11.438  0.4073  0.0893 -0.0843
13353W        W28970  17.627  15.744  14.650 -0.2742  0.2194  0.0267
13354W        W28971  12.328  17.053  11.302 -0.2030  0.3570 -0.0046
13355W        W28972  16.307   9.833   0.898 -0.2078 -0.0295  0.0270
13356W        W28973   1.357   6.978  13.603 -0.0707  0.1674 -0.0760
13357W        W28974  18.380   8.772  13.209  0.4414  0.0536 -0.1041
13358W        W28975   8.628   9.664  11.317  0.0761  0.2399  0.1300
13359W        W28976   0.716   9.131   4.938  0.1710 -0.2415 -0.0693
13360W        W28977   7.594   6.784   9.712 -0.1519  0.0942  0.3319
13361W        W28978   7.889  15.556  12.814  0.1728  0.0853 -0.4154
13362W        W28979  14.788   6.752  14.662 -0.4196 -0.2259 -0.0866
13363W        W28980  10.911  17.575   4.862 -0.3995 -0.3447 -0.2419
13364W        W28981  10.497   9.405  11.004 -0.0194 -0.1113 -0.2622
13365W        W28982  12.910   9.781  11.903  0.1494 -0.1487 -0.1449
13366W        W28983   8.664   7.783   4.321  0.1034  0.0529 -0.5635
13367W        W28984  11.967   9.210  13.450  0.0955 -0.0833 -0.0601
13368W        W28985   0.372   0.584   1.959 -0.0652 -0.3329 -0.1663
13369W        W28986   4.402  16.947  14.140  0.0321  0.1977 -0.1622
13370W        W28987   0.001   0.562  11.604 -0.1735 -0.0367 -0.3403
13371W        W28988   4.858   0.761  13.073  0.1444 -0.1888 -0.1766
13372W        W28989  10.726   0.280  11.328 -0.1925 -0.1812 -0.2730
13373W        W28990   8.737  11.502   4.249  0.4308  0.3928  0.0583
13374W        W28991  17.420  12.157  11.822 -0.0294 -0.2919 -0.0961
13375W        W28992  13.046  12.043   3.690  0.0035 -0.0889 -0.2867
13376W        W28993  18.250   4.173  14.474  0.4167  0.0289 -0.2574
13377W        W28994  13.039  17.058  15.064 -0.1652 -0.0638 -0.0114
13378W        W28995   0.579  15.289  12.713  0.1595 -0.2631  0.3653
13379W        W28996   6.126   4.950   1.866  0.1244 -0.2008  0.1941
13380W        W28997  16.310   3.773   3.214 -0.3111  0.2209 -0.0934
13381W        W28998  15.313   1.669   2.002 -0.2874  0.2288 -0.4280
13382W        W28999   9.120  15.144  15.546  0.1055  0.0559  0.0399
13383W        W29000  10.853  17.946  10.900  0.0682  0.0555 -0.4009
13384W        W29001   4.219   3.799   2.244  0.2251 -0.3457 -0.0190
13385W        W29002  12.407  11.001   6.102 -0.0134 -0.1593 -0.0565
13386W        W29003  17.870   9.282   2.054 -0.4112  0.0669 -0.1746
13387W        W29004   8.819   6.469  10.054  0.2995  0.3131  0.2986
13388W        W29005  16.038  12.398   1.239 -0.2115 -0.0815 -0.0271
13389W        W29006  15.659  15.120  10.258  0.2803  0.0144 -0.2627
13390W        W29007   6.969   5.900  15.040  0.1046 -0.1431  0.1175
13391W        W29008   7.721   6.539  10.740 -0.2764  0.1669  0.1333
13392W        W29009   8.611  15.026   2.890  0.2767 -0.2429 -0.2274
13393W        W29010  17.774   7.442   2.182  0.0212 -0.0668  0.2037
13394W        W29011  11.731  15.448  11.902 -0.0524  0.2874 -0.1073
13395W        W29012  10.991  15.693   0.961 -0.1121  0.0423 -0.1222
13396W        W29013   4.885   0.008   1.199 -0.0206 -0.0122 -0.0575
13397W        W29014  17.549  17.688   3.505  0.2081 -0.0869  0.0857
13398W        W29015   7.848  10.478   3.970 -0.0094  0.1430 -0.0623
13399W        W29016  17.547   8.393   1.034 -0.2725  0.2494 -0.1238
13400W        W29017   4.541   6.894   1.289 -0.1159  0.0572 -0.2499
13401W        W29018  14.270   4.265   5.708 -0.2879 -0.0465 -0.0403
13402W        W29019  15.812  14.740  15.211 -0.2595 -0.2786 -0.1838
13403W        W29020   2.848   0.108   4.453 -0.3713  0.0284  0.1057
13404W        W29021   8.513  16.213   2.079 -0.2525  0.1034 -0.3469
13405W        W29022  18.068   3.630  12.378 -0.0538 -0.2730  0.3785
13406W        W29023   6.670   1.564   1.519  0.1938 -0.1664 -0.0038
13407W        W29024   1.690  18.290  15.092  0.0236 -0.1096  0.1365
13408W        W29025  11.227  15.241   2.304  0.0309 -0.1296  0.1374
13409W        W29026   9.911  11.137  11.825  0.0335  0.0944  0.2483
13410W        W29027   3.750   5.514   1.376  0.0055 -0.0876 -0.1860
13411W        W29028   2.326  15.048   2.482 -0.0673 -0.2146 -0.4155
13412W        W29029  16.797  16.700  14.985  0.1424 -0.0025  0.1706
13413W        W29030  11.574  10.888   3.397 -0.1763  0.1093 -0.2174
13414W        W29031   8.921   2.288   3.141 -0.1137  0.0080  0.3412
13415W        W29032  14.340  14.979   5.061 -0.1441  0.3550  0.0563
13416W        W29033   9.235   5.512   1.299 -0.0294 -0.1955 -0.1110
13417W        W29034  18.120   5.629  13.168 -0.0630  0.1046  0.0497
13418W        W29035  16.842  11.447  13.834 -0.3764  0.3896 -0.3029
13419W        W29036   8.053   7.319   3.702 -0.0286 -0.0874 -0.1443
13420W        W29037   4.207  15.587   2.458 -0.0007  0.1371  0.3863
13421W        W29038   9.357  14.613   5.196  0.1176 -0.0713 -0.2163
13422W        W29039  15.021  12.918   3.367 -0.0015 -0.0225 -0.1960
13423W        W29040   0.515   9.268  15.297  0.1709  0.2056 -0.1073
13424W        W29041   5.504   1.343   1.337 -0.2625 -0.1497 -0.1159
13425W        W29042   0.216   2.799  12.648  0.0349  0.0411 -0.1075
13426W        W29043   9.627  15.698   3.037  0.0304 -0.0514  0.0537
13427W        W29044   6.730   9.474  14.896 -0.0069 -0.0515 -0.0925
13428W        W29045  16.952  12.211  11.903 -0.2424  0.0576  0.0614
13429W        W29046   1.677  16.265   3.896  0.4260  0.0223 -0.2636
13430W        W29047  14.432   6.463  12.894  0.1363 -0.0626  0.0099
13431W        W29048   6.846   5.991   3.680  0.1551  0.2328  0.0018
13432W        W29049  10.867  12.531   5.508 -0.4382 -0.2004  0.0313
13433W        W29050  17.133   2.355   5.067 -0.1370 -0.1820 -0.4399
13434W        W29051   9.406   6.867  12.348 -0.0813  0.0490 -0.2499
13435W        W29052   6.289   4.654   4.754  0.2282  0.0003  0.1469
13436W        W29053   5.115  12.890   5.064 -0.1795  0.1991 -0.0105
13437W        W29054   6.430   0.188  12.247 -0.0043 -0.0259  0.1061
13438W        W29055  17.713   5.720   3.335  0.1738  0.0943  0.3171
13439W        W29056   0.458  17.897   5.594  0.2396 -0.3179 -0.1014
13440W        W29057  15.673   5.930   5.075  0.0901 -0.1459  0.0747
13441W        W29058   1.232  13.643   5.207  0.4151  0.2818 -0.2677
13442W        W29059  17.088   1.722   4.125 -0.0428 -0.0876  0.0376
13443W        W29060   1.996   8.636  13.393  0.2667 -0.1068  0.1668
13444W        W29061  16.329   9.872  11.189  0.0307 -0.2013  0.1043
13445W        W29062   6.619  10.389  14.679 -0.0757  0.2951 -0.2181
13446W        W29063   0.754   3.652   1.867 -0.0492  0.0981  0.1560
13447W        W29064   1.932   1.200  14.333  0.2873  0.1734  0.0311
13448W        W29065   1.008   0.980  14.556  0.0786 -0.2212 -0.0628
13449W        W29066   1.586   7.140   3.968  0.2798 -0.0394  0.2830
13450W        W29067   7.686  16.251  15.943 -0.1975 -0.1082 -0.3493
13451W        W29068  12.408  15.272   0.138  0.2121 -0.3255 -0.1412
13452W        W29069  15.942   8.883  13.219 -0.1019  0.0676  0.1449
13453W        W29070  13.198   0.021   3.704 -0.0443  0.3521  0.0753
13454W        W29071  15.685   4.611  12.493  0.0794 -0.1507  0.2500
13455W        W29072  13.363   4.887   0.753 -0.2660 -0.2019  0.2230
13456W        W29073   0.793   7.397  13.980 -0.1146  0.1577 -0.0410
13457W        W29074   3.943   3.288  15.593  0.0403  0.0819 -0.0195
13458W        W29075  12.758  17.750  13.399  0.1809  0.0355  0.0259
13459W        W29076  17.803   7.160  14.257  0.1630 -0.1761 -0.0402
13460W        W29077  15.173  14.079   0.931 -0.1499 -0.0034  0.2112
13461W        W29078  16.717  17.067   4.206 -0.0658 -0.3375  0.2545
13462W        W29079  12.945  14.175  11.887  0.0434 -0.2298  0.1621
13463W        W29080  13.397  16.793   0.852  0.2539 -0.0530 -0.1758
13464W        W29081   7.741  11.399  10.448 -0.0239  0.1834  0.0793
13465W        W29082   9.987  15.001   0.916 -0.1038 -0.1837  0.1671
13466W        W29083   1.032  11.745   0.160 -0.0039  0.1450  0.0693
13467W        W29084  15.367   7.093   5.041  0.1541  0.0533 -0.1048
13468W        W29085   9.119  18.241   4.836  0.0677 -0.0241  0.0618
13469W        W29086   9.144   6.188  11.649 -0.1550 -0.0461 -0.0919
13470W        W29087   3.080  10.987   2.365 -0.0069  0.0973  0.3909
13471W        W29088  14.060   4.240   1.946 -0.0052 -0.2015 -0.2309
13472W        W29089   3.528   9.404  13.643  0.2501 -0.0009  0.2310
13473W        W29090   5.979   3.611  12.438  0.0835 -0.0516 -0.3367
13474W        W29091   7.120   4.891  13.194 -0.0628 -0.1049 -0.0164
13475W        W29092   3.136   3.949   0.979  0.1797  0.0876 -0.0917
13476W        W29093  11.598   5.314  12.272  0.0751 -0.1409 -0.1945
13477W        W29094   6.625   1.759   4.292  0.0539  0.2542 -0.1029
13478W        W29095  12.371  12.370   1.580 -0.1124 -0.3335  0.1055
13479W        W29096   7.244  16.169   4.604 -0.1621  0.2394 -0.0301
13480W        W29097  11.293   1.478   2.447  0.1197 -0.0259 -0.0859
13481W        W29098   3.025   1.781   3.029  0.2047  0.0655 -0.3276
13482W        W29099  15.942   8.491   2.987 -0.2899  0.2711 -0.2210
13483W        W29100   9.847  14.156   3.110  0.0155  0.1828  0.0838
13484W        W29101  11.679  11.856  12.778 -0.0986  0.1831  0.0570
13485W        W29102   9.794  15.629  12.434 -0.1512  0.0622 -0.1628
13486W        W29103   5.224   7.806   4.599  0.0299 -0.2348 -0.4938
13487W        W29104   2.792   0.551   0.125  0.0747 -0.0913 -0.1348
13488W        W29105   4.863  13.101   4.148  0.3266  0.3489  0.0589
13489W        W29106   2.972  11.713   3.045  0.0385  0.0320 -0.4954
13490W        W29107  13.186   4.832  12.411 -0.2226  0.0489  0.0345
13491W        W29108  17.212  13.062  13.731  0.3201  0.0913  0.2538
13492W        W29109   0.645   5.136  12.581  0.3186 -0.1113  0.0141
13493W        W29110   6.356  16.669  14.344  0.0886 -0.1691 -0.0898
13494W        W29111  11.043   2.060  12.238  0.0650  0.1487  0.2499
13495W        W29112   9.984   4.824  14.080  0.2745  0.2060 -0.1074
13496W        W29113  15.933   2.960   1.936  0.0617  0.0824 -0.0074
13497W        W29114   7.939  15.319   5.323  0.0667 -0.1205 -0.3760
13498W        W29115   0.014  18.409   0.935 -0.0879  0.0876 -0.0540
13499W        W29116  16.637  10.571  14.679  0.2674  0.1850 -0.0679
13500W        W29117  14.949  13.318   1.478 -0.1544  0.0601 -0.0035
13501W        W29118  15.133  10.741  14.874 -0.1064  0.3502 -0.1131
13502W        W29119  12.072  13.780  13.094 -0.0275 -0.0241  0.2354
13503W        W29120   4.291  12.392   2.294 -0.2796  0.1009  0.0557
13504W        W29121   1.318  10.278   5.024  0.0051  0.1196 -0.2354
13505W        W29122   7.246  11.163   1.696 -0.1808  0.0651 -0.1088
13506W        W29123   8.852   1.002  10.965 -0.4032 -0.1077 -0.1170
13507W        W29124   4.608   4.436   3.301 -0.1097  0.0810 -0.2856
13508W        W29125   3.619   5.578   0.496 -0.2057 -0.0284 -0.3718
13509W        W29126  14.170   7.737  12.537 -0.0064 -0.0087  0.1896
13510W        W29127   2.467   3.793   2.471 -0.0539  0.1373 -0.1013
13511W        W29128   5.440  17.776   1.966  0.3608  0.0320  0.1004
13512W        W29129   7.463  14.606  15.466  0.0903  0.2791  0.3010
13513W        W29130   3.385  10.654   0.116 -0.0873 -0.1423 -0.2805
13514W        W29131   5.718  17.958  15.545  0.2071  0.1273  0.1919
13515W        W29132  15.514  12.058   1.261 -0.1044  0.3167 -0.0416
13516W        W29133  16.361   4.729   2.721 -0.3208 -0.2119  0.1009
13517W        W29134   0.545  11.408   0.551 -0.2736  0.2643  0.0970
13518W        W29135   4.451   7.322   2.150 -0.0418  0.2161 -0.1679
13519W        W29136  13.848  12.468   4.060 -0.1300  0.0549  0.2496
13520W        W29137   2.816  15.417  11.173  0.2023  0.0614 -0.0185
13521W        W29138   3.039  12.272  12.357 -0.3524 -0.0042 -0.1992
13522W        W29139   8.599   7.626   0.850 -0.0443  0.0131 -0.0331
13523W        W29140   3.081  14.221   4.025  0.0444  0.2017  0.1248
13524W        W29141  13.796   9.001  14.931  0.0306 -0.2085  0.0448
13525W        W29142  14.321  11.767   1.338  0.2393  0.2736  0.2166
13526W        W29143   2.947  14.016   3.454  0.1677  0.3545  0.0898
13527W        W29144   4.239   5.730   1.391  0.0338  0.0802 -0.4656
13528W        W29145   8.042   9.380  14.869 -0.4958 -0.1613  0.0623
13529W        W29146  15.074  11.191  11.602 -0.0236  0.4306 -0.0295
13530W        W29147   2.637  18.288  14.542 -0.1212 -0.0394 -0.0982
13531W        W29148  17.304  15.824   2.651  0.1174  0.1568 -0.0746
13532W        W29149   7.446   7.316   2.378 -0.2281 -0.0049 -0.0019
13533W        W29150   4.287  15.617   5.817 -0.0426 -0.2409 -0.3073
13534W        W29151  16.053   2.187   1.539 -0.4665 -0.0197  0.1274
13535W        W29152  13.157  16.997   2.229 -0.2093 -0.1931 -0.2993
13536W        W29153  14.679  10.294   3.869  0.1203  0.2278  0.0253
13537W        W29154   3.395  16.116   5.581  0.2449 -0.0034  0.4221
13538W        W29155   5.812   1.577   5.865 -0.0664 -0.0552  0.0831
13539W        W29156   1.882  13.193  15.401  0.1824  0.0234 -0.0174
13540W        W29157  11.654  16.965   3.958 -0.2727 -0.0132  0.0556
13541W        W29158   3.405  14.943   4.582 -0.0578  0.0107  0.0531
13542W        W29159  13.768   4.762   1.968  0.0565 -0.0540 -0.0999
13543W        W29160  11.648  14.872   5.668  0.1886 -0.0383  0.2015
13544W        W29161   0.886  13.950  12.433  0.1020 -0.1474 -0.2577
13545W        W29162   4.998  15.538   3.420 -0.1285  0.2084  0.0626
13546W        W29163   7.187  13.623  13.762 -0.0239 -0.0045  0.0537
13547W        W29164   9.021   6.076  12.142 -0.0140  0.0728  0.2574
13548W        W29165   6.252   8.431  13.407 -0.0263 -0.0070  0.0832
13549W        W29166  11.618  18.383   0.676  0.2329 -0.0155 -0.1232
13550W        W29167  17.078   6.304  12.732 -0.2632 -0.1474  0.3135
13551W        W29168  18.096  13.132   0.778 -0.0308 -0.3721 -0.1113
13552W        W29169  13.287  12.271   4.338  0.4849  0.0459  0.0975
13553W        W29170  11.703   0.702  15.756  0.1582  0.1268 -0.1076
13554W        W29171   7.660  10.109  11.800  0.0094  0.3565  0.0762
13555W        W29172   4.315   4.639  13.991  0.0294  0.1667  0.3907
13556W        W29173  10.841   7.482   0.956  0.0460 -0.0307 -0.1787
13557W        W29174   9.300   0.770   4.780 -0.0499 -0.0129 -0.0288
13558W        W29175   3.741   1.261   1.052  0.1497 -0.2689  0.2457
13559W        W29176   5.637   1.566  10.574 -0.0917  0.2264 -0.1371
13560W        W29177   6.630   7.888  12.091 -0.1029 -0.0935  0.1210
13561W        W29178   4.950  16.096  15.614 -0.1493  0.0431  0.0990
13562W        W29179  10.258  10.193   1.103 -0.0313 -0.1259 -0.2532
13563W        W29180  13.233  15.986   1.006  0.3876 -0.2384 -0.0152
13564W        W29181   3.553  13.835   2.232  0.0139  0.4172  0.0302
13565W        W29182  13.594   7.011  12.046  0.3227 -0.0948  0.0637
13566W        W29183  15.730  14.938   3.324  0.1016 -0.1950  0.1106
13567W        W29184   7.265   8.308  15.271 -0.0299 -0.1115  0.1805
13568W        W29185  16.894   3.897   3.210  0.3865 -0.0798 -0.0346
13569W        W29186   2.507   1.214  14.796  0.0122 -0.0417 -0.0749
13570W        W29187  16.431  12.306  14.648  0.1684  0.3128  0.0250
13571W        W29188   3.826  12.921  11.771 -0.1544  0.0383 -0.3336
13572W        W29189  12.316   1.576   4.686 -0.0544  0.1872 -0.2607
13573W        W29190   1.112   7.660   5.275 -0.0759 -0.0105 -0.1468
13574W        W29191   8.465  16.379   5.944 -0.2762 -0.1761 -0.1138
13575W        W29192   7.777  10.812  14.097 -0.0187  0.0470  0.0670
13576W        W29193  10.607   6.612  11.027 -0.3678  0.0268  0.0562
13577W        W29194   8.436   5.776   3.448 -0.2313 -0.1027  0.0575
13578W        W29195   8.586  12.740   0.314 -0.1587 -0.1222 -0.2100
13579W        W29196  11.277  14.402  13.757  0.1297 -0.2286 -0.1074
13580W        W29197  17.705   4.484   5.314 -0.1151 -0.2103  0.2421
13581W        W29198  15.288   0.193   5.370 -0.2354  0.0057  0.2074
13582W        W29199  12.121   2.443  14.265 -0.3045 -0.0436 -0.3149
13583W        W29200   5.732  10.815   0.752  0.2485  0.1828 -0.2285
13584W        W29201   2.942  16.012   4.033  0.0230 -0.0580 -0.0107
13585W        W29202   6.461  12.702   0.230 -0.4084 -0.4648  0.0602
13586W        W29203   4.111   2.783  12.180  0.0035  0.1101  0.1209
13587W        W29204   2.755  13.230   3.095  0.2028 -0.0913 -0.1261
13588W        W29205   6.836  11.044   0.501  0.1423  0.0401  0.2005
13589W        W29206  15.002  18.212  10.948  0.1177 -0.0518  0.1484
13590W        W29207  13.897   8.609   2.866  0.1610  0.0193  0.1517
13591W        W29208  10.864   4.258  14.070 -0.0223  0.1447  0.0706
13592W        W29209  16.335   5.581   0.379 -0.0332 -0.2011 -0.5426
13593W        W29210  11.199   0.624  14.586 -0.0865  0.0134  0.1771
13594W        W29211  14.406  17.538   3.022  0.0903 -0.2266 -0.1492
13595W        W29212   2.234  14.396  14.015  0.0014 -0.1666 -0.0189
13596W        W29213  17.157  10.415   1.501  0.2353 -0.3532 -0.1353
13597W        W29214   5.324   9.170  14.179  0.0634 -0.0118  0.0315
13598W        W29215   9.699   1.406   0.447  0.2475  0.0628 -0.2940
13599W        W29216  14.361   2.192   0.167  0.0761  0.1924 -0.1986
13600W        W29217  11.183  18.443  13.327  0.0230  0.2820  0.1581
13601W        W29218   3.740   6.396  11.720 -0.1389  0.0957  0.1189
13602W        W29219  11.904  12.155   1.631 -0.1914 -0.1425 -0.0321
13603W        W29220   0.361  13.905  14.000 -0.3144 -0.0792 -0.1438
13604W        W29221   1.173   9.293  12.490 -0.1678  0.2178  0.0882
13605W        W29222   2.611  14.356   3.656  0.1124  0.2145 -0.0411
13606W        W29223  14.839  15.038   2.456  0.1387  0.0160 -0.0522
13607W        W29224   8.183   4.914  15.149  0.0746 -0.0956  0.2818
13608W        W29225   7.330   6.349   3.219 -0.2805  0.0290 -0.1379
13609W        W29226   8.583  18.093  13.831  0.0904 -0.1711  0.3279
13610W        W29227  15.170  10.625  15.841 -0.0199 -0.0331  0.0842
13611W        W29228  15.286  17.451  13.107 -0.0687 -0.5228 -0.0230
13612W        W29229   9.401   9.845   2.579  0.0074  0.1400  0.0458
13613W        W29230   2.446   4.901  12.031  0.2596  0.2674 -0.2680
13614W        W29231  15.231  13.726   3.758  0.0255  0.4260  0.1362
13615W        W29232  15.766   9.422   2.121  0.0698 -0.1881 -0.3598
13616W        W29233   3.326   9.216  11.528  0.1138  0.2443  0.0639
13617W        W29234   9.632  11.193  15.298 -0.0854  0.2639  0.2678
13618W        W29235   5.894   3.256  11.020 -0.0742 -0.0964 -0.1382
13619W        W29236  18.025  16.925  13.794  0.0275  0.0895 -0.2350
13620W        W29237   2.367  17.467  12.937 -0.3899 -0.1655  0.0474
13621W        W29238  16.033   7.648   2.818  0.1705 -0.0415 -0.4543
13622W        W29239  12.350  12.414   4.597  0.1548 -0.0627 -0.0311
13623W        W29240   3.090   3.345   5.108 -0.2338  0.1036 -0.0437
13624W        W29241  16.154   2.214  13.016 -0.1726 -0.0253 -0.1776
13625W        W29242   5.014  12.331   2.709 -0.0037 -0.0379  0.2088
13626W        W29243   4.664   3.330   1.199  0.0634  0.0092 -0.0492
13627W        W29244   8.206  11.460  14.766  0.2102  0.1113 -0.2142
13628W        W29245   8.034  16.149   1.140  0.0997 -0.2472  0.4337
13629W        W29246   9.221  11.414  14.620 -0.5375  0.2908  0.1035
13630W        W29247   9.703   3.298   4.135 -0.2342  0.1899  0.2819
13631W        W29248   2.818  16.138  13.442 -0.3562 -0.0370 -0.0900
13632W        W29249   7.367  11.796  14.730  0.0919 -0.0837  0.0998
13633W        W29250  14.822  11.531  11.887  0.1436 -0.0420  0.1978
13634W        W29251  17.533   8.594   3.767  0.3056  0.1715 -0.2575
13635W        W29252   4.923   9.848  13.083  0.1940 -0.2828  0.1908
13636W        W29253   6.386  10.442  12.313 -0.3638  0.1557  0.0449
13637W        W29254   9.797   6.133  15.939  0.0493 -0.1901 -0.1910
13638W        W29255  15.485   6.507   1.253  0.1370 -0.0455 -0.1336
13639W        W29256  13.895   9.812  11.584  0.0101  0.0347  0.0960
13640W        W29257  10.870  10.442  14.714  0.3045 -0.0025 -0.1073
13641W        W29258  10.273  11.156   0.678  0.0343 -0.0383  0.2632
13642W        W29259  10.384  10.408   5.565  0.3417 -0.0188 -0.0373
13643W        W29260   3.690  13.288   6.323 -0.0441  0.2721  0.0117
13644W        W29261   4.566  13.985   6.232  0.0907  0.0272 -0.2409
13645W        W29262   7.501   9.923  15.314 -0.0102  0.4188  0.1529
13646W        W29263   9.455  15.642  11.983  0.0681  0.0129 -0.0197
13647W        W29264  13.475   3.214   4.743 -0.0798  0.0831 -0.3103
13648W        W29265  14.317   5.045   1.369  0.1332  0.0697 -0.1300
13649W        W29266  15.302   9.221  13.166 -0.1215 -0.1086  0.1100
13650W        W29267   9.580  14.801  15.576  0.0150 -0.1997 -0.3031
13651W        W29268   8.072   9.372  14.163  0.1173 -0.3388  0.6978
13652W        W29269   1.568   4.081   4.299 -0.1769 -0.3391 -0.1147
13653W        W29270   2.648   0.413  15.790 -0.1598 -0.0519 -0.0165
13654W        W29271  12.901  14.113   6.262 -0.0285  0.1709 -0.0213
13655W        W29272  13.227   4.293   1.678 -0.0842  0.2448  0.1100
13656W        W29273   2.297   3.385   1.111  0.1632  0.1071  0.3876
13657W        W29274  10.689  10.941   3.013 -0.3822 -0.1023  0.4727
13658W        W29275   4.229   9.383  12.225 -0.2004 -0.1339  0.4921
13659W        W29276  16.154  12.303  12.984  0.1956 -0.1495 -0.0874
13660W        W29277  13.600   7.649   0.698  0.1201  0.2907  0.3058
13661W        W29278  11.828   4.080   3.836 -0.1900  0.1073 -0.0661
13662W        W29279   1.659  14.912   5.293  0.0700 -0.0216  0.0548
13663W        W29280   4.650  16.314   4.992  0.0086  0.2700  0.0873
13664W        W29281   8.913   5.559   0.935 -0.3986 -0.0448 -0.1116
13665W        W29282   6.633   4.471  13.794 -0.0764 -0.3774  0.0960
13666W        W29283   6.765  11.249  15.064  0.0469  0.1637 -0.1559
13667W        W29284   7.551  12.485   3.406  0.2278 -0.1417  0.4421
13668W        W29285  11.199   3.515  11.943  0.1172  0.0402  0.0945
13669W        W29286  13.199  14.189  15.912 -0.2570  0.3774  0.3440
13670W        W29287  17.567   8.573   4.902 -0.3399 -0.1283 -0.0953
13671W        W29288   4.128   2.138  13.887 -0.0186 -0.1795 -0.0040
13672W        W29289  13.010  10.251   3.019 -0.3825  0.4005 -0.1052
13673W        W29290   1.725   5.647   3.346 -0.2375  0.1593  0.0944
13674W        W29291   7.608  12.136   5.892 -0.0871  0.2066 -0.1557
13675W        W29292  14.026   5.558   0.656  0.0557 -0.0659  0.3344
13676W        W29293  10.478  15.149  14.772  0.2684  0.0334 -0.0853
13677W        W29294  12.427   9.784  15.580 -0.1936 -0.0323 -0.0327
13678W        W29295   3.652  12.895   2.719 -0.3348  0.2406  0.0067
13679W        W29296   1.266  13.834   3.900  0.0687 -0.0283 -0.0537
13680W        W29297  18.441   9.186   0.318  0.1063  0.4379  0.0436
13681W        W29298  14.944   3.305   0.414 -0.2765  0.1939  0.1244
13682W        W29299  11.635   5.159  15.873 -0.0466  0.1744 -0.0749
13683W        W29300   4.591  12.728  13.618  0.2374  0.1427  0.2167
13684W        W29301   2.803   8.050  14.097  0.1012  0.3748  0.0666
13685W        W29302  12.627   2.591   2.985  0.1562  0.0786 -0.2660
13686W        W29303   1.645   8.787   2.071 -0.0649  0.0103 -0.0335
13687W        W29304  12.980   4.801  13.849 -0.3867 -0.3106 -0.3867
13688W        W29305   6.782   2.866   1.610 -0.0533  0.0628 -0.0398
13689W        W29306  11.191   6.725   2.129 -0.2807 -0.1989 -0.1471
13690W        W29307   9.381   5.374   0.861 -0.3600  0.1897  0.0494
13691W        W29308   4.049  15.808   2.864 -0.2966  0.1856 -0.0162
13692W        W29309   2.298   5.435  16.002 -0.0118 -0.2413 -0.1858
13693W        W29310   1.133   7.539   3.632 -0.1391  0.0524  0.3006
13694W        W29311  12.473  18.358   3.183  0.1545  0.1560 -0.0053
13695W        W29312  10.424  14.400  15.503 -0.0387 -0.0185 -0.1558
13696W        W29313  13.952   5.207   3.255 -0.0531 -0.0753 -0.2052
13697W        W29314   9.298   6.609  14.165  0.0041  0.2982  0.1232
13698W        W29315   0.035   4.391  12.297  0.1645 -0.1384  0.0038
13699W        W29316  11.061  10.847  15.769  0.2788 -0.2089 -0.1905
13700W        W29317   4.446   3.628   4.601  0.1153  0.0861 -0.0240
13701W        W29318   8.147  12.062  14.234 -0.1879 -0.0432 -0.2517
13702W        W29319  10.755   4.955   1.241  0.1962  0.1373  0.2165
13703W        W29320   7.777  16.249   2.570 -0.0596 -0.1817  0.0496
13704W        W29321  10.531  17.151  12.564 -0.0924  0.3893  0.3251
13705W        W29322   7.975  17.182   0.195 -0.1879 -0.2822  0.0458
13706W        W29323  11.429   7.236  13.381  0.0906 -0.1574  0.0110
13707W        W29324  16.178  17.277  11.325  0.0925  0.1986  0.1298
13708W        W29325   9.134  16.930  15.353 -0.1356 -0.0566 -0.0383
13709W        W29326   0.263  12.954   1.482  0.2626 -0.0776 -0.0227
13710W        W29327  13.519   7.164  14.698 -0.4312 -0.1192  0.2317
13711W        W29328   9.573  15.141  13.864 -0.2047  0.2596  0.2932
13712W        W29329  12.252  13.383  16.057  0.1687  0.3344 -0.1471
13713W        W29330  12.511   3.494  11.259  0.0549 -0.1683  0.0544
13714W        W29331   0.336  11.025  15.872  0.1351 -0.1732 -0.0145
13715W        W29332  11.800   5.644  11.229 -0.1449  0.2508  0.2099
13716W        W29333   0.509   8.156   2.578  0.0465 -0.0313 -0.2563
13717W        W29334   3.222  16.951   3.946 -0.0453  0.1702 -0.1227
13718W        W29335  17.240  17.296  11.809 -0.0005 -0.3320 -0.2320
13719W        W29336   1.720   2.369   4.160  0.0198  0.2121  0.1326
13720W        W29337  18.333   2.482   4.202 -0.0837  0.1386  0.2271
13721W        W29338  15.857   3.567  11.626  0.0408 -0.1675 -0.3141
13722W        W29339   0.238  11.788  13.709  0.0444 -0.0931  0.0945
13723W        W29340  11.543   4.056   3.132  0.0372 -0.2146  0.2401
13724W        W29341  13.293   2.052   0.885  0.0427 -0.1511 -0.1323
13725W        W29342   1.045  11.280   3.582 -0.2761  0.1653 -0.0486
13726W        W29343  11.189   3.895   0.342 -0.0794 -0.0170 -0.0676
13727W        W29344   2.559  11.248   3.664 -0.2420  0.0596  0.1476
13728W        W29345   9.343  14.769  11.982 -0.0357  0.0368 -0.3064
13729W        W29346   0.458  18.139   1.011 -0.0864  0.0269 -0.1440
13730W        W29347  11.906   2.837  14.600 -0.2350  0.0777  0.2907
13731W        W29348  13.611  13.966   1.796 -0.0171 -0.3271  0.5343
13732W        W29349   6.051   7.476  15.935 -0.0001 -0.2708  0.1233
13733W        W29350  17.735   5.875   1.444 -0.0163 -0.0601 -0.2337
13734W        W29351   6.094  13.602   2.047 -0.0750 -0.0450  0.0520
13735W        W29352   4.730  10.970   0.998 -0.0313 -0.2987  0.1390
13736W        W29353   6.687   6.836  14.019  0.4071 -0.1901 -0.0071
13737W        W29354   0.188  15.799  12.161 -0.2825  0.1084 -0.0465
13738W        W29355  17.506  11.200   3.352  0.0086  0.0539 -0.2434
13739W        W29356   5.351   0.244  12.242  0.0722 -0.0939  0.2791
13740W        W29357   7.298  13.417  14.744  0.0436 -0.1396  0.1922
13741W        W29358   4.849   8.869   3.924 -0.0552 -0.0726 -0.2294
13742W        W29359   4.866   9.947   5.419 -0.0932 -0.0995 -0.3291
13743W        W29360   2.301  17.940   1.055 -0.0669 -0.1070 -0.4413
13744W        W29361  15.059   6.220   4.402 -0.1261 -0.1426 -0.1034
13745W        W29362   8.856  18.361   2.843 -0.1708 -0.5305 -0.1117
13746W        W29363   0.688  14.894   1.818 -0.3054  0.0429  0.0372
13747W        W29364   0.589  18.215  11.701 -0.0236  0.2568 -0.0729
13748W        W29365   6.755  14.427   1.380 -0.1935  0.1619  0.4275
13749W        W29366   7.153   4.644   2.865  0.2378  0.0022 -0.1249
13750W        W29367   7.834  11.532  12.235  0.0012 -0.0560 -0.1190
13751W        W29368   1.682  17.918   4.734 -0.1541  0.0514  0.2049
13752W        W29369   8.795  17.647   1.206  0.0443  0.2779 -0.3507
13753W        W29370  11.148  14.258  12.353  0.0918 -0.0678  0.4410
13754W        W29371   4.896   4.369  11.682 -0.2556 -0.1059 -0.3290
13755W        W29372   0.207   2.394   2.035  0.3252  0.0106 -0.2901
13756W        W29373   6.081  14.941   1.784 -0.0711 -0.0092 -0.0860
13757W        W29374   6.152   9.850  13.861  0.0267 -0.2646 -0.0727
13758W        W29375   1.314   6.589  15.925 -0.2559  0.1624  0.2439
13759W        W29376  15.098   1.263  11.587  0.0874 -0.0681  0.0310
13760W        W29377  10.693   8.937  15.013  0.5850 -0.4591 -0.2894
13761W        W29378  12.493   2.189  14.426 -0.0135  0.3853  0.1285
13762W        W29379   5.487  13.126   1.456  0.0425 -0.0480 -0.1243
13763W        W29380   9.636   2.957   3.006  0.0821  0.0176  0.2005
13764W        W29381  15.689   7.906  10.802  0.4060 -0.0485 -0.0476
13765W        W29382  10.254  11.170  12.764 -0.3402  0.2194 -0.1421
13766W        W29383  15.093   7.734   3.771  0.3292 -0.2012 -0.2416
13767W        W29384   6.054   0.591  10.237  0.1813 -0.0374 -0.4137
13768W        W29385  17.215   4.114   4.555 -0.1872  0.0370  0.1648
13769W        W29386  15.711  10.293   2.597 -0.1805  0.2303 -0.1826
13770W        W29387   1.298  12.123   3.353  0.2798  0.0496 -0.0599
13771W        W29388   2.787   8.851  12.623 -0.1230  0.1478 -0.0438
13772W        W29389   8.902  16.413  14.303 -0.2125  0.3257  0.2327
13773W        W29390  15.249  12.570   4.226 -0.0548 -0.0730  0.0048
13774W        W29391  13.802   7.637  13.432  0.1710  0.1403  0.0873
13775W        W29392  15.873  13.433  15.633  0.0110 -0.1807  0.0821
13776W        W29393  16.588  10.147   4.950  0.1547  0.0745  0.2560
13777W        W29394  15.840   1.382   0.993  0.1501  0.0268  0.3916
13778W        W29395  18.424   3.050   1.853  0.1729 -0.1403 -0.0873
13779W        W29396  13.546  11.993   2.012 -0.0577 -0.3350  0.0663
13780W        W29397  12.776  11.306  14.987  0.1475 -0.0500 -0.0800
13781W        W29398  17.631  14.860   1.052 -0.0029 -0.1698  0.1389
13782W        W29399  11.229  14.263  15.171  0.3335 -0.0196 -0.0730
13783W        W29400   8.144   6.710   2.335  0.0536  0.0791  0.0697
13784W        W29401  15.613   5.012   4.244 -0.0534 -0.1030 -0.2536
13785W        W29402  16.583   9.795   2.535  0.0507  0.1836  0.0393
13786W        W29403  15.912   3.795  12.647  0.0325  0.0462  0.2932
13787W        W29404   9.876   4.014   1.478  0.0098  0.2693 -0.1101
13788W        W29405  16.064   6.447  13.416 -0.5550  0.0452  0.3143
13789W        W29406   7.609  11.068   6.204  0.0901  0.2688  0.0230
13790W        W29407  18.397   8.958   0.977 -0.1202  0.0381 -0.0529
13791W        W29408   7.896   5.843   9.657 -0.1197  0.0482  0.0949
13792W        W29409  13.558   5.973  14.064 -0.1398 -0.0436  0.2487
13793W        W29410   9.268   0.328  15.198  0.2460  0.1364  0.0292
13794W        W29411  17.161  13.821  14.180 -0.1440 -0.3802  0.1545
13795W        W29412   5.652  10.062   5.546  0.0980 -0.0546  0.1269
13796W        W29413  13.751   7.768   3.932 -0.2486  0.1378 -0.2054
13797W        W29414   9.222  13.999   3.165  0.0326  0.0707  0.2062
13798W        W29415   5.870   9.458  14.381 -0.0456  0.2289 -0.0651
13799W        W29416   9.216  12.181   0.375 -0.4043  0.0471 -0.0378
13800W        W29417   6.714   6.536   2.202  0.1095  0.0977  0.3014
13801W        W29418   3.008  12.764  13.617  0.1763  0.1444 -0.2453
13802W        W29419   5.592  17.005  13.190 -0.0945 -0.3072  0.0600
13803W        W29420   0.217  13.465  15.290  0.0880  0.2386 -0.5483
13804W        W29421  11.426  16.909  14.619  0.0054  0.1131 -0.3005
13805W        W29422  10.062  15.714  14.176 -0.0507  0.0993  0.1023
13806W        W29423  12.236   4.582   1.914 -0.1704  0.2306 -0.0964
13807W        W29424   6.834   5.158  11.189 -0.0699  0.0882 -0.0032
13808W        W29425  15.793   5.343  12.012  0.0714  0.2504  0.0552
13809W        W29426  17.093   0.627  15.129  0.0995 -0.0182 -0.2266
13810W        W29427   6.036  15.335   0.508 -0.0712 -0.5533  0.0196
13811W        W29428   6.957  16.992  12.956  0.2967  0.1933 -0.0389
13812W        W29429  11.750   1.629   3.436 -0.2386  0.0787 -0.2903
13813W        W29430  16.879  18.430   5.526 -0.0208  0.1419 -0.1516
13814W        W29431   3.917   9.564  13.964 -0.2217 -0.0512 -0.2885
13815W        W29432   8.155  17.779  13.707  0.2129 -0.2820  0.3229
13816W        W29433  17.927   2.917   1.254 -0.0960  0.1020  0.1966
13817W        W29434  14.082   7.860   0.727 -0.0075  0.0948  0.1698
13818W        W29435  16.651  13.798  14.526 -0.1425  0.1389 -0.1097
13819W        W29436  16.343  18.111  13.752 -0.0208  0.0174 -0.1377
13820W        W29437   1.045  12.984   5.079 -0.0915  0.2386  0.0837
13821W        W29438  11.467  15.169   0.078  0.0161 -0.0229 -0.1298
13822W        W29439  12.625  17.456  11.340  0.1989  0.0081 -0.1925
13823W        W29440  10.924  13.520   1.108 -0.1127 -0.1061  0.0408
13824W        W29441  15.488   8.021   3.995 -0.4079  0.1130  0.0343
13825W        W29442  16.324  15.482   3.665 -0.3281 -0.0190  0.2033
13826W        W29443  15.352  16.998   2.386  0.1573 -0.2061  0.0556
13827W        W29444  16.958  10.362   1.971  0.1828 -0.0853  0.0771
13828W        W29445  12.120   7.986  15.362 -0.2066  0.0730 -0.1476
13829W        W29446   3.916   8.393   5.778  0.1595 -0.3062 -0.3248
13830W        W29447  12.636  14.655   1.218  0.0390  0.0342 -0.6054
13831W        W29448   3.883  17.382   1.187 -0.3514  0.1271  0.1343
13832W        W29449   2.193  17.636   2.952  0.1128  0.0329  0.2878
13833W        W29450   4.279   9.892  12.932 -0.2383 -0.1385  0.3492
13834W        W29451   4.497  16.073   2.465 -0.1187 -0.2614 -0.2204
13835W        W29452  15.924  14.679  13.271  0.0447 -0.2443 -0.1332
13836W        W29453  17.174   8.583   1.647 -0.1195 -0.0715  0.1227
13837W        W29454   2.879  17.598   4.282 -0.0698  0.0541  0.1031
13838W        W29455  14.800  13.243  14.043  0.2295 -0.1213  0.0726
13839W        W29456   4.722   7.372  13.596  0.2841  0.1502  0.0684
13840W        W29457   7.463  11.377  14.534  0.3037 -0.0889  0.1926
13841W        W29458  12.328  16.740  11.713  0.0356  0.2457  0.0178
13842W        W29459  15.894   5.024  11.621  0.0051  0.1946 -0.2202
13843W        W29460   6.492  16.294  15.176  0.1001 -0.1413 -0.1284
13844W        W29461   9.424  17.108   2.870  0.1268  0.1420  0.0228
13845W        W29462   2.009  17.197   2.767 -0.0564  0.1381 -0.0614
13846W        W29463  17.928   5.060  14.620 -0.1718 -0.1698  0.2178
13847W        W29464   3.256   2.087  14.495 -0.2754  0.0254 -0.0150
13848W        W29465   0.317   8.109  12.672  0.1861 -0.0357  0.0787
13849W        W29466   3.658  13.030  15.988  0.0790 -0.1185  0.1671
13850W        W29467  14.938  16.195  12.849  0.2904  0.0172 -0.1590
13851W        W29468   1.572   2.135  14.166  0.1269  0.1229 -0.2910
13852W        W29469   9.031  12.961  11.310 -0.1817  0.1511 -0.2345
13853W        W29470   0.300   9.012  13.009  0.4278 -0.2136 -0.0559
13854W        W29471  12.227  13.144   5.742  0.2154  0.2170  0.0184
13855W        W29472  13.528   1.601   4.808 -0.4233  0.2382  0.3312
13856W        W29473   8.640   8.388  13.079  0.1829  0.3762  0.3315
13857W        W29474   2.827   7.048  13.044  0.2459  0.1320 -0.2633
13858W        W29475   5.587  13.795   0.763 -0.0836  0.0536 -0.1007
13859W        W29476   5.781   5.892   3.742  0.3071 -0.1034  0.0988
13860W        W29477  15.393  18.371   4.978 -0.0752 -0.3450  0.3213
13861W        W29478  17.430   9.586  10.331 -0.0555  0.0770  0.2145
13862W        W29479  15.383   7.567  15.518 -0.1735 -0.0301 -0.0933
13863W        W29480   7.299  10.610  11.938 -0.0266  0.2703 -0.4572
13864W        W29481  16.510   7.701   2.507  0.1193 -0.2058  0.2504
13865W        W29482  12.713   2.338  15.783  0.1435  0.0130 -0.2517
13866W        W29483  10.611   7.773  14.679 -0.0284  0.1942  0.0002
13867W        W29484  10.597   2.499  11.115 -0.0066 -0.2340  0.2413
13868W        W29485   1.504   1.562  14.938 -0.0355  0.1490 -0.6002
13869W        W29486  17.027  17.652  15.410 -0.0928  0.1924  0.0451
13870W        W29487  10.204  15.635   4.615  0.1178 -0.1177 -0.2876
13871W        W29488  14.698   1.799  10.251 -0.0388  0.0796  0.3215
13872W        W29489   6.695  10.389   1.052 -0.1093  0.0949 -0.3949
13873W        W29490   1.810   1.643   5.935 -0.3164  0.1049 -0.2613
13874W        W29491  13.544  17.991  11.938  0.0971  0.3205  0.1276
13875W        W29492   9.933   0.406  11.567  0.1621 -0.4667  0.1815
13876W        W29493   9.891  12.010  11.627 -0.0810 -0.2600 -0.0154
13877W        W29494  13.054  11.451   2.010  0.0988  0.0625 -0.2315
13878W        W29495   6.245   5.329   3.140  0.3067 -0.3916  0.2543
13879W        W29496   2.794  16.323  14.866  0.0746  0.2615 -0.2228
13880W        W29497   9.878   5.094  15.091 -0.1406 -0.0787 -0.1201
13881W        W29498  17.536   2.708  13.695  0.0116 -0.3373 -0.2372
13882W        W29499  12.995   5.716   0.505  0.0399 -0.0689 -0.3839
13883W        W29500   9.445  13.982   1.833 -0.0487 -0.0971 -0.0401
13884W        W29501  13.936   5.953   1.527 -0.0039 -0.0393 -0.1641
13885W        W29502   5.560   3.839   2.010  0.2466  0.1158  0.2329
13886W        W29503   2.141  10.844   1.828 -0.0273  0.0478  0.1046
13887W        W29504   3.855   0.547  11.388 -0.2325  0.2492  0.0856
13888W        W29505   9.007  13.742   5.176 -0.0917  0.1217  0.0943
13889W        W29506   8.281  10.369  11.898 -0.1223 -0.1130  0.1206
13890W        W29507   5.694   5.490  13.932  0.1144  0.0949  0.1466
13891W        W29508   6.265  13.737   2.555 -0.3947  0.1644 -0.0472
13892W        W29509   2.462   9.746  11.645 -0.2020 -0.2460 -0.0853
13893W        W29510  11.458   2.532   2.261 -0.1270 -0.0747  0.1098
13894W        W29511  13.361  16.811  12.398 -0.1091 -0.3555  0.0156
13895W        W29512   7.405   4.542  11.795 -0.0868  0.2603  0.0339
13896W        W29513   2.922  15.030  15.996  0.0735 -0.0750  0.0711
13897W        W29514   4.882  16.755  14.272  0.2003  0.1621 -0.4205
13898W        W29515   2.996   1.060  12.387 -0.2894  0.1431 -0.0343
13899W        W29516  10.417  11.100   4.077  0.1076  0.1281  0.1432
13900W        W29517  16.828  10.069   2.864  0.0856  0.1795  0.2357
13901W        W29518   9.851   3.010  15.853 -0.0808 -0.1215 -0.2219
13902W        W29519  18.377  14.393  11.532  0.0233 -0.2010  0.2310
13903W        W29520   7.287   6.112  11.970 -0.0942 -0.0179 -0.1152
13904W        W29521   3.472   5.877   0.040  0.1911 -0.1226  0.0779
13905W        W29522  13.905   6.486  14.230 -0.2494  0.0238 -0.1253
13906W        W29523   0.065   4.069   4.114 -0.0407 -0.2890  0.0759
13907W        W29524  15.027  12.411   1.121 -0.0490  0.0154 -0.0817
13908W        W29525   1.826   6.166   3.899 -0.0487  0.0708 -0.0603
13909W        W29526  17.294  16.299   2.528  0.3383 -0.0128 -0.0575
13910W        W29527   6.192  13.777   1.535  0.0514  0.0044 -0.2199
13911W        W29528  14.854   0.380  16.032  0.2686  0.4962  0.1557
13912W        W29529  13.517   6.682   3.032  0.0670 -0.3727 -0.1439
13913W        W29530  15.630   4.280   2.756  0.1754 -0.1445 -0.1694
13914W        W29531  17.759  17.521  11.946  0.0909  0.2436 -0.0346
13915W        W29532  16.415  18.209  15.412 -0.0927 -0.2851  0.2027
13916W        W29533   9.643  14.898   4.674  0.0672  0.3192 -0.0863
13917W        W29534   1.822   1.834   0.747 -0.1259 -0.2696 -0.0911
13918W        W29535  12.907  13.871   3.439 -0.0983  0.1440  0.0887
13919W        W29536   5.907   4.334  13.157  0.2873 -0.3482 -0.1020
13920W        W29537  10.023   6.564   2.345 -0.1159  0.2013 -0.3927
13921W        W29538   9.772  17.508  12.336  0.2881 -0.0057 -0.1304
13922W        W29539  16.570   5.595  11.548  0.0662  0.1596 -0.2146
13923W        W29540   9.074  17.065   6.104 -0.0231  0.0907  0.0484
13924W        W29541   4.388   7.062   3.594 -0.5001 -0.3120  0.1608
13925W        W29542   4.065  17.869   4.387 -0.0912  0.1952 -0.2861
13926W        W29543  17.231  18.079  13.039  0.2985  0.0626  0.2097
13927W        W29544   3.967   6.322  12.649 -0.2031 -0.0620 -0.1441
13928W        W29545   5.281   3.047  14.434 -0.4221 -0.0177 -0.2678
13929W        W29546   2.745   4.097  14.463  0.0326 -0.1490  0.1119
13930W        W29547   6.165   7.303   1.792  0.2182 -0.0630  0.0111
13931W        W29548  16.078  17.743  11.993  0.2288  0.3331 -0.0228
13932W        W29549  17.329   9.205   2.686  0.1250  0.2018  0.0974
13933W        W29550   0.732  17.295  14.694  0.2523  0.2581 -0.0447
13934W        W29551   0.457  14.891  12.175  0.1253 -0.0185  0.1392
13935W        W29552  18.297  10.728  14.554 -0.2544  0.2006  0.2929
13936W        W29553  15.645   5.426   1.278 -0.0606  0.2081  0.0879
13937W        W29554   2.093   7.789   2.600  0.2299  0.1247 -0.3742
13938W        W29555  10.558  12.938  15.142  0.1102  0.0714  0.1883
13939W        W29556   0.951   6.198   0.852 -0.1282  0.2971 -0.5020
13940W        W29557   3.500   0.743   2.367  0.0640  0.0622  0.0596
13941W        W29558   6.899   8.646   4.209  0.1163 -0.0574 -0.0108
13942W        W29559   4.396  12.440  11.482 -0.3737 -0.1417 -0.0387
13943W        W29560  13.221  13.906  12.853  0.1364  0.2246  0.2276
13944W        W29561   8.188   8.628   5.001 -0.2293 -0.3516  0.1900
13945W        W29562  13.593  12.728  10.595  0.0896 -0.0488 -0.1490
13946W        W29563   2.996   2.842  13.382  0.0435 -0.1987 -0.0328
13947W        W29564  11.623  15.698   0.107 -0.1225 -0.2135 -0.0508
13948W        W29565   1.820   9.719  13.713 -0.0455 -0.3467 -0.0535
13949W        W29566   5.834   9.796   2.910 -0.1146 -0.0316 -0.0828
13950W        W29567   7.892  12.259  11.686 -0.0231  0.1473  0.1458
13951W        W29568   7.280  18.341  14.287 -0.1926  0.1741 -0.1442
13952W        W29569   5.682  10.511  15.658  0.0120 -0.1644  0.0117
13953W        W29570  14.075  17.202   5.438 -0.1771 -0.0919  0.1258
13954W        W29571   7.081   3.850  14.574  0.1554 -0.2814 -0.0033
13955W        W29572  10.315   5.150   1.361  0.1023  0.0451  0.1350
13956W        W29573   4.708  12.475  15.556  0.2794  0.1967 -0.2125
13957W        W29574  14.734  10.467  14.599 -0.0544 -0.0318 -0.0943
13958W        W29575   7.480  12.100   4.278  0.1679  0.0874  0.2897
13959W        W29576   5.259  12.436   0.217 -0.0278  0.0286 -0.1916
13960W        W29577   6.189   5.882  15.554 -0.2877 -0.0717  0.1713
13961W        W29578   1.142   8.466  11.050  0.1300  0.3385  0.2815
13962W        W29579   5.218   2.368   1.676  0.1608 -0.1148  0.4082
13963W        W29580   1.317  12.529  15.204 -0.0403 -0.2568  0.2252
13964W        W29581   5.791   4.102  11.772  0.3131  0.2281  0.0372
13965W        W29582   9.125   4.031  14.643  0.3457 -0.2724  0.1257
13966W        W29583   5.243  17.568   0.032  0.0062  0.1078  0.2184
13967W        W29584  16.755  18.244   0.675 -0.0283  0.1172 -0.0428
13968W        W29585   8.456   9.716  14.864  0.1742 -0.2488  0.1353
13969W        W29586   2.896   3.964  16.049 -0.0870  0.1189  0.2991
13970W        W29587   5.767  17.692  15.989  0.1162 -0.3729  0.1066
13971W        W29588  14.296  10.139  11.660  0.2248  0.2480 -0.0710
13972W        W29589  17.816  11.884   4.789 -0.1900 -0.0312  0.0474
13973W        W29590  17.005  18.249   3.913  0.1725  0.1906 -0.0238
13974W        W29591  16.670  13.331   0.567  0.2506  0.0669 -0.1072
13975W        W29592   8.191  17.867  15.116  0.0184 -0.0943  0.3508
13976W        W29593   5.549  16.995  12.684 -0.3247  0.1790  0.3633
13977W        W29594   4.828  12.340   1.485  0.1112  0.2381 -0.0065
13978W        W29595   4.228   1.359   4.646 -0.0857  0.2681 -0.3384
13979W        W29596  13.359   5.425   0.697  0.3207 -0.1568 -0.0580
13980W        W29597   1.838  11.208  14.561 -0.3821 -0.2326  0.2410
13981W        W29598   4.797  10.373   4.934 -0.4261  0.1222  0.1324
13982W        W29599   7.104  13.835  14.944  0.2730 -0.0013  0.2229
13983W        W29600  15.320   1.800   2.794  0.0509  0.0637  0.1539
13984W        W29601   4.657  16.471  15.456  0.2420 -0.0273  0.1456
13985W        W29602   0.811  16.508  14.740 -0.2310  0.1605 -0.2788
13986W        W29603   7.916   6.546  15.577  0.1351 -0.0546 -0.0631
13987W        W29604   9.881   5.258  10.611 -0.0166  0.0983  0.4443
13988W        W29605   9.294  17.636   0.581  0.0151 -0.1074  0.0747
13989W        W29606   4.110   4.812   3.475  0.0843  0.2497  0.0714
13990W        W29607   5.437   9.969   1.879  0.4441  0.1834  0.0534
13991W        W29608  12.645   2.464   2.528 -0.1705  0.0581  0.0719
13992W        W29609  11.169   4.661   5.246  0.0945  0.0930  0.2922
13993W        W29610  12.095  10.083   4.598 -0.1171 -0.0375  0.2184
13994W        W29611  11.675   5.802   3.504  0.1513 -0.2485 -0.0475
13995W        W29612   1.729  13.908  11.913  0.2307 -0.2986 -0.0826
13996W        W29613  14.112   4.122   2.542 -0.1538  0.3299  0.3603
13997W        W29614  10.530   3.347   2.591 -0.0796 -0.0226  0.1630
13998W        W29615   3.729   0.356   5.525 -0.2241  0.2330  0.0871
13999W        W29616  13.502  11.380  13.761  0.0890  0.1809  0.0581
14000W        W29617  14.399  17.668  13.032  0.1911  0.1940 -0.3569
14001W        W29618   1.874   2.112  14.577  0.4714 -0.4438 -0.2940
14002W        W29619  14.098  13.103   3.844  0.1723  0.1389  0.0711
14003W        W29620   7.873  10.189  12.358 -0.1701 -0.0517  0.2913
14004W        W29621  14.986   7.611   5.631 -0.0280  0.0066 -0.2205
14005W        W29622   7.034   9.147   4.066 -0.2453  0.0570  0.0967
14006W        W29623   0.162   3.294   2.524 -0.1953  0.0731 -0.1154
14007W        W29624  10.173   9.936  14.885 -0.4257 -0.1870 -0.1891
14008W        W29625  17.825   6.903   4.334  0.2084  0.0590 -0.1537
14009W        W29626  10.492   2.957  13.581  0.1117  0.3957 -0.4296
14010W        W29627   7.277   1.586   9.947  0.1462 -0.0630  0.1825
14011W        W29628   9.992  10.009   5.347 -0.2692  0.0932 -0.0264
14012W        W29629   5.532   4.182   4.850 -0.0782  0.1223  0.2768
14013W        W29630   3.399  17.983   5.406 -0.1443  0.1874  0.1002
14014W        W29631   7.939   4.532  12.688  0.2408 -0.1140  0.5367
14015W        W29632  16.449   3.860   0.554 -0.0120  0.0029  0.0879
14016W        W29633   5.362   7.637  11.724 -0.0103  0.0020  0.0668
14017W        W29634  15.851  10.901   0.464 -0.0953  0.1606 -0.1162
14018W        W29635  11.915  15.032  12.074 -0.0999  0.4411 -0.2037
14019W        W29636  10.076  18.112  11.143  0.2425  0.1036  0.0972
14020W        W29637   7.061  12.646   4.884 -0.0553 -0.2658 -0.0821
14021W        W29638  15.677   3.100   1.220  0.0281  0.0528  0.1168
14022W        W29639   3.197   8.027   0.990  0.0036 -0.0026 -0.1145
14023W        W29640   5.064   3.751  10.912  0.1448 -0.2144  0.1059
14024W        W29641  16.810   9.204   3.292 -0.0571  0.1014 -0.3773
14025W        W29642  13.858   6.579  11.246  0.1122  0.0695  0.0429
14026W        W29643  14.705   0.393  12.350 -0.2944 -0.0598  0.2412
14027W        W29644   2.444  16.014   4.281  0.5939 -0.2892 -0.2998
14028W        W29645  10.816  16.141  11.820  0.0675  0.0563  0.2233
14029W        W29646   7.584  11.189  13.802  0.4925 -0.1916  0.1995
14030W        W29647   2.166  10.922  12.073  0.2463  0.3879 -0.0201
14031W        W29648   1.934   3.889   4.718  0.3318 -0.1496 -0.1524
14032W        W29649   8.312  13.580   0.523  0.2751 -0.0655  0.2316
14033W        W29650   2.321   0.305   2.884  0.0726 -0.1398 -0.0854
14034W        W29651  11.224  12.035   2.093  0.2005  0.0701  0.3339
14035W        W29652  11.379  11.063   1.884 -0.2063 -0.0589 -0.0417
14036W        W29653   3.484  18.276  15.162 -0.1195  0.2921 -0.0186
14037W        W29654  16.433   0.017  12.204  0.0966  0.1664  0.1898
14038W        W29655   2.484  17.898   0.613  0.0929 -0.1220 -0.0981
14039W        W29656   1.556   9.005  12.758  0.0496  0.0952  0.0754
14040W        W29657  15.421   6.515  12.123 -0.0666 -0.0485 -0.0853
14041W        W29658   6.333  18.055   3.893  0.3815 -0.4015  0.1334
14042W        W29659   4.557   9.033   4.441 -0.0470 -0.1708  0.0508
14043W        W29660  12.218  12.487   5.113  0.0268  0.2406 -0.0124
14044W        W29661  10.147  10.155  12.772  0.2749 -0.0681 -0.3590
14045W        W29662   8.238  16.436   2.518 -0.2989  0.1735 -0.0146
14046W        W29663   9.220   8.190  11.197  0.1996 -0.4546  0.3363
14047W        W29664   2.811  11.835  14.718 -0.2233 -0.0428  0.0615
14048W        W29665  15.690   1.337   1.928 -0.4430  0.2068  0.1313
14049W        W29666   8.947   9.081  10.864 -0.0062  0.2922 -0.3159
14050W        W29667   9.481   7.731   4.196 -0.0964  0.0002 -0.0759
14051W        W29668   1.259  15.476   5.704  0.0745 -0.3291 -0.1504
14052W        W29669   9.423   8.667   5.121  0.0889  0.0007  0.0002
14053W        W29670  12.689   6.872  15.818  0.0572  0.0881 -0.2412
14054W        W29671  12.857  11.467   2.518  0.2786 -0.3634  0.3288
14055W        W29672  14.412  17.866   0.927  0.3484  0.1849 -0.2169
14056W        W29673   7.245  14.845   2.559  0.2783 -0.3150  0.1158
14057W        W29674  12.058   6.714  14.613  0.0338 -0.0623  0.0515
14058W        W29675  14.123  11.270   2.801  0.1361 -0.5460  0.3918
14059W        W29676   5.809   4.270  15.348 -0.1001  0.0502  0.2378
14060W        W29677   3.103   2.785   4.896  0.0887  0.2741  0.0860
14061W        W29678   1.690  18.198  12.846  0.0188  0.0223 -0.0531
14062W        W29679   8.558  13.329  14.511  0.1700  0.0544 -0.1295
14063W        W29680  15.526   9.029  13.549  0.0223 -0.0019  0.0329
14064W        W29681   9.218   0.308   2.999 -0.1460  0.2506  0.2037
14065W        W29682  14.135  11.577  15.835  0.1560  0.0701 -0.0612
14066W        W29683   6.837   0.119   3.630  0.1413  0.0874  0.1465
14067W        W29684   1.124  18.330  11.801  0.2098  0.1829  0.0790
14068W        W29685  12.437   2.477  13.835  0.2227 -0.0279  0.0197
14069W        W29686   3.047   9.262  15.530 -0.0323  0.2794  0.0724
14070W        W29687   1.967   9.074   2.331 -0.0681  0.0820  0.2696
14071W        W29688  10.418  13.022   0.017  0.1620 -0.1708 -0.3223
14072W        W29689  17.546   9.419  12.127  0.3896 -0.3937  0.0211
14073W        W29690   5.845  10.993  15.647 -0.1906  0.0418 -0.0125
14074W        W29691   2.162   1.554   1.024  0.3939  0.3673  0.3921
14075W        W29692   9.410  17.264   3.792 -0.2124  0.0123  0.1078
14076W        W29693  16.391  15.515  12.634  0.0708  0.1272  0.0006
14077W        W29694   0.024  18.109   5.407  0.3560 -0.2579  0.1053
14078W        W29695  13.619   5.136  10.656 -0.0242  0.2410 -0.1827
14079W        W29696   8.449   8.686   3.708 -0.0665 -0.1811  0.1181
14080W        W29697  13.888  14.039   4.021 -0.2615  0.5464 -0.3796
14081W        W29698  14.081   5.567  14.558  0.0719 -0.2555  0.2633
14082W        W29699  14.612  13.450  13.534  0.2703 -0.4416  0.0274
14083W        W29700   0.453  16.784   2.015 -0.0769 -0.1703  0.2194
14084W        W29701   0.815  15.401   0.804  0.2363  0.2305  0.0855
14085W        W29702   7.281   8.501  15.837  0.1821 -0.1410  0.0548
14086W        W29703   9.088  13.185   6.576  0.0766  0.0302  0.2450
14087W        W29704   7.180   2.182   3.676  0.0306  0.1349 -0.1500
14088W        W29705  13.387   0.632   1.478 -0.0292  0.1589  0.1516
14089W        W29706   5.347   5.038  15.068 -0.0335  0.1405  0.1094
14090W        W29707   4.546  17.112   3.364  0.1009 -0.0390 -0.1062
14091W        W29708  13.430   6.069   4.830 -0.0785  0.1512  0.0910
14092W        W29709   8.159   0.184  13.530  0.3684 -0.1792 -0.1144
14093W        W29710   1.214  17.101   0.314 -0.1379 -0.1226  0.0560
14094W        W29711   9.640   1.599   1.927 -0.0849 -0.0235  0.0862
14095W        W29712  14.161  17.229  15.953 -0.2413 -0.1238  0.3288
14096W        W29713  11.571   3.911  12.355 -0.0322  0.1584  0.2337
14097W        W29714   9.515   1.729  11.507  0.0127  0.3037 -0.0415
14098W        W29715   3.712   9.828  15.863 -0.3215  0.2685  0.0402
14099W        W29716   3.844   2.030  12.255  0.0147  0.0006 -0.1450
14100W        W29717   6.818   9.070  10.611 -0.2636 -0.3846 -0.1338
14101W        W29718   1.849   3.970   5.306 -0.0050  0.2885  0.2442
14102W        W29719   7.250   1.648   1.928 -0.2558  0.3946 -0.0510
14103W        W29720  10.920  11.587   6.214 -0.2417  0.2241 -0.1069
14104W        W29721   2.336  18.435   4.374  0.0777  0.0984  0.1203
14105W        W29722   1.632   9.205  14.523  0.0166  0.1058  0.0520
14106W        W29723   4.808  12.709  13.183 -0.2119  0.2580  0.0733
14107W        W29724  12.477   0.398  13.388 -0.0468 -0.0527 -0.1653
14108W        W29725   5.578   2.420  12.815  0.0272  0.1836  0.2489
14109W        W29726   9.563   7.114  14.153 -0.0985 -0.0056  0.2393
14110W        W29727   2.900   0.736  13.914 -0.1618 -0.1257 -0.4253
14111W        W29728   6.117  15.485   5.163 -0.2146  0.0216 -0.1023
14112W        W29729   3.054   7.063  14.064 -0.1238  0.0381  0.2385
14113W        W29730  14.413  15.652   1.847 -0.2554  0.3146 -0.0560
14114W        W29731  15.477   8.321   0.671 -0.0092 -0.3231  0.0522
14115W        W29732  14.679   2.040   3.664 -0.4424 -0.1652 -0.2839
14116W        W29733  11.429   9.538   1.896  0.0399 -0.1604  0.4509
14117W        W29734   3.355   3.646   4.691 -0.3365 -0.4438  0.1287
14118W        W29735  14.256   3.948   4.810 -0.2385  0.1663 -0.0677
14119W        W29736   1.386   3.660   0.886 -0.0579 -0.3153 -0.0753
14120W        W29737  10.567   9.036   4.327  0.2571 -0.0711 -0.0354
14121W        W29738   2.274  12.920   3.321  0.0119 -0.1606  0.0912
14122W        W29739   7.884   5.526  13.159 -0.0063  0.2333  0.1438
14123W        W29740  15.605  15.282   0.325 -0.1136  0.0441 -0.3660
14124W        W29741   3.143   7.122   0.550 -0.3436 -0.0415  0.2005
14125W        W29742  13.384   9.959   2.744 -0.0507  0.1673 -0.4585
14126W        W29743  17.146   3.300  13.793  0.2468 -0.1108 -0.1660
14127W        W29744  10.073  17.521   2.319 -0.0771 -0.1433 -0.0884
14128W        W29745   1.902  14.110   4.762 -0.2900 -0.0721  0.0979
14129W        W29746  15.172   3.033   4.443 -0.1907 -0.0335  0.0660
14130W        W29747  16.055  16.488   0.999  0.2961 -0.1886  0.0719
14131W        W29748   0.285   2.294  13.826  0.0543 -0.0890  0.0375
14132W        W29749   4.506   2.794   1.230 -0.0129  0.3150 -0.1564
14133W        W29750  14.813  17.224   6.289  0.3476  0.1036  0.1500
14134W        W29751  11.807   1.467   2.531 -0.2214 -0.2121  0.2289
14135W        W29752  14.700  11.365  14.494  0.2441 -0.2261  0.0757
14136W        W29753  10.392   1.140  11.388  0.0165 -0.1799  0.0971
14137W        W29754  14.870   4.538   4.037 -0.1789  0.3239 -0.2082
14138W        W29755  17.120   6.696   0.557 -0.2518  0.1733  0.0130
14139W        W29756   6.334   4.530  15.167  0.1224 -0.2976 -0.0283
14140W        W29757  12.735  11.804   2.150  0.1471  0.0645 -0.0222
14141W        W29758  17.643  11.219   5.554  0.0543 -0.0878  0.4318
14142W        W29759   5.369   9.333   0.023 -0.3385 -0.2823  0.0366
14143W        W29760   2.781   9.860   5.891  0.1119  0.0403 -0.0228
14144W        W29761  16.485  15.119  10.950 -0.0589  0.0425  0.0745
14145W        W29762   7.111  12.900   0.870  0.2619 -0.0933 -0.1249
14146W        W29763  12.114  13.475   3.002 -0.1436  0.0825  0.0505
14147W        W29764  10.798   9.862  15.330 -0.0035 -0.3926 -0.0181
14148W        W29765   1.208  18.122   0.291 -0.3559  0.1375  0.1380
14149W        W29766  18.157  16.131  14.420 -0.0006 -0.0038  0.3535
14150W        W29767  14.133   7.293   5.660 -0.0518 -0.0378 -0.1887
14151W        W29768   1.506   9.517  12.788 -0.3620  0.1373  0.3060
14152W        W29769  13.305  10.308  11.745  0.0346 -0.0346 -0.1205
14153W        W29770  15.386  10.116  14.170  0.0832 -0.2859 -0.0980
14154W        W29771   9.639  10.076  11.100 -0.0655  0.1910  0.0947
14155W        W29772  13.504  10.531   2.937 -0.1593 -0.4445  0.4442
14156W        W29773  18.249  16.620  15.430 -0.1353 -0.0115  0.1610
14157W        W29774   6.855  15.444  15.114  0.0287 -0.1157 -0.1486
14158W        W29775  14.767   1.469  15.780 -0.0663 -0.1539  0.0706
14159W        W29776   5.115   2.624  15.743 -0.0745  0.0363  0.2926
14160W        W29777  16.411   8.095  14.880 -0.0221  0.1502  0.1861
14161W        W29778   3.421   3.417  14.482 -0.0953  0.1564  0.0928
14162W        W29779   4.281  18.112  15.053  0.0266  0.0804  0.1011
14163W        W29780   5.123  13.479   3.173  0.0269 -0.1070 -0.2998
14164W        W29781   4.097   5.866   4.217  0.1154  0.0436  0.1650
14165W        W29782   5.072  14.267  12.125 -0.1171 -0.0491 -0.0045
14166W        W29783   8.753  10.167  11.031 -0.5046  0.0984  0.3112
14167W        W29784  12.719  15.847  13.641  0.2723  0.0969  0.0224
14168W        W29785  16.896  14.439  11.727 -0.4792  0.2674  0.2226
14169W        W29786   9.523  15.577   3.502 -0.2894  0.0264 -0.0580
14170W        W29787   2.482   4.614   1.039 -0.3306  0.0446 -0.1440
14171W        W29788  16.593   7.970  11.931  0.2204  0.1388  0.1628
14172W        W29789  16.150   9.526   6.089  0.0346 -0.2863 -0.4888
14173W        W29790  12.087  12.692   5.889  0.2178  0.0217  0.1196
14174W        W29791   8.139   4.862   5.428 -0.3196  0.0574  0.1531
14175W        W29792   4.907  17.655   1.792  0.0136 -0.0611  0.2025
14176W        W29793   2.076   0.429  14.850 -0.2469  0.3439  0.1415
14177W        W29794  12.822  17.888   1.858 -0.0441 -0.0388  0.0335
14178W        W29795   6.488   3.315  12.451 -0.2342 -0.1077 -0.0888
14179W        W29796   0.818   0.119  13.976 -0.0539  0.2660 -0.1778
14180W        W29797  16.924   8.199   4.420  0.3319 -0.0775  0.0213
14181W        W29798  14.105  14.824  12.080 -0.0794 -0.0657 -0.2095
14182W        W29799   7.752  11.548  14.991  0.2201  0.2189 -0.1330
14183W        W29800   4.088  12.847   2.371  0.0990 -0.2380 -0.0136
14184W        W29801   6.619  16.257  14.094  0.1159  0.3415  0.1827
14185W        W29802  17.978  18.379   2.846 -0.2790 -0.0501  0.2989
14186W        W29803  15.817  11.920  11.294 -0.1759 -0.2588 -0.3610
14187W        W29804   2.608  18.361  13.083 -0.1285  0.2273  0.0295
14188W        W29805   5.844  10.992   4.264 -0.0776  0.0633  0.1533
14189W        W29806  16.503  12.459   0.986 -0.0151 -0.0115  0.1393
14190W        W29807  11.925  11.312   3.083  0.0961 -0.0589 -0.2374
14191W        W29808  13.250  16.131   0.058  0.2500  0.0761  0.2782
14192W        W29809   1.368  16.134   5.667  0.2254  0.0414 -0.2313
14193W        W29810   2.561  17.738  12.096  0.0475 -0.4117 -0.2062
14194W        W29811   2.914  10.622  11.896  0.1949  0.2218 -0.2980
14195W        W29812   7.174   6.441  15.099 -0.2052  0.2518 -0.4041
14196W        W29813   8.670   1.449   0.419 -0.0892 -0.0121 -0.1026
14197W        W29814   1.900   8.275   1.408 -0.1880 -0.2752 -0.2833
14198W        W29815   2.880  16.861   2.802  0.1883 -0.1845  0.1521
14199W        W29816   5.593  12.797  14.993 -0.1888  0.0870 -0.1214
14200W        W29817  13.749   4.971   1.515  0.1014 -0.1010 -0.1415
14201W        W29818   3.800   4.076  15.142 -0.0571 -0.2422  0.1556
14202W        W29819  13.576  13.217   4.028  0.4030 -0.1142  0.0537
14203W        W29820   3.815   1.583   3.311  0.1345  0.1388  0.0480
14204W        W29821  18.036   4.984   6.133 -0.1467 -0.0107 -0.2056
14205W        W29822  15.986   8.904  13.733  0.1000 -0.2465  0.2704
14206W        W29823   5.969   8.410   0.343 -0.1902  0.1743  0.0815
14207W        W29824   4.685   1.687  14.013 -0.0704  0.0050  0.1646
14208W        W29825   0.514   9.958   0.289 -0.0734 -0.1852 -0.1038
14209W        W29826  17.517  14.264   2.155  0.1042 -0.0500  0.1457
14210W        W29827  10.784   9.346   2.893  0.1953  0.0726 -0.2012
14211W        W29828  12.181   3.977   2.620 -0.1795 -0.1496 -0.1934
14212W        W29829   0.775   2.094  13.803  0.2014 -0.1125  0.0859
14213W        W29830   8.583   8.188  12.641 -0.0915 -0.4562  0.0138
14214W        W29831   0.302   7.763   2.063 -0.2938 -0.1547  0.0412
14215W        W29832   8.733   4.986  12.679 -0.2416  0.0865  0.0385
14216W        W29833  12.998  13.465   3.763 -0.2328 -0.0089  0.2129
14217W        W29834   1.462   6.196  12.230  0.1994 -0.1171  0.0092
14218W        W29835   4.727   0.849   2.638  0.2168 -0.1764 -0.0757
14219W        W29836  10.676   5.160   2.523 -0.0147  0.0351  0.0712
14220W        W29837   1.892  12.030  10.598  0.0433 -0.2404 -0.4514
14221W        W29838   2.888   3.356  16.020 -0.1665 -0.0847  0.0356
14222W        W29839   7.812   0.406   4.189  0.0042  0.0532  0.5362
14223W        W29840  17.270  16.654   6.061 -0.4630 -0.1554  0.1406
14224W        W29841  17.496   9.113   4.958 -0.0060 -0.1158  0.1000
14225W        W29842  12.077  17.217   3.190  0.0021 -0.0254  0.0252
14226W        W29843  11.903   4.817  13.945  0.2428 -0.0711 -0.0067
14227W        W29844  11.045   6.751  14.997 -0.0509 -0.0447  0.0556
14228W        W29845  18.355  13.253  13.621 -0.0700  0.0165  0.2377
14229W        W29846   5.471   9.456   2.843 -0.0144  0.2072 -0.1631
14230W        W29847  10.703  18.377   3.332 -0.0566  0.2345 -0.0851
14231W        W29848   0.651   2.722   3.081  0.3195 -0.1382  0.1302
14232W        W29849   3.992   5.273   2.595  0.2247  0.3193 -0.3999
14233W        W29850  17.237  11.577   6.083  0.0077  0.3498  0.1975
14234W        W29851   1.848  13.793   0.051 -0.0407  0.1832  0.1540
14235W        W29852  12.951   1.544  15.605 -0.1596 -0.1225 -0.0762
14236W        W29853  13.061   3.810  12.184  0.2405  0.1600 -0.0441
14237W        W29854   5.890   1.752  15.068 -0.3398  0.3101  0.1389
14238W        W29855  18.261  14.318   4.777 -0.1398 -0.2918  0.1604
14239W        W29856   7.061   3.329  15.480  0.1100 -0.1759  0.0926
14240W        W29857   6.042  16.000  14.926  0.1257  0.2454  0.1809
14241W        W29858  13.285  15.836   2.447 -0.0111  0.0394  0.0565
14242W        W29859   9.873   4.474   1.460 -0.1485 -0.1337  0.2331
14243W        W29860   0.903   5.659  13.239 -0.1142 -0.1346 -0.2775
14244W        W29861   7.442  12.684  13.703  0.0340 -0.1221 -0.1467
14245W        W29862   2.798  11.192   2.774  0.0993 -0.0858  0.0964
14246W        W29863   1.545  13.921  13.538 -0.0045 -0.1078  0.0880
14247W        W29864   4.621   8.657   3.293  0.2195 -0.2501 -0.0851
14248W        W29865   3.934   7.178   4.986 -0.0782  0.2013  0.2741
14249W        W29866   8.101   0.728   3.835 -0.0391  0.1701 -0.2653
14250W        W29867   1.498  11.253  13.002  0.1713 -0.2115 -0.2193
14251W        W29868  16.613   4.772  11.975 -0.1919 -0.4577  0.0126
14252W        W29869  14.637   4.205  13.282 -0.0695 -0.3422  0.0680
14253W        W29870   9.456   2.490   4.366  0.2395 -0.4137  0.0128
14254W        W29871  18.350  12.982   0.060  0.1469 -0.1171 -0.1144
14255W        W29872  10.510   6.128   2.326 -0.1048 -0.3806  0.3462
14256W        W29873  14.658   2.056  15.180 -0.0805  0.2048  0.2577
14257W        W29874   7.013   1.406   3.411 -0.2482  0.4467  0.1357
14258W        W29875  10.113   7.904   5.391  0.2585  0.2503 -0.1694
14259W        W29876   3.166   1.420  12.106 -0.2872 -0.0961 -0.0260
14260W        W29877  12.240   3.863  10.787 -0.1314  0.0695  0.0814
14261W        W29878  18.333   2.966   3.982  0.3534 -0.1420 -0.0626
14262W        W29879   8.747  14.909  15.318  0.2542 -0.0491  0.0592
14263W        W29880   7.689   1.850  12.224 -0.0270 -0.3212  0.1991
14264W        W29881  12.690   8.894   4.096  0.4676  0.2634  0.1598
14265W        W29882   0.683  16.923  15.081 -0.0974  0.3482 -0.2437
14266W        W29883  14.720   5.001   0.409  0.2960  0.0115  0.0259
14267W        W29884  16.850   9.998  11.024  0.6829  0.0866  0.0887
14268W        W29885  17.057  13.902  15.502 -0.2756  0.0170  0.0737
14269W        W29886  16.863   0.733   4.903 -0.0180 -0.0035 -0.1993
14270W        W29887  14.225  18.014   6.144 -0.2692 -0.3682  0.0518
14271W        W29888   4.841   7.061   1.731  0.0484 -0.0480 -0.0447
14272W        W29889   8.192   4.235   3.477  0.1676 -0.2431 -0.0299
14273W        W29890   4.720   5.500   1.275 -0.1240 -0.0454 -0.2242
14274W        W29891   8.643   4.493  14.166 -0.2414 -0.0612  0.2177
14275W        W29892   7.575   3.074   3.616  0.2143  0.0866 -0.0388
14276W        W29893   3.185   6.924   3.312  0.0037  0.0645  0.3227
14277W        W29894   6.627  18.010   1.767 -0.0247 -0.0564 -0.1536
14278W        W29895   1.940  14.072  13.774 -0.0850 -0.0575 -0.2543
14279W        W29896   2.276  18.415  14.956 -0.2174 -0.1772  0.2353
14280W        W29897   0.412  15.810  15.309 -0.3098  0.2320  0.1551
14281W        W29898  16.457  13.271  15.017 -0.1480 -0.1225  0.2519
14282W        W29899   6.301   7.735  13.498 -0.0379 -0.0422 -0.1980
14283W        W29900  11.755  17.050  15.916  0.1971 -0.2158  0.1775
14284W        W29901   7.746  16.749   5.329 -0.1294 -0.0730  0.1952
14285W        W29902   4.586  11.786   5.436 -0.2191 -0.0703 -0.2449
14286W        W29903   8.960  13.423  12.385 -0.0035 -0.1397  0.0715
14287W        W29904   4.120   5.364  13.392 -0.0926  0.1737  0.0503
14288W        W29905   6.528  18.039   4.798 -0.2254  0.3983  0.0885
14289W        W29906   8.744   8.721   5.038  0.0212  0.1951  0.1317
14290W        W29907  17.976  15.686   2.000  0.2432  0.1836 -0.2418
14291W        W29908  14.457   9.103  12.980  0.1615 -0.0440 -0.1132
14292W        W29909   9.881  11.928  14.183 -0.0371 -0.2774 -0.2772
14293W        W29910  13.797   3.474  14.958 -0.3921  0.2944 -0.2148
14294W        W29911   8.414  13.690   4.548  0.0292 -0.1154  0.0226
14295W        W29912  10.049   3.610   3.995 -0.3803  0.1253 -0.2173
14296W        W29913  12.703   2.204  12.572  0.2576  0.0863  0.0048
14297W        W29914  17.223  18.088   3.494  0.0722  0.2079  0.1478
14298W        W29915   1.935  13.427   1.188 -0.0657  0.0153  0.0102
14299W        W29916  17.374   3.700   4.873 -0.0271  0.3826  0.2615
14300W        W29917  13.310   5.171  14.405 -0.3136  0.0092  0.0624
14301W        W29918  14.748  15.197  10.603 -0.0580  0.0079 -0.3442
14302W        W29919   2.864   0.015   1.337  0.0202 -0.0042 -0.2810
14303W        W29920  11.414   2.819  12.345  0.3381  0.3642  0.1513
14304W        W29921   1.414  12.149   0.165  0.2389 -0.0648  0.1569
14305W        W29922  12.642   9.350   4.874  0.3252 -0.2088  0.0230
14306W        W29923  15.553  14.220  15.927  0.1336 -0.1429  0.1489
14307W        W29924   7.771  15.671  12.276 -0.0676  0.1008 -0.3054
14308W        W29925  12.043   0.684  15.142 -0.1960  0.1322  0.1134
14309W        W29926   3.391   2.371   5.141 -0.2064  0.0274 -0.2990
14310W        W29927  12.988   9.738   1.790  0.0802 -0.1631 -0.0924
14311W        W29928   0.736   5.694   1.638  0.0496 -0.0053 -0.1887
14312W        W29929   7.528   9.286   1.142 -0.1771 -0.0674 -0.0323
14313W        W29930   6.170   7.857  10.603  0.0314 -0.0463 -0.0587
14314W        W29931  16.685  11.469  12.812 -0.0932  0.0274  0.2344
14315W        W29932  12.306  12.262   3.015 -0.0936  0.0508  0.0521
14316W        W29933   9.993  15.682   1.478  0.2976 -0.0084 -0.0758
14317W        W29934   8.620   1.371  11.316 -0.2213 -0.0391  0.0866
14318W        W29935   1.902  16.356  15.283  0.0297  0.0764 -0.0195
14319W        W29936  10.522   4.364  12.409 -0.1670  0.1774 -0.0502
14320W        W29937   5.600   6.362   2.508  0.2372  0.2314  0.1296
14321W        W29938   0.160  11.219  11.632 -0.1706  0.0720 -0.3466
14322W        W29939   6.787  17.734   2.164  0.0241  0.0328 -0.0380
14323W        W29940  15.774   8.525   3.543 -0.0006 -0.2701 -0.1812
14324W        W29941  15.407  10.921   1.867 -0.1404  0.0542 -0.4091
14325W        W29942  18.011   2.182  12.916 -0.0270 -0.2724  0.0708
14326W        W29943   1.869   2.580   5.065  0.0371  0.0202  0.0103
14327W        W29944  11.095   4.658   1.489 -0.0486  0.0290 -0.1193
14328W        W29945  11.499  13.118   3.953 -0.3820  0.1673  0.2092
14329W        W29946   9.067  12.454  14.339 -0.4016 -0.1791 -0.0622
14330W        W29947  11.288   3.953   5.578  0.1197 -0.1263 -0.0907
14331W        W29948  17.793   9.897  15.226  0.1081 -0.1075 -0.1035
14332W        W29949  16.660   1.747   2.385  0.2792 -0.0977 -0.2482
14333W        W29950   9.661   2.101  13.491  0.1094 -0.2270 -0.0666
14334W        W29951  15.638  13.631   5.037 -0.2357  0.0922  0.0527
14335W        W29952  18.076   3.888   2.357  0.1179  0.1713  0.2170
14336W        W29953   3.213  14.170   3.041 -0.1292 -0.0760  0.0268
14337W        W29954   6.860   0.363   0.659  0.1988  0.1405  0.2232
14338W        W29955   8.012   7.121  12.318  0.3874 -0.2089  0.1087
14339W        W29956   8.071   1.067  13.428 -0.0791  0.0044  0.4078
14340W        W29957  13.690  16.204   1.570  0.2291 -0.3238  0.1033
14341W        W29958   3.154   7.387  15.312 -0.0204  0.1314  0.0760
14342W        W29959   3.104   3.490  14.958 -0.2722  0.0537  0.1209
14343W        W29960   5.065  18.167  13.533  0.2525 -0.2378 -0.1635
14344W        W29961  16.239  13.720  13.163 -0.1476  0.0322  0.0622
14345W        W29962  17.782   4.536  12.730  0.1570  0.2060 -0.2544
14346W        W29963  11.848  16.147   5.374 -0.1257  0.1767 -0.1662
14347W        W29964   0.367   3.212  11.586  0.2140 -0.0585 -0.0201
14348W        W29965  16.907  18.260  14.155  0.1058 -0.1478  0.0776
14349W        W29966   8.818  12.429   4.655  0.1739  0.2281  0.1639
14350W        W29967   8.826  14.328  16.029 -0.0217 -0.3973 -0.0747
14351W        W29968  14.812   8.350   4.346 -0.1306 -0.2974  0.0412
14352W        W29969   4.615  14.467   1.518  0.1279 -0.0326  0.0718
14353W        W29970   1.657   2.471  11.351 -0.2545  0.0067 -0.2941
14354W        W29971  17.594   9.701  11.163 -0.0845  0.3100  0.2250
14355W        W29972   1.583  15.734  11.657  0.0257  0.1173  0.1896
14356W        W29973   1.073  15.172  12.828 -0.2248  0.1619 -0.0392
14357W        W29974   2.587  10.747   2.575 -0.2408  0.0102 -0.2743
14358W        W29975   1.404   0.518  12.531  0.2600 -0.2057 -0.1021
14359W        W29976   4.988  11.526   4.977  0.1321 -0.1357 -0.1894
14360W        W29977   7.869  10.947  10.656  0.1069  0.3998 -0.0294
14361W        W29978  13.529  10.033  15.582  0.1735 -0.0284  0.0636
14362W        W29979  15.844   1.870   2.740  0.2053 -0.0551 -0.1566
14363W        W29980   5.746   6.370  11.830 -0.2245  0.0990 -0.1285
14364W        W29981  12.866   2.803   2.003 -0.0087 -0.0565 -0.1538
14365W        W29982  14.958  11.321  14.055 -0.3922  0.0871 -0.1390
14366W        W29983   0.900   1.676   3.580  0.1245 -0.2102 -0.0529
14367W        W29984  10.621  12.728   2.252  0.0473  0.1324  0.0810
14368W        W29985   6.015  10.909   3.787  0.2153 -0.3349 -0.0631
14369W        W29986  10.713  14.350  14.987  0.2748 -0.0923 -0.2643
14370W        W29987  10.914  13.699  12.192  0.0205  0.3934  0.1982
14371W        W29988  12.452  13.499   3.736 -0.1448 -0.0398  0.0325
14372W        W29989   0.274  12.025   1.546 -0.3437 -0.0642 -0.0104
14373W        W29990  16.653   0.402   2.763  0.2305 -0.6366 -0.1719
14374W        W29991   9.159  11.886  13.410  0.1685 -0.1525 -0.2627
14375W        W29992  11.413  18.088  14.662  0.1074 -0.1472 -0.4795
14376W        W29993   1.471   9.348   3.285 -0.2288  0.0320  0.1770
14377W        W29994   0.750   2.553   4.439  0.2671  0.1943  0.2434
14378W        W29995  18.005   8.158   0.862 -0.1764  0.3047  0.2178
14379W        W29996   1.701   2.282   1.001 -0.1203 -0.3479  0.0641
14380W        W29997  10.469  18.370  14.147 -0.0493 -0.1903 -0.2288
14381W        W29998   6.166  15.133   2.371  0.2453 -0.0047  0.2167
14382W        W29999  17.666   6.804   5.374  0.1188  0.0131 -0.4491
14383W        W30000  13.997   9.211   3.908 -0.2558  0.1356 -0.3377
14384W        W30001  12.559  10.961   2.721  0.0017  0.2496 -0.1158
14385W        W30002   6.980   4.142   2.471 -0.3056 -0.1823 -0.1934
14386W        W30003   4.826   0.150  13.453  0.0447 -0.1363  0.2577
14387W        W30004   9.384  18.432   1.909 -0.0835  0.2002  0.3328
14388W        W30005   2.475  14.997  13.661 -0.2285  0.0347 -0.0437
14389W        W30006  17.661   7.187  10.056  0.1955 -0.2657 -0.0965
14390W        W30007  16.829   8.687   4.514  0.2696 -0.2920  0.0380
14391W        W30008  14.005   1.484  12.441  0.0455 -0.2115 -0.3096
14392W        W30009   1.762   1.142   2.956 -0.1976  0.2945  0.1257
14393W        W30010   3.124   4.096   4.791 -0.0613  0.1774 -0.0975
14394W        W30011   2.141  11.721   1.739  0.2213  0.1651 -0.0319
14395W        W30012  18.221   5.943  14.374  0.2953  0.0606 -0.1339
14396W        W30013   3.431  14.708  13.894  0.1818 -0.2408 -0.0722
14397W        W30014   7.450   7.713   0.221 -0.1034 -0.1264 -0.2084
14398W        W30015   9.010   3.606  11.742  0.2046  0.0753  0.0349
14399W        W30016   3.701  11.168   1.225 -0.0860  0.4377  0.1589
14400W        W30017   7.857   9.764   2.226 -0.1620  0.0396 -0.0051
14401W        W30018  12.746   9.838   9.770 -0.3400  0.0387 -0.2591
14402W        W30019   2.126  14.198  11.906 -0.3322  0.0830  0.1344
14403W        W30020   5.027   5.018   4.527 -0.0486  0.2312 -0.3535
14404W        W30021  10.777  10.924  12.848 -0.0062  0.0958 -0.0482
14405W        W30022  11.155  14.722   4.217  0.0004 -0.0463 -0.1269
14406W        W30023   4.403   6.944  10.600  0.2827  0.1038 -0.2118
14407W        W30024  16.379  11.015  14.594  0.4169  0.1603 -0.3458
14408W        W30025  18.458  12.049   3.141  0.2998  0.0122  0.2231
14409W        W30026   1.085   6.204  13.151 -0.1241 -0.1303 -0.0713
14410W        W30027   3.658   2.520  12.199  0.1057 -0.0158 -0.1861
14411W        W30028  16.219   6.134   0.130 -0.1671 -0.1000 -0.0663
14412W        W30029   6.451   8.378  11.231  0.0424  0.0063 -0.3413
14413W        W30030  18.264   3.671   2.825  0.3508  0.0262  0.0220
14414W        W30031   3.172   5.235   0.089 -0.2027  0.0667 -0.2592
14415W        W30032   7.375   2.202   0.345 -0.0252  0.0299  0.1033
14416W        W30033   0.235   9.707   1.089  0.1217 -0.1062  0.0027
14417W        W30034   6.052  10.447  14.389 -0.3041 -0.1022 -0.1491
14418W        W30035   9.260   7.687   2.764 -0.2024 -0.3147 -0.3516
14419W        W30036   0.693  13.864   1.735  0.0312  0.0232  0.0191
14420W        W30037   7.332  11.514   0.701 -0.0224  0.0733 -0.0437
14421W        W30038  15.807   6.397  10.967 -0.0466  0.4196  0.0462
14422W        W30039   1.024   5.787  10.859 -0.2262  0.1910 -0.2209
14423W        W30040  11.374  16.261   2.782  0.0618  0.0286 -0.1911
14424W        W30041   0.580  12.808   4.170  0.0440  0.0962  0.0610
14425W        W30042   9.483   2.005   3.268  0.1025 -0.1717  0.3454
14426W        W30043  12.660   0.445  15.672  0.0853  0.0657 -0.3211
14427W        W30044   3.450  14.928   5.418  0.2422  0.4255 -0.0837
14428W        W30045  15.334   0.006   5.826  0.3134 -0.0820  0.1478
14429W        W30046  17.010   0.099   4.424  0.0489  0.0601  0.0628
14430W        W30047  12.224  11.028   3.603  0.1297 -0.3112 -0.4392
14431W        W30048  10.535   8.762  11.836 -0.0910  0.0739 -0.1258
14432W        W30049  12.527   2.880  11.092 -0.1823  0.0069 -0.2124
14433W        W30050  13.596   9.816   4.750  0.2186  0.2396 -0.3050
14434W        W30051  13.793  17.473  14.672  0.0435  0.2867  0.0297
14435W        W30052   6.019  16.084  12.504 -0.1101 -0.0722 -0.4326
14436W        W30053   6.858  11.689   4.721 -0.2479 -0.2410 -0.2614
14437W        W30054  14.037  16.725  14.535  0.2263  0.1282  0.0305
14438W        W30055   5.147  11.864   2.703  0.0664 -0.0234 -0.1759
14439W        W30056  16.885   6.625  10.778  0.1815 -0.0349 -0.2232
14440W        W30057  16.202  10.729   4.041 -0.2280  0.1152 -0.0816
14441W        W30058   4.472  13.677  12.004  0.1865 -0.2974  0.1076
14442W        W30059   9.382   6.360  14.975  0.2354  0.1878 -0.1988
14443W        W30060  16.609   2.514   2.713 -0.1753  0.3902  0.0683
14444W        W30061   2.075   8.935  14.739  0.2107 -0.0836 -0.0363
14445W        W30062   5.926   7.231  12.273  0.1828 -0.0865 -0.0472
14446W        W30063  12.971   7.426   1.034  0.0189 -0.1018  0.1594
14447W        W30064   6.702  13.591   6.193  0.0858  0.0374 -0.0556
14448W        W30065  13.322   1.619   1.603  0.0192  0.3882 -0.0113
14449W        W30066   4.916  17.547  15.603  0.0433  0.3098 -0.2117
14450W        W30067   9.565   9.007  15.958  0.0400  0.0541  0.0459
14451W        W30068  15.731   8.823  12.740 -0.0424  0.0253 -0.0045
14452W        W30069   6.115  14.810  14.749 -0.2014 -0.1144 -0.0016
14453W        W30070  10.006  16.943   0.313  0.1345  0.0499  0.0150
14454W        W30071   6.361   9.249   3.216  0.0522  0.0306 -0.0760
14455W        W30072  17.965  15.761  15.641  0.1348  0.1580 -0.0655
14456W        W30073   5.487   3.164   1.127  0.3969 -0.1003 -0.1092
14457W        W30074   3.254  12.994   1.412 -0.0594 -0.0161  0.1787
14458W        W30075   8.078   2.450   1.620 -0.3231 -0.1642  0.0648
14459W        W30076   0.863   3.039  13.364  0.1012 -0.2310  0.1014
14460W        W30077   8.911  11.166  15.539 -0.3359  0.3111  0.0880
14461W        W30078   0.840  14.111  12.888 -0.0747 -0.0584  0.2015
14462W        W30079  12.634   3.604  14.041  0.0873 -0.1773  0.1862
14463W        W30080   9.944  16.539   3.166  0.4029  0.0206 -0.0481
14464W        W30081  17.611  11.795   1.587 -0.1928  0.0730  0.0577
14465W        W30082   1.219  13.703   5.969 -0.1095 -0.0685  0.3435
14466W        W30083  10.710  11.928  12.972 -0.3299  0.2451  0.0888
14467W        W30084   3.191  18.293   4.270 -0.0092  0.1472  0.1243
14468W        W30085   8.575   0.481   3.681 -0.0247 -0.1725  0.0646
14469W        W30086   3.089  14.315  15.076  0.2380 -0.0176 -0.1346
14470W        W30087   3.831   1.934   1.917 -0.1789 -0.0577  0.1098
14471W        W30088  14.342   9.162   1.923  0.0856 -0.3549  0.0220
14472W        W30089  12.167  10.728   0.617  0.1563 -0.0395 -0.1617
14473W        W30090   1.826  16.345   0.773 -0.2142 -0.3373  0.1348
14474W        W30091   9.317   7.284  13.637  0.1576 -0.0007 -0.2776
14475W        W30092  17.322  12.674  11.968 -0.2878  0.2760  0.2938
14476W        W30093   7.829   2.514  13.136 -0.5708 -0.1526 -0.1883
14477W        W30094   7.382   3.736  15.472 -0.0617 -0.0224 -0.1576
14478W        W30095  11.071   3.715  12.384  0.1157  0.2256  0.2295
14479W        W30096   7.652   4.159   3.213  0.1367 -0.1003 -0.3653
14480W        W30097   4.485   4.411   5.119 -0.1911 -0.2278 -0.2875
14481W        W30098  14.741   7.189  13.478 -0.0800 -0.1670 -0.0540
14482W        W30099   6.382  10.692   4.034  0.1891  0.2698 -0.0550
14483W        W30100   6.265   7.988   3.010 -0.3906  0.2408  0.2225
14484W        W30101   5.762  14.779  14.295  0.1951  0.1317 -0.0385
14485W        W30102   8.411  10.944   3.299 -0.0955  0.0353 -0.1410
14486W        W30103   8.556  10.742  15.599 -0.3222 -0.0208  0.3335
14487W        W30104   5.793   8.990  12.170  0.4502  0.0728  0.0221
14488W        W30105   3.325   7.053   5.526  0.3136  0.0212 -0.2214
14489W        W30106   3.199  17.743   1.747 -0.1079  0.0127  0.3012
14490W        W30107  15.898  16.547  14.743  0.0505 -0.2787 -0.1736
14491W        W30108   3.231  14.225   0.718 -0.0256 -0.0287  0.2056
14492W        W30109   4.119   1.649  14.217 -0.0240 -0.1405  0.0924
14493W        W30110  17.714  15.236   0.760  0.1227  0.4145 -0.2271
14494W        W30111  12.118  14.915  11.118  0.0625  0.1211  0.2062
14495W        W30112   7.327   2.454  15.967  0.1649  0.3701 -0.2823
14496W        W30113  15.690   2.164  15.468 -0.0868  0.0794 -0.1887
14497W        W30114  13.636  17.490   2.193 -0.0765 -0.0284  0.1954
14498W        W30115   5.631   5.762   0.132 -0.0634  0.1785  0.0856
14499W        W30116  16.126   5.535   3.029 -0.1172 -0.1621 -0.1154
14500W        W30117  11.316   2.043  12.968  0.1383 -0.2821 -0.2234
14501W        W30118   9.935   2.557   4.975  0.2307  0.0778  0.0580
14502W        W30119   5.639  16.241   4.254  0.1422 -0.0898 -0.3025
14503W        W30120  18.312  17.945  12.383 -0.0875 -0.0933 -0.0415
14504W        W30121  12.095   1.125  11.865  0.1359 -0.1735 -0.3039
14505W        W30122  13.358   1.798   2.624 -0.3234  0.2433  0.1299
14506W        W30123   3.643  15.671  13.218  0.1592 -0.0504 -0.2099
14507W        W30124   6.237  17.185   4.492 -0.0866  0.1524 -0.0645
14508W        W30125   7.455   3.897  15.027  0.0258  0.1691  0.0249
14509W        W30126   3.175  15.649   0.775  0.0758  0.0038  0.5682
14510W        W30127   6.028   4.372   5.175  0.0340 -0.1185 -0.2220
14511W        W30128   4.343  15.598   3.919  0.2732  0.1869 -0.5048
14512W        W30129   3.685  12.486  15.791 -0.1535 -0.0451 -0.1626
14513W        W30130   1.436  16.008  14.214  0.0478 -0.5798 -0.0040
14514W        W30131  16.495   0.239   3.242  0.4510 -0.0063 -0.1472
14515W        W30132   0.222   0.450  15.612 -0.3614  0.1709 -0.0801
14516W        W30133   9.659  10.236   2.387 -0.1133 -0.0175  0.0280
14517W        W30134  18.451   4.059   5.384 -0.5629 -0.1968  0.1052
14518W        W30135   8.698   5.270  11.617  0.3781 -0.1080 -0.1036
14519W        W30136   6.117  16.307   0.068  0.0381  0.2519 -0.1278
14520W        W30137   7.110   1.810   2.380  0.2301 -0.2836 -0.0459
14521W        W30138   6.706   3.312  10.631 -0.3289 -0.1096 -0.3007
14522W        W30139  18.297  11.292   5.404 -0.0212 -0.0337 -0.2667
14523W        W30140   0.841   8.500   1.908 -0.1740 -0.2732  0.0622
14524W        W30141   9.236   4.612   4.460 -0.2444 -0.1392 -0.0108
14525W        W30142   8.868   2.785  13.401 -0.0404  0.1131 -0.1992
14526W        W30143  11.113   5.731   1.811  0.2174  0.1515  0.0610
14527W        W30144  11.268  11.297   5.358  0.0277  0.0311  0.0344
14528W        W30145   3.148   7.110   6.068  0.0752 -0.3507 -0.0249
14529W        W30146   5.993  11.775   0.595  0.0594 -0.0469 -0.0679
14530W        W30147   2.421  12.997   0.603 -0.2585 -0.1097  0.1390
14531W        W30148   4.518   7.580   1.417  0.2712  0.1203 -0.3672
14532W        W30149  12.785  11.626  15.994  0.3056 -0.0057 -0.1787
14533W        W30150   0.468  15.137   0.397 -0.0786 -0.1277  0.2163
14534W        W30151   2.981  13.047  12.590 -0.1218  0.0348  0.2281
14535W        W30152  13.785   9.889  15.941 -0.1261 -0.0536  0.0239
14536W        W30153   8.562  12.081   1.323 -0.0911 -0.0603 -0.1551
14537W        W30154   6.260   1.338  16.030  0.0175  0.2082 -0.0216
14538W        W30155  10.479  10.462  12.017  0.1131 -0.1098 -0.1564
14539W        W30156   2.141   0.633   2.542  0.2264  0.1094 -0.0174
14540W        W30157   8.615  11.752  13.421 -0.2727  0.2385  0.0572
14541W        W30158   8.055   1.339  15.312  0.1030  0.1821  0.0010
14542W        W30159   0.327   4.239   1.865  0.1363 -0.2162 -0.0492
14543W        W30160  17.785  13.430  14.915 -0.0410  0.0120 -0.2379
14544W        W30161  15.767  14.234   1.090 -0.0556 -0.3356  0.1144
14545W        W30162  11.734   6.808   3.342 -0.1380 -0.2724  0.1744
14546W        W30163   9.484   9.524  15.254  0.2239 -0.0112  0.0020
14547W        W30164   1.316  10.074  14.057 -0.0895  0.1610 -0.1158
14548W        W30165  14.165  15.479  14.417 -0.0476 -0.0895  0.0261
14549W        W30166  14.362   6.062   1.878  0.0085  0.0051 -0.1470
14550W        W30167  18.284  10.680   5.393 -0.0702  0.1784 -0.3282
14551W        W30168   7.918   9.123   3.007  0.0137 -0.1122  0.2241
14552W        W30169  17.646  12.033   2.352 -0.0648 -0.0066 -0.1145
14553W        W30170   2.942   3.388  11.509 -0.3449  0.1443 -0.1796
14554W        W30171  15.198   1.429   3.239 -0.0319 -0.0292 -0.0516
14555W        W30172   0.831  16.443   4.818  0.1474  0.0648 -0.1451
14556W        W30173   4.846   6.354  12.042 -0.0477  0.1074  0.0760
14557W        W30174  11.079  11.533   4.566 -0.0173  0.0875 -0.2856
14558W        W30175   8.929   8.427  15.365  0.1741  0.1354  0.2298
14559W        W30176  11.365  12.516   0.841  0.0145 -0.1143  0.0610
14560W        W30177  18.249   3.868   3.701  0.0548 -0.3210  0.1175
14561W        W30178   7.195   8.708  11.266  0.2287 -0.0973  0.0637
14562W        W30179   6.492  17.331  13.722  0.0261  0.1950 -0.0510
14563W        W30180  11.947  13.499  11.219  0.2249  0.2427  0.0673
14564W        W30181   9.455  16.856   4.092 -0.0116  0.1664 -0.0575
14565W        W30182  11.584   7.073   2.629 -0.1531 -0.1844  0.0491
14566W        W30183   2.688   5.469  11.246  0.0555 -0.0190 -0.3600
14567W        W30184  14.360  12.200   5.771  0.0370 -0.0729 -0.3290
14568W        W30185   8.462  10.114   4.571  0.1055  0.0397  0.1062
14569W        W30186  17.494   0.909   5.829  0.4276 -0.1818 -0.0555
14570W        W30187   1.309   2.811  15.957 -0.1653  0.1296  0.1362
14571W        W30188  17.104  14.272  10.600  0.0089 -0.0799  0.1199
14572W        W30189   0.079   4.388  15.461  0.2124 -0.0042 -0.0408
14573W        W30190   0.916   7.509   0.801 -0.2545 -0.2977 -0.0898
14574W        W30191  10.783  17.415  13.825 -0.0034  0.2314  0.2080
14575W        W30192  11.953  11.156  11.066  0.2189 -0.0064  0.1283
14576W        W30193  15.550  16.654   2.811  0.2788 -0.0331  0.0767
14577W        W30194  13.513   6.264  11.468  0.0630 -0.0650 -0.1664
14578W        W30195  14.520   7.766   0.882 -0.1483 -0.0368 -0.1814
14579W        W30196  11.454   7.207  10.226 -0.0994  0.2365  0.3310
14580W        W30197  12.398   9.589  14.105 -0.2854  0.2198  0.2070
14581W        W30198  11.033   3.380   2.531 -0.2329 -0.1011 -0.1830
14582W        W30199   3.862  11.268  13.608 -0.2919  0.1838 -0.0526
14583W        W30200  12.576   8.287   1.071  0.1383  0.0197  0.6225
14584W        W30201   3.395   6.300  12.601 -0.1247  0.3122 -0.1714
14585W        W30202  10.337   7.580   0.641  0.1441  0.0926 -0.0210
14586W        W30203   2.987   4.997   4.585 -0.1208  0.2757 -0.0700
14587W        W30204   8.286   9.399   4.113 -0.2760  0.0203 -0.2540
14588W        W30205   7.157   4.002  13.300 -0.1515  0.0252 -0.1185
14589W        W30206  10.544  18.171  12.776  0.1006 -0.2474 -0.2876
14590W        W30207  11.263  18.029   1.453 -0.1096 -0.0350  0.2790
14591W        W30208   7.221   7.162  12.566  0.3148 -0.3289 -0.3356
14592W        W30209   8.801  16.738  10.327  0.1204  0.0088 -0.1458
14593W        W30210  16.663  17.866  16.123  0.0366  0.3012  0.1695
14594W        W30211  11.146  11.379  11.646  0.2036 -0.1791  0.1134
14595W        W30212  18.074   5.777  11.029  0.1040  0.0292 -0.3620
14596W        W30213   3.665  10.438   5.362 -0.4394  0.2724  0.0265
14597W        W30214   7.707   2.701   2.708 -0.0080 -0.3265 -0.2296
14598W        W30215  10.714   0.313  15.514 -0.0966 -0.0038  0.2250
14599W        W30216  15.568   9.801  15.917 -0.1688 -0.4210 -0.0126
14600W        W30217   0.914   5.008   2.710  0.0243 -0.1556  0.4603
14601W        W30218  14.650  16.061   5.555 -0.1577  0.2234 -0.1198
14602W        W30219  11.171  11.012  13.978 -0.1754  0.1031  0.0138
14603W        W30220   3.979   5.023  14.829 -0.1815  0.0428 -0.2701
14604W        W30221  18.278  11.219  14.318 -0.0066  0.2031  0.1892
14605W        W30222   7.581  17.377  14.674 -0.3836  0.0391  0.1813
14606W        W30223   9.822  14.065  14.987  0.0784 -0.3338  0.0077
14607W        W30224   8.704   8.572   0.638  0.2152 -0.0504 -0.1870
14608W        W30225  14.890  14.053   2.415  0.3617 -0.1433 -0.0782
14609W        W30226   2.359   9.422  14.994 -0.0462  0.4802 -0.1415
14610W        W30227  17.120  13.157  15.982 -0.1234  0.1830 -0.0603
14611W        W30228   7.410  13.823  12.935  0.4238 -0.1075 -0.0477
14612W        W30229   7.835   0.046  14.052 -0.0510 -0.1444 -0.4356
14613W        W30230  16.115  17.207  14.594  0.0465  0.2076  0.3312
14614W        W30231   3.882   5.314  10.707 -0.3751  0.1048 -0.2373
14615W        W30232   4.295  14.943  15.909  0.1981  0.0232  0.0409
14616W        W30233  17.800   3.273  15.664 -0.5012  0.0006  0.1165
14617W        W30234  13.259   6.198   4.270  0.2652  0.0544  0.1895
14618W        W30235  10.412   4.762   0.993  0.2174 -0.1002 -0.2595
14619W        W30236   6.819  17.747  15.201 -0.3443 -0.0374 -0.1202
14620W        W30237   5.554  14.203   6.266 -0.1901  0.3002  0.1299
14621W        W30238  11.354   4.083  14.892  0.3070  0.1478 -0.3798
14622W        W30239   8.516   0.954  12.773 -0.2285 -0.1505  0.0005
14623W        W30240  12.266   1.515  15.953 -0.0232 -0.1855  0.0017
14624W        W30241   9.378  16.232   4.839 -0.0979 -0.2164 -0.0465
14625W        W30242  13.540  14.570  14.776  0.1058 -0.1428 -0.1340
14626W        W30243   5.468   2.660  10.836  0.0192 -0.0453 -0.1116
14627W        W30244   5.001   4.711   1.888 -0.0548 -0.1567 -0.3638
14628W        W30245  17.536   9.873   2.399 -0.2998  0.0316  0.2505
14629W        W30246   0.263  17.254   1.219 -0.1456 -0.0350 -0.0345
14630W        W30247  11.542  18.232   6.188  0.0515 -0.0050 -0.1333
14631W        W30248  14.200   5.850   5.100 -0.0822  0.1439  0.1316
14632W        W30249   7.054   1.938   0.101  0.1909 -0.3783  0.0471
14633W        W30250  17.640  17.689  14.800  0.1658  0.2844  0.2234
14634W        W30251  11.520  17.157  15.101 -0.0791  0.1576  0.1511
14635W        W30252   2.894   6.304   5.691 -0.1109  0.0283  0.0902
14636W        W30253   5.049  17.714  12.808  0.0694 -0.2713 -0.3112
14637W        W30254  11.149   8.402  13.149 -0.1344 -0.4315  0.0788
14638W        W30255   8.599   6.688   0.215  0.0508 -0.0374 -0.1151
14639W        W30256   0.314   8.079  12.140  0.2125  0.3385 -0.2138
14640W        W30257  16.778  14.354   4.832  0.0398  0.1695  0.2895
14641W        W30258   3.804   6.294  13.997 -0.2840 -0.2577  0.0782
14642W        W30259   0.222  10.027   0.711 -0.0567 -0.0283 -0.0521
14643W        W30260  13.420   4.273  10.511 -0.2169  0.2695 -0.3218
14644W        W30261   8.045  17.411  12.503  0.1385 -0.2629 -0.2172
14645W        W30262   2.245  14.161  12.439 -0.3443  0.0708  0.2921
14646W        W30263   0.818  14.810   3.496 -0.2371  0.2235 -0.2749
14647W        W30264  16.335   4.634  13.251  0.2585 -0.1849  0.1474
14648W        W30265  10.213   0.232   2.561 -0.2314  0.1386 -0.1429
14649W        W30266  11.008   3.277  14.285  0.2817  0.1553 -0.1696
14650W        W30267  16.624  11.658   4.226  0.3202  0.2912 -0.2029
14651W        W30268   1.758   2.087  15.526  0.2722 -0.0112 -0.3527
14652W        W30269   0.518   5.488  12.943  0.4212 -0.0786  0.0905
14653W        W30270  12.019   1.061   3.460 -0.2545 -0.0191 -0.0883
14654W        W30271  15.409  13.426  13.105 -0.4518 -0.2423  0.0725
14655W        W30272   4.136  10.134  13.459  0.2660  0.1031  0.0654
14656W        W30273   3.611   5.151   3.764 -0.0745  0.2009  0.2185
14657W        W30274   7.883   1.585  14.124 -0.1023  0.0597  0.1042
14658W        W30275   9.631  15.318   1.353 -0.2802 -0.1668  0.0489
14659W        W30276  15.288   4.389  13.991  0.0169 -0.0553 -0.1081
14660W        W30277   3.664  13.806  14.205  0.1944 -0.1460  0.1725
14661W        W30278  11.619   6.511   3.993 -0.1880  0.1026  0.2136
14662W        W30279  14.215  17.662   2.211 -0.1335  0.1272 -0.1925
14663W        W30280   9.111   7.113  11.484  0.0600  0.0418  0.1041
14664W        W30281   4.487   8.636  11.814  0.0446  0.4903 -0.2185
14665W        W30282  11.435   1.932   2.813  0.0492 -0.0749 -0.0526
14666W        W30283  10.492   2.126   0.291 -0.1126 -0.2204  0.0274
14667W        W30284   4.079   1.336   2.935 -0.0235  0.1229 -0.0672
14668W        W30285   3.615   1.680  14.021  0.1383 -0.2028  0.1160
14669W        W30286   1.529   7.999  12.344  0.3959 -0.0254 -0.1034
14670W        W30287   3.566   2.881  11.279 -0.0144  0.1945  0.2546
14671W        W30288  16.677  18.002  11.527  0.2527 -0.0033  0.2462
14672W        W30289  16.272   0.473  14.079  0.0415  0.1993 -0.0131
14673W        W30290  12.392  10.090  16.137  0.2107 -0.1967 -0.0838
14674W        W30291  16.294   5.503   3.938 -0.2439  0.2088  0.2101
14675W        W30292   3.176   8.736   2.269  0.3108  0.2510 -0.2952
14676W        W30293  14.716   1.861   0.160  0.0114 -0.2190  0.1500
14677W        W30294   8.316  17.260  12.095 -0.0849 -0.1055  0.2142
14678W        W30295   5.175  13.393  11.838 -0.1359 -0.0795  0.0048
14679W        W30296  11.746  10.937  14.084  0.1657  0.0556  0.0101
14680W        W30297   8.079  12.642  12.610 -0.0292  0.0185  0.2292
14681W        W30298  13.632  12.221  13.534  0.0207 -0.4233  0.0182
14682W        W30299   8.614   6.212  11.551  0.1441 -0.0923 -0.0489
14683W        W30300  11.851   6.358   1.756  0.0346 -0.1861 -0.0516
14684W        W30301   3.552   3.589  15.756 -0.0934  0.2644 -0.3177
14685W        W30302  14.516   6.312   0.727 -0.1838 -0.1531  0.2048
14686W        W30303   3.798   6.954   4.536  0.1018  0.2106  0.2595
14687W        W30304   1.410   5.628  15.533 -0.0351 -0.2376 -0.4405
14688W        W30305   8.485  15.699   2.046  0.1043 -0.1374  0.0579
14689W        W30306  17.489   7.202   1.801 -0.1235  0.2916 -0.1774
14690W        W30307  12.106   7.161  14.919  0.0281  0.1880 -0.3445
14691W        W30308   6.860  10.379   4.143  0.1251  0.0572  0.0222
14692W        W30309   1.422   5.119  13.780  0.0098 -0.3598  0.4594
14693W        W30310   8.292  13.520   1.006  0.0113  0.3094 -0.0042
14694W        W30311   1.762  10.168   2.803  0.1196  0.0028 -0.0568
14695W        W30312   0.446   0.902   4.258 -0.2283 -0.3262  0.2643
14696W        W30313  15.650  14.165   2.931 -0.0314  0.0726  0.0897
14697W        W30314   3.349  14.159  15.488 -0.1040 -0.1144  0.0674
14698W        W30315   8.871   2.207   1.537  0.0280 -0.2339  0.1271
14699W        W30316  14.516  17.914   0.352  0.0254  0.1616  0.0252
14700W        W30317  13.250   6.696  15.040  0.0356  0.1166  0.1622
14701W        W30318   4.350  16.731   3.885 -0.1105 -0.1159 -0.0957
14702W        W30319  13.684  12.817   3.627  0.0740  0.2021  0.0832
14703W        W30320   4.221   7.269  13.888  0.1364  0.2260  0.1170
14704W        W30321   1.466   5.362  13.344  0.0794  0.0358  0.1478
14705W        W30322  17.056   2.477   2.980 -0.2167  0.1463  0.3292
14706W        W30323  11.649   5.860  13.170  0.0262  0.3875 -0.2132
14707W        W30324  10.418  12.731   1.390  0.1372  0.1182  0.0219
14708W        W30325   8.318   2.261  12.152 -0.1391  0.4142 -0.0141
14709W        W30326   0.944   9.175  14.975 -0.1269  0.0980 -0.0074
14710W        W30327   7.079  16.418  12.073 -0.0367  0.0532 -0.0026
14711W        W30328  16.348  13.175   5.722 -0.0863  0.0653 -0.0108
14712W        W30329   6.596  18.134   3.485 -0.3917  0.1748  0.0360
14713W        W30330  10.541  16.978   1.686  0.0827 -0.0635  0.0024
14714W        W30331  11.034   0.867  13.407  0.0214 -0.0908  0.3738
14715W        W30332   9.978   6.760  13.982 -0.1255 -0.3974  0.1339
14716W        W30333   6.134   3.902  15.662 -0.3083 -0.1556 -0.1920
14717W        W30334  11.197  12.323   4.287 -0.0908 -0.0826  0.1639
14718W        W30335  16.235   1.252  15.873  0.0101 -0.0125  0.2599
14719W        W30336  12.853   4.911  14.353  0.0847 -0.1233 -0.0038
14720W        W30337  14.273  10.842  16.049  0.1226  0.2088 -0.3187
14721W        W30338   7.988   5.981   1.008  0.0246 -0.3463  0.0423
14722W        W30339   2.764   9.071   3.632  0.2973 -0.3821  0.1820
14723W        W30340   2.520   5.057   4.290  0.3483  0.0100 -0.1460
14724W        W30341   3.641   4.103  13.946 -0.2188 -0.4610 -0.1412
14725W        W30342   8.478   4.026  10.791 -0.1065  0.1575  0.2124
14726W        W30343  11.606   9.520   5.091 -0.0972 -0.0395 -0.0872
14727W        W30344   7.717   7.318   2.834  0.1429 -0.1162 -0.2521
14728W        W30345  10.316   5.889  16.048 -0.2509 -0.2633  0.2271
14729W        W30346  15.150   4.840  13.815 -0.2136 -0.1047  0.1420
14730W        W30347   6.912   3.992  15.241  0.1530 -0.0536  0.2163
14731W        W30348  10.809  11.276   0.536  0.1110 -0.2020 -0.0070
14732W        W30349   8.015   0.722  14.780  0.1919 -0.1575  0.1836
14733W        W30350  16.964  12.241  15.024  0.2595 -0.1868  0.2792
14734W        W30351  15.298  13.858   2.821  0.1893  0.0513  0.3079
14735W        W30352   2.854   4.174   3.740  0.0769  0.4005  0.1059
14736W        W30353   7.678  13.015  16.019 -0.1971  0.2500 -0.2520
14737W        W30354  16.237   6.466   0.775 -0.0299 -0.0999 -0.4184
14738W        W30355  17.160  13.526  10.100 -0.0852  0.0063 -0.1564
14739W        W30356   5.594   6.891  10.219  0.0488  0.1712  0.4149
14740W        W30357   9.664  12.724   4.879  0.2450  0.0523  0.1048
14741W        W30358   1.362   8.696   3.328 -0.2009 -0.0236 -0.1196
14742W        W30359   5.029   2.846   0.910 -0.3192  0.0206 -0.1547
14743W        W30360  14.514  11.058   2.508  0.2271 -0.0615  0.1887
14744W        W30361  15.318   9.107   4.903  0.3745 -0.0982  0.0523
14745W        W30362  10.762  15.790   2.805  0.0310 -0.0068  0.0287
14746W        W30363  15.444   5.936   0.919 -0.0444  0.2513 -0.4722
14747W        W30364  14.992  14.829   0.837 -0.0072 -0.3418  0.0916
14748W        W30365  11.516  10.613  15.542  0.1403  0.0299 -0.1704
14749W        W30366   3.284  13.036  14.504  0.1868  0.1048  0.4477
14750W        W30367  17.065   9.416   1.838 -0.0553  0.0456 -0.1815
14751W        W30368   1.998   7.088   4.863 -0.0098 -0.0589  0.2954
14752W        W30369   3.606   0.447  15.500 -0.0498 -0.1570  0.4561
14753W        W30370   7.343   3.354   0.323  0.0433  0.1322  0.0794
14754W        W30371  13.259  12.873   2.108  0.3282 -0.0242 -0.0936
14755W        W30372  13.294   3.826  11.579  0.0428  0.2878 -0.2678
14756W        W30373  16.165  14.517  13.638 -0.0078 -0.1703 -0.0628
14757W        W30374   8.474   3.812   4.232  0.2009  0.1290 -0.2089
14758W        W30375   4.213   5.874   5.018 -0.0353  0.1710 -0.5045
14759W        W30376  17.667  12.037   5.251 -0.3497  0.0355 -0.0719
14760W        W30377   1.338   3.386   6.021  0.1657 -0.0890 -0.0715
14761W        W30378  11.502   2.195   3.222  0.1219  0.2923 -0.0319
14762W        W30379  12.771  16.555  15.966  0.0958 -0.1081 -0.3541
14763W        W30380   3.292  17.653   6.256  0.2785  0.1788 -0.0928
14764W        W30381  13.920   7.210   5.221 -0.0238  0.5158  0.2667
14765W        W30382   4.113   8.171  11.225 -0.0409  0.2258  0.2613
14766W        W30383  12.602   3.004   1.615 -0.1782 -0.0502 -0.3169
14767W        W30384   1.802   8.311   1.979 -0.0953  0.2379  0.0933
14768W        W30385   2.658  16.904   5.163  0.0310 -0.2829 -0.1319
14769W        W30386  10.044   2.388  13.065 -0.0609 -0.0291 -0.3172
14770W        W30387  12.678   6.679   0.622 -0.0543  0.1043  0.2236
14771W        W30388  15.814  14.525  14.410 -0.0848  0.0179  0.2983
14772W        W30389  14.487  12.885   2.543  0.1512  0.2497  0.1322
14773W        W30390   4.575  17.875   4.531  0.1556 -0.3264  0.0850
14774W        W30391   4.059  14.806   1.202 -0.3781  0.2287 -0.0400
14775W        W30392  16.845   1.561  14.081 -0.1817  0.0644  0.0264
14776W        W30393   0.965  14.585   2.103  0.3104 -0.2540 -0.2911
14777W        W30394  11.860   5.026  14.873 -0.3739  0.1728  0.3413
14778W        W30395   5.241   7.698   0.162 -0.0565  0.3282 -0.3216
14779W        W30396   1.773   7.677   9.990  0.2429 -0.1792 -0.3598
14780W        W30397   0.319   9.400   3.737 -0.1152 -0.0809 -0.1864
14781W        W30398  13.895  17.114   1.579  0.0381 -0.2750  0.2339
14782W        W30399   2.311   2.136  11.344 -0.3031 -0.2574  0.3794
14783W        W30400   1.302   9.163   4.651  0.1969  0.4466 -0.1516
14784W        W30401  17.759  15.983   2.401  0.1633  0.1638 -0.1424
14785W        W30402  17.468  14.180  14.259  0.1500  0.1134 -0.2013
14786W        W30403  16.649  11.018  12.576  0.0051  0.2122 -0.1061
14787W        W30404  12.311  15.894   5.353 -0.2405  0.3325  0.1187
14788W        W30405  10.301  14.072  15.197  0.4412  0.1078  0.1582
14789W        W30406   9.779   8.524   4.182  0.1889 -0.0126 -0.0688
14790W        W30407  15.989  13.324  15.135  0.0789  0.1674 -0.0749
14791W        W30408   8.129   4.701  13.466  0.0787 -0.0768  0.5228
14792W        W30409   1.313   3.103   0.887  0.0964 -0.2134  0.2851
14793W        W30410   9.628   5.459   5.626 -0.0574 -0.2090  0.0684
14794W        W30411   5.086   0.729  14.623  0.0984 -0.1986  0.4407
14795W        W30412  16.643  14.926  12.641  0.1477  0.1184 -0.2914
14796W        W30413  11.316  13.918   4.073  0.0980 -0.0877 -0.2961
14797W        W30414  15.988  14.221   2.554 -0.3009 -0.0731  0.0545
14798W        W30415  10.144   4.634  10.046 -0.0749 -0.2746  0.2030
14799W        W30416   8.663  17.354   4.907 -0.1654 -0.1861  0.0424
14800W        W30417  15.843  12.696  13.879  0.0346  0.3717  0.0293
14801W        W30418  16.755  15.397   4.760 -0.3083  0.0169  0.1758
14802W        W30419  10.722   7.332   3.139 -0.0328  0.2282  0.0981
14803W        W30420   4.839   0.055   0.669 -0.2339 -0.3252  0.0629
14804W        W30421   2.899   9.015   5.596  0.0235  0.1524  0.1504
14805W        W30422  14.699   5.415   1.580 -0.1415 -0.0029 -0.2696
14806W        W30423  14.148   4.667  12.458  0.2974  0.0540  0.2994
14807W        W30424  11.146   0.125   2.491  0.1117 -0.2939 -0.0098
14808W        W30425  10.347   6.768  11.409  0.1961 -0.0582 -0.0052
14809W        W30426  13.987  11.526   5.086 -0.3796 -0.0485 -0.0188
14810W        W30427  12.023   5.280  14.059  0.1689 -0.1115  0.0359
14811W        W30428   9.339   6.114  14.226 -0.0993 -0.1285  0.2563
14812W        W30429   7.494  14.775   3.931 -0.2331  0.1233  0.3042
14813W        W30430   8.277   8.149   4.620  0.0795 -0.0223 -0.1178
14814W        W30431  13.373   9.335  13.312 -0.0278  0.0356 -0.2898
14815W        W30432  10.206   9.193  12.070 -0.0273 -0.2099 -0.2207
14816W        W30433   1.118  17.354  11.857 -0.3653 -0.1135  0.1322
14817W        W30434  18.010   3.701  15.547 -0.0076  0.1290  0.2422
14818W        W30435   8.805   7.295   1.152 -0.0839  0.1581  0.0640
14819W        W30436  15.818  18.309  14.719  0.2859  0.0039 -0.1102
14820W        W30437   1.972  15.810  13.583  0.2541  0.1639  0.3437
14821W        W30438  17.281  18.378  15.323  0.1759 -0.1555 -0.0571
14822W        W30439   6.011  18.441  14.680  0.3550  0.3022  0.0762
14823W        W30440   9.856  14.362  12.617  0.2215  0.0558  0.0048
14824W        W30441   3.725  11.053   6.395  0.2300 -0.0466  0.2297
14825W        W30442  14.673  11.645   3.414  0.2122 -0.2371 -0.0942
14826W        W30443   1.131  11.394   3.071 -0.2773  0.1433  0.0373
14827W        W30444   8.671   9.028   4.640  0.3172  0.1193  0.2204
14828W        W30445   9.151  13.050  14.613  0.1436 -0.0896 -0.2827
14829W        W30446   5.840   0.183   3.014  0.0822 -0.4675 -0.0909
14830W        W30447  18.312  17.522  12.857  0.1270 -0.0958  0.0266
14831W        W30448  14.186   3.979  14.956  0.2476 -0.3799  0.1867
14832W        W30449   5.001   0.424   2.365  0.0334  0.0500 -0.0996
14833W        W30450   4.630  13.559   2.739 -0.1458 -0.2566 -0.3348
14834W        W30451   2.483   0.272   1.519  0.1062  0.2757 -0.0112
14835W        W30452  11.663   2.748  11.251 -0.2565  0.2106  0.0457
14836W        W30453   8.009  13.878   1.654 -0.0153 -0.0734 -0.2056
14837W        W30454   4.935  16.421   2.435  0.2221  0.1954  0.4387
14838W        W30455  17.258   9.685  10.820 -0.2017  0.1740 -0.1419
14839W        W30456  14.690  11.081   1.490 -0.0170 -0.1447  0.0815
14840W        W30457   5.737  13.097  12.475  0.1954 -0.1929 -0.3795
14841W        W30458   7.946   4.494   4.787  0.0591 -0.0525 -0.2554
14842W        W30459   9.040   5.378  14.798 -0.1172  0.1342  0.0313
14843W        W30460   8.669   4.038  14.396  0.2423 -0.3740 -0.1141
14844W        W30461  10.101   4.090  15.476  0.1320 -0.1348 -0.2813
14845W        W30462  13.297  16.915  11.878  0.0825  0.0876  0.1632
14846W        W30463   8.879   5.462  12.715  0.0650 -0.0451 -0.1275
14847W        W30464   1.485  13.511  15.260  0.4963  0.0927 -0.2106
14848W        W30465  15.193   6.523   2.399  0.0600  0.1770 -0.2044
14849W        W30466   0.813  17.939  12.346 -0.2073 -0.1508  0.0594
14850W        W30467   3.064   7.666   0.531 -0.2645  0.0917 -0.1807
14851W        W30468   7.026   9.061  12.819 -0.2394 -0.2100  0.0546
14852W        W30469   9.222   5.223   1.800 -0.1650  0.3165 -0.1972
14853W        W30470  12.489  14.027   3.558  0.0147 -0.2213 -0.0163
14854W        W30471  16.129  13.399  11.318 -0.3223 -0.0300  0.1670
14855W        W30472  10.863   2.857   3.925 -0.2634  0.1902 -0.0463
14856W        W30473   3.229   3.024  10.931 -0.2341 -0.2617  0.0336
14857W        W30474   3.156  14.474   3.606  0.2124 -0.3516  0.0646
14858W        W30475   8.516  10.719   3.734  0.2119 -0.1151  0.2153
14859W        W30476   1.371   3.886   6.144  0.4662  0.0429 -0.1962
14860W        W30477   7.464   9.233   0.205 -0.3491 -0.0004 -0.0781
14861W        W30478  13.871  16.407   2.071 -0.3281 -0.0724  0.0733
14862W        W30479   8.851   7.601  14.363  0.2776  0.1207  0.0309
14863W        W30480   6.490  12.535  15.407  0.2660 -0.1861 -0.0450
14864W        W30481   6.628  18.328  12.621 -0.2261  0.0256  0.1440
14865W        W30482   9.404   5.621  12.962  0.0157 -0.5140  0.1621
14866W        W30483  15.887  15.514   0.744  0.3740 -0.0476 -0.1113
14867W        W30484  17.689   8.401  14.414  0.1367 -0.1358 -0.2019
14868W        W30485  10.746  16.364  13.094  0.0131 -0.1351 -0.0156
14869W        W30486   1.040  12.679   4.084 -0.4410 -0.1190  0.0361
14870W        W30487   7.982   9.761  14.481  0.0093 -0.1855 -0.1179
14871W        W30488   9.520  17.970   2.215  0.2477 -0.1921  0.1352
14872W        W30489  10.884   0.303   1.960  0.1248 -0.0436 -0.2327
14873W        W30490  15.311  16.383   0.879  0.1699  0.1208  0.0204
14874W        W30491   5.999  14.624  12.514  0.2239  0.1205 -0.3833
14875W        W30492   3.362  15.439   5.585  0.1070  0.4980  0.2161
14876W        W30493  11.580  13.006  14.810 -0.2902 -0.0782 -0.1626
14877W        W30494  11.126   1.795  15.142  0.0193  0.1408  0.2007
14878W        W30495  12.492   3.717  12.372 -0.3112  0.0872  0.0429
14879W        W30496   3.628   9.966   4.141  0.1765 -0.6388 -0.0701
14880W        W30497   1.251  16.831  10.784  0.2460  0.2426 -0.2878
14881W        W30498  17.394  10.466   4.564  0.2201  0.2035  0.3642
14882W        W30499   0.681  11.173   2.781 -0.0012  0.1048  0.3518
14883W        W30500  16.179   3.595   5.483  0.0493  0.1226 -0.2908
14884W        W30501  13.138   9.257   2.971  0.0417 -0.0535 -0.3435
14885W        W30502  15.056  10.565   1.481 -0.0017  0.1140  0.1357
14886W        W30503   0.362  10.283  11.130  0.0539 -0.0450 -0.0141
14887W        W30504  10.849  12.304   0.837 -0.1580  0.1443 -0.1815
14888W        W30505   7.229  17.078  14.335  0.1509 -0.1801  0.1508
14889W        W30506  17.522   6.548   4.258 -0.0423  0.1503  0.0821
14890W        W30507  15.665   3.062  11.622  0.1330 -0.1706  0.0307
14891W        W30508  12.922  11.492  11.311  0.0443  0.1157 -0.2267
14892W        W30509  11.516  11.165  15.940  0.2913 -0.2412 -0.0653
14893W        W30510   4.687   9.129  13.191 -0.0157  0.2378  0.3440
14894W        W30511   0.238   9.192   4.689  0.1985  0.2138 -0.4762
14895W        W30512   0.540  12.265  11.441 -0.0522 -0.2624  0.0880
14896W        W30513   4.055  13.423   1.512 -0.1219 -0.2785  0.1319
14897W        W30514  11.541  16.497  13.811 -0.1774  0.0724 -0.2815
14898W        W30515   3.767  11.989  15.610  0.2426 -0.0412  0.4404
14899W        W30516  13.836  16.222  13.817  0.2701  0.1177  0.1379
14900W        W30517   4.389  13.607  14.957  0.2520 -0.0536 -0.1470
14901W        W30518   4.390  17.567   3.498 -0.1854 -0.1655 -0.2624
14902W        W30519  15.839   0.726   1.938  0.0411  0.1082 -0.0463
14903W        W30520  14.356  11.952   2.181 -0.1976 -0.0227 -0.2392
14904W        W30521  13.010   1.708   3.962 -0.0777 -0.2416  0.2888
14905W        W30522  16.892  13.479  14.924 -0.2081  0.2350  0.0206
14906W        W30523   3.913   9.268  15.221  0.1969 -0.2880  0.0272
14907W        W30524   8.598   9.859  13.902  0.2935 -0.3689  0.2085
14908W        W30525   4.766   3.290   4.703 -0.2650 -0.0848  0.0425
14909W        W30526  10.946   5.656   2.501 -0.1523 -0.0119 -0.0689
14910W        W30527   4.773   8.826  13.620 -0.2254 -0.6076  0.2312
14911W        W30528   9.261  12.468  13.342  0.1218 -0.3950  0.2683
14912W        W30529   0.621   0.056  14.905 -0.0043  0.0162 -0.1958
14913W        W30530   3.515   7.579   5.929 -0.3400 -0.0990  0.4861
14914W        W30531   2.576  10.939  11.129 -0.1171  0.4019  0.0319
14915W        W30532   8.403   8.343   1.026 -0.0053  0.0356 -0.0606
14916W        W30533  15.863  12.019  12.679 -0.2254 -0.0848 -0.0532
14917W        W30534   5.852  10.926   5.661 -0.2442  0.0266  0.1665
14918W        W30535  16.918  17.771  12.305 -0.0812 -0.0769  0.1426
14919W        W30536   4.827   0.874  15.177  0.2272 -0.0647  0.0537
14920W        W30537  15.325   4.767   3.075 -0.1038 -0.0172  0.0852
14921W        W30538  15.727   0.736   1.053 -0.0683  0.3229  0.1395
14922W        W30539   0.573   4.479  13.783 -0.0904 -0.4841 -0.1726
14923W        W30540   2.871  13.209  13.410  0.1619  0.0915  0.2776
14924W        W30541   3.213  15.395  13.080 -0.1682 -0.0976 -0.3889
14925W        W30542   8.799   3.932   4.960 -0.0591 -0.0580  0.3306
14926W        W30543   6.551   0.588  10.266 -0.0785  0.2158  0.0437
14927W        W30544   4.028   0.699   1.663 -0.1125 -0.0750  0.1823
14928W        W30545   5.040  10.556   1.083  0.2489 -0.2181  0.1931
14929W        W30546   7.431   8.848   0.640  0.1380  0.0058  0.0742
14930W        W30547   2.033   1.585  13.559 -0.3419 -0.1807 -0.1668
14931W        W30548   1.258  14.860   3.936 -0.3052 -0.3260  0.2069
14932W        W30549  13.663   3.398   1.711  0.0254 -0.0608  0.0803
14933W        W30550  15.621   7.641   2.016 -0.2061  0.3117  0.1371
14934W        W30551   8.735  16.700   2.201  0.0508 -0.0333 -0.3117
14935W        W30552   3.985  10.312  13.974  0.0231 -0.2172 -0.1523
14936W        W30553   7.807  12.078  12.290 -0.0973 -0.1063  0.4581
14937W        W30554  13.934   1.795  13.220  0.3132 -0.2088  0.0505
14938W        W30555   0.681   7.564   4.536 -0.0305 -0.1216  0.1442
14939W        W30556  10.762   2.670   3.496  0.0135  0.3060 -0.2613
14940W        W30557   8.467  13.038  14.069 -0.1548 -0.1689  0.1791
14941W        W30558   1.261   7.289   4.693  0.0850  0.0382 -0.0230
14942W        W30559  18.460   5.339  15.785 -0.0829 -0.2399  0.1593
14943W        W30560   9.865   8.359   5.232 -0.2308 -0.1801  0.0006
14944W        W30561   6.002  15.415   4.214  0.1755  0.1595 -0.0384
14945W        W30562   0.900   4.277  15.905 -0.0731  0.1799 -0.0806
14946W        W30563  10.373   6.520  14.106 -0.1049  0.2731 -0.1535
14947W        W30564  12.961   1.772  11.316 -0.0185  0.3738 -0.0420
14948W        W30565   5.219   0.153  13.715  0.1513  0.0012  0.1830
14949W        W30566  10.207  17.115   3.211  0.0373  0.1963 -0.1291
14950W        W30567   9.015   8.028  13.040 -0.2599  0.1090  0.2564
14951W        W30568  16.317  11.644   4.983  0.0306  0.0468 -0.1159
14952W        W30569   7.821   5.100   3.078  0.1307 -0.4112 -0.3224
14953W        W30570   9.865   8.118   3.468 -0.1142  0.3304 -0.1422
14954W        W30571   7.225  15.685   4.437  0.1264 -0.0750  0.2082
14955W        W30572  11.469   7.630  14.436 -0.0091 -0.3513 -0.0999
14956W        W30573   1.943  13.338  11.864 -0.1294 -0.1727 -0.2921
14957W        W30574  17.381   2.766   3.289 -0.0447  0.1518 -0.3583
14958W        W30575  14.159   3.321  12.467 -0.2078  0.2850 -0.0555
14959W        W30576  18.094   6.652   5.771 -0.0115 -0.0806  0.0512
14960W        W30577   2.626   6.922   4.107  0.0249  0.0635  0.1463
14961W        W30578  15.066  10.004  10.681  0.0881 -0.0816  0.1071
14962W        W30579  12.536   1.799   2.003 -0.0277  0.0265  0.0685
14963W        W30580   6.284   0.898  13.501  0.3360  0.0191  0.3333
14964W        W30581  12.319  12.817   3.816 -0.0231 -0.1950  0.1371
14965W        W30582   7.980  15.727   3.664 -0.4597  0.7130 -0.2305
14966W        W30583   1.244   0.063   1.664  0.2007 -0.2079  0.1877
14967W        W30584  10.184  17.118  12.182 -0.0589  0.0618  0.0002
14968W        W30585  12.248  13.065   4.782 -0.0295 -0.0065  0.1143
14969W        W30586  12.629  14.437  13.445 -0.1221 -0.0022 -0.0265
14970W        W30587   4.438   0.490  12.806  0.1819 -0.2224 -0.2199
14971W        W30588   5.313  14.268   2.793 -0.0613  0.0711  0.0836
14972W        W30589   0.224   8.162   1.834 -0.2348 -0.1799 -0.4038
14973W        W30590   2.605  10.875   0.815 -0.1091  0.2012 -0.0543
14974W        W30591   0.996   9.532   1.106 -0.2106  0.4898 -0.0205
14975W        W30592  10.915   6.115  13.872  0.1561 -0.1842 -0.0140
14976W        W30593  15.378  14.580   2.105 -0.3583  0.1723 -0.0621
14977W        W30594   7.514   0.787   1.020  0.2317  0.1477  0.0962
14978W        W30595   0.497  10.574  15.826  0.1109  0.0078  0.0160
14979W        W30596   8.178  11.819  11.926  0.0852  0.0083 -0.1603
14980W        W30597  18.316  14.019   4.346  0.0872 -0.0624 -0.0569
14981W        W30598   5.586  16.820  13.646 -0.2229  0.0800 -0.2229
14982W        W30599   7.391   0.961   4.902 -0.0809  0.0434  0.1171
14983W        W30600  15.679  14.489  12.829  0.1640  0.4756 -0.3073
14984W        W30601  12.039  14.629   0.569  0.3240 -0.3816 -0.0280
14985W        W30602   6.125  18.339  13.435  0.3293  0.1290  0.3570
14986W        W30603   8.929   3.827   2.185  0.3438  0.0404  0.0648
14987W        W30604   2.339  18.427   0.526  0.0100  0.2018  0.2232
14988W        W30605   8.993  14.090   2.040 -0.2292 -0.1842 -0.0859
14989W        W30606   4.247   5.281   2.155  0.1523  0.0804 -0.0461
14990W        W30607  15.279   4.202   4.757  0.1089 -0.2474 -0.1192
14991W        W30608  18.418   1.348  12.274 -0.0492 -0.0768 -0.1099
14992W        W30609   8.342   0.060   0.923 -0.1892 -0.0904  0.1159
14993W        W30610  10.296  13.573   1.829 -0.0692  0.0663 -0.0185
14994W        W30611  10.656  12.309   1.292  0.1689 -0.2641  0.1427
14995W        W30612   3.712   4.066  11.705 -0.0687  0.0081 -0.0882
14996W        W30613  16.789   5.062   2.004  0.1040 -0.0525  0.0679
14997W        W30614  18.336   4.032   3.148  0.0193  0.0115  0.1864
14998W        W30615  13.951  12.443   5.102 -0.1686  0.1467 -0.2287
14999W        W30616  17.613  13.398   2.737  0.0341 -0.3636  0.2196
15000W        W30617  13.256   2.173  12.742  0.0444 -0.0154 -0.0046
15001W        W30618   1.135   5.707   5.437 -0.1281 -0.0190 -0.0184
15002W        W30619   5.932  14.700  13.172  0.0063 -0.0903 -0.1636
15003W        W30620  15.253   5.067  16.009 -0.2194  0.1621 -0.2784
15004W        W30621   0.317   2.730  12.050  0.2740  0.0518  0.4750
15005W        W30622  14.428  15.763  12.590 -0.0883  0.0003 -0.1387
15006W        W30623  14.237   3.800  14.072  0.0444  0.1665  0.0162
15007W        W30624   0.364   1.481  11.753 -0.2009 -0.3289  0.0074
15008W        W30625   9.182   7.735  11.134 -0.5420  0.0062 -0.0018
15009W        W30626   6.735   8.415   4.751 -0.1155 -0.0706  0.0489
15010W        W30627   3.703   8.128   1.003 -0.1066  0.2495  0.0855
15011W        W30628   0.908   0.533  12.772 -0.0293  0.2155  0.4518
15012W        W30629  11.762   0.710  11.714 -0.0112 -0.0757 -0.0214
15013W        W30630  10.691  17.108   3.020  0.3834 -0.1061  0.3240
15014W        W30631  11.246  17.978   4.931 -0.1588 -0.2043  0.1381
15015W        W30632  17.957   6.967   1.967 -0.1565  0.1004 -0.1460
15016W        W30633   2.837  15.433   1.444 -0.1664 -0.2535 -0.0723
15017W        W30634   2.233   5.858   3.894  0.0910  0.1693  0.0255
15018W        W30635   1.102   9.996  11.696 -0.0832 -0.2451  0.3729
15019W        W30636  10.629   0.110   6.007 -0.0245 -0.0004  0.3463
15020W        W30637  11.600   3.575   3.439 -0.1106  0.0334  0.3362
15021W        W30638  15.703  14.798   4.205 -0.0689  0.2909  0.0341
15022W        W30639   0.518   5.805   2.586  0.0252  0.1492 -0.0823
15023W        W30640  11.160  13.983   2.784  0.1255 -0.0877 -0.0208
15024W        W30641   1.901   4.225  12.933 -0.1997  0.0317 -0.1854
15025W        W30642  18.111  12.377  11.229 -0.0470 -0.0424 -0.0791
15026W        W30643  12.689   7.339  15.620 -0.0042  0.0714 -0.0109
15027W        W30644   8.902  15.784   5.477 -0.2522  0.4570  0.2780
15028W        W30645  14.348   0.331   1.136  0.1174  0.0068  0.1589
15029W        W30646  14.397   9.305  15.592 -0.1612 -0.1741  0.0891
15030W        W30647   4.040   7.601  15.760 -0.1679  0.2881  0.2826
15031W        W30648   8.181  16.805   4.978 -0.3510 -0.0711  0.4162
15032W        W30649  16.745  16.251   1.700 -0.4192 -0.2162 -0.1647
15033W        W30650   3.086  11.181  14.011  0.1112  0.0884 -0.1081
15034W        W30651   9.524  10.148  11.554 -0.4179 -0.4549  0.1629
15035W        W30652  12.938   1.918   1.581 -0.1661 -0.0120 -0.2406
15036W        W30653   1.565   0.472   0.532  0.3809  0.0730 -0.0806
15037W        W30654   4.472   5.693   1.859  0.3066 -0.0861 -0.0418
15038W        W30655   4.611   4.736   3.798  0.2092 -0.1061  0.0279
15039W        W30656   8.935  11.882   0.015 -0.1953  0.1559  0.1172
15040W        W30657   9.105   3.439  12.751  0.0722  0.1748 -0.0032
15041W        W30658   0.384  14.957  16.052  0.0706 -0.0352 -0.4376
15042W        W30659  12.124   4.545  12.319 -0.0314  0.0899  0.0235
15043W        W30660   0.864   7.277  11.581  0.1674  0.2185 -0.3728
15044W        W30661   4.747   2.305  14.544  0.0548  0.2081  0.0272
15045W        W30662   7.297   3.593  12.910 -0.1918 -0.2473 -0.1178
15046W        W30663   1.565   5.549  11.559 -0.3221 -0.0693 -0.1093
15047W        W30664   3.527  10.630   5.809  0.0872 -0.1207 -0.1197
15048W        W30665   4.661   5.419  11.693  0.1834 -0.1300  0.1240
15049W        W30666   6.633   6.464  12.813  0.0518 -0.0678  0.0876
15050W        W30667  16.132   7.361   0.300 -0.1190  0.0268 -0.1976
15051W        W30668   3.946   4.842   1.227  0.0704 -0.1570  0.2276
15052W        W30669  16.764  11.002   3.277 -0.2517  0.0440  0.0344
15053W        W30670   6.658   0.475   3.272  0.2356 -0.1667  0.0063
15054W        W30671   5.739   1.566  16.036  0.1495  0.0296 -0.1696
15055W        W30672   7.845   7.862   3.594  0.1841 -0.0448  0.1849
15056W        W30673  13.804  12.834  12.879 -0.1228 -0.0461  0.1527
15057W        W30674   5.243  16.035  14.540 -0.1974 -0.0047 -0.0931
15058W        W30675  13.875   1.912   0.026 -0.0992  0.0623  0.0116
15059W        W30676  11.510   1.493   2.992 -0.0091 -0.2811 -0.0064
15060W        W30677   9.579  17.683   4.576  0.1870 -0.0357  0.0074
15061W        W30678   2.417   6.224   1.068 -0.1492  0.1516  0.0280
15062W        W30679  16.002  15.666  15.504  0.0698 -0.0596  0.0472
15063W        W30680   9.340   1.353   4.816 -0.2822  0.0929 -0.0181
15064W        W30681   8.639  10.943  12.273 -0.0872 -0.0594  0.2898
15065W        W30682   2.657   6.371   0.629 -0.1575  0.0076  0.0226
15066W        W30683  18.457  10.244   3.497  0.1572 -0.2140 -0.1533
15067W        W30684  17.227  13.156  15.081 -0.1732  0.0905  0.0496
15068W        W30685   6.804  16.572  12.498 -0.0724 -0.2570  0.1003
15069W        W30686  17.729  12.706   5.300 -0.2053 -0.0595  0.1389
15070W        W30687  12.247  15.940  13.912  0.1180 -0.0534 -0.1351
15071W        W30688   1.675  12.567   3.757  0.2214  0.0230 -0.2384
15072W        W30689  14.708   1.554   1.598  0.0320 -0.1019 -0.0015
15073W        W30690  13.858   8.342  11.855  0.2184 -0.1400  0.0654
15074W        W30691  16.988  16.173  11.350 -0.1572  0.0776 -0.0961
15075W        W30692   5.642   7.466   1.769 -0.1007  0.1449 -0.2418
15076W        W30693   7.077  16.130   2.726  0.0595 -0.1130  0.0496
15077W        W30694  14.453   2.662   3.598 -0.1146  0.2642  0.1222
15078W        W30695   7.021   0.568  15.914  0.0781 -0.0065 -0.0958
15079W        W30696   7.520   7.996   3.928  0.0581  0.3216 -0.2445
15080W        W30697  11.905   9.055  14.945 -0.3235  0.1004  0.2775
15081W        W30698   1.526   6.236   3.484 -0.0858  0.2273  0.0740
15082W        W30699   4.948  11.746  15.853  0.0334 -0.3095 -0.0545
15083W        W30700  16.880   8.685  13.691  0.1946  0.1627  0.1147
15084W        W30701   7.584   0.164   6.029  0.1332 -0.0989  0.4588
15085W        W30702   4.717   2.178   0.850 -0.0713 -0.0926  0.1735
15086W        W30703   8.721  13.391   0.718 -0.2116  0.1212  0.2270
15087W        W30704  17.133   4.227  13.160  0.1615 -0.0481  0.1335
15088W        W30705   3.985  14.201   2.296 -0.0694  0.1079  0.0249
15089W        W30706  12.053   7.106   1.074  0.2848  0.2872 -0.0241
15090W        W30707   0.519  16.466   5.608 -0.3333 -0.0978  0.0516
15091W        W30708   2.879   5.227   2.828 -0.0563 -0.4146  0.2338
15092W        W30709   3.329   2.294   1.822 -0.2787  0.2657  0.0600
15093W        W30710  17.385  15.333  14.455 -0.2574 -0.0878  0.0682
15094W        W30711  12.377   2.817   2.098 -0.0206 -0.2918  0.0449
15095W        W30712   7.622   3.145  11.848 -0.3784  0.1279  0.2640
15096W        W30713   8.565  12.757   4.328  0.1194 -0.0663  0.0652
15097W        W30714  16.175   0.540   2.352  0.0637 -0.4095  0.3805
15098W        W30715  13.107   7.838  11.547 -0.0814 -0.0627 -0.0889
15099W        W30716   8.363   9.312   1.327 -0.2081  0.0099 -0.1772
15100W        W30717   9.434   7.404   3.777  0.0818 -0.1307 -0.0039
15101W        W30718   2.722   0.981   3.761 -0.0355 -0.2843 -0.1915
15102W        W30719  12.807  10.788   4.480 -0.4493 -0.1007 -0.0749
15103W        W30720  15.169  13.960  16.101 -0.3742 -0.3930 -0.3403
15104W        W30721   0.421   7.445   2.934 -0.1218  0.1524 -0.0519
15105W        W30722  13.610   8.670  11.570  0.1958 -0.2080 -0.0969
15106W        W30723   9.820   1.430   2.743  0.0209 -0.0134  0.2872
15107W        W30724   3.100   7.928   6.043  0.0422 -0.2020 -0.0380
15108W        W30725   7.586  12.824   5.600  0.2615  0.3296  0.1913
15109W        W30726  16.282  17.242   4.415  0.0842 -0.1457 -0.1920
15110W        W30727  17.671   5.866   1.957 -0.0441  0.0133 -0.1209
15111W        W30728  18.094   0.954   0.811 -0.0934  0.1469 -0.1013
15112W        W30729   8.371   3.274   2.858 -0.2559  0.2051 -0.0862
15113W        W30730   0.582   4.250   5.309  0.0325  0.1020 -0.2468
15114W        W30731   4.347   1.801  15.280 -0.0640 -0.3798 -0.1416
15115W        W30732   3.016   6.013  11.633 -0.0762  0.0247  0.2577
15116W        W30733  12.419  16.958   2.924 -0.0759  0.0264  0.0369
15117W        W30734  15.163   5.390  11.415 -0.2911  0.1540  0.3183
15118W        W30735   2.374   4.695   4.701 -0.2354  0.1218 -0.0483
15119W        W30736   9.650   8.901   3.039  0.1362 -0.3053  0.2266
15120W        W30737  12.728  18.424  12.093  0.2758 -0.1539 -0.0003
15121W        W30738  16.680   3.504   5.332 -0.2314  0.0403  0.0797
15122W        W30739   7.312   2.147   1.865  0.0876  0.1398 -0.1236
15123W        W30740  17.999   3.348   4.280  0.3160 -0.0382  0.0652
15124W        W30741  14.743  17.117  13.872  0.2989 -0.0704 -0.0248
15125W        W30742   8.774   4.940   3.203  0.3513 -0.0453  0.1232
15126W        W30743   5.376   7.165   2.857  0.2812  0.1111 -0.0700
15127W        W30744   9.476  10.947   0.536 -0.3510  0.1608  0.1433
15128W        W30745   4.176   3.225  13.834  0.2328 -0.0702  0.0921
15129W        W30746   9.747   1.352  15.039  0.1042 -0.1020 -0.1172
15130W        W30747   1.843  12.904   3.029 -0.2491 -0.0821  0.2328
15131W        W30748  16.548  15.459   2.160  0.2762  0.4554  0.2227
15132W        W30749   0.600  14.873  14.254 -0.0132 -0.1157  0.0756
15133W        W30750  10.449  14.748   1.282  0.1876 -0.2192 -0.2959
15134W        W30751  15.225   7.326  15.943 -0.2693 -0.0508 -0.1876
15135W        W30752   4.734   9.264   2.265 -0.2331  0.1638 -0.2046
15136W        W30753  14.660  16.491   4.326  0.1355 -0.1948 -0.0796
15137W        W30754   7.733   8.572   6.184 -0.1723  0.3131 -0.2831
15138W        W30755  16.839  14.577  15.672  0.0731  0.2215 -0.2055
15139W        W30756  17.963  18.090   1.342 -0.3014  0.3216 -0.2419
15140W        W30757  14.228   7.306   4.288 -0.2185 -0.1333 -0.1903
15141W        W30758   9.887   4.262   1.005 -0.1768  0.1069 -0.1150
15142W        W30759  16.378   1.554  13.968 -0.1666  0.2037 -0.1753
15143W        W30760  10.408  15.771   3.698 -0.0870  0.0423  0.1521
15144W        W30761  15.040   0.059  12.266  0.1584 -0.0053 -0.0934
15145W        W30762  11.150   2.765   0.506 -0.0303 -0.1192  0.1058
15146W        W30763  13.446   7.635  13.066 -0.2200 -0.2454 -0.2344
15147W        W30764  13.320  15.117  14.263 -0.2196  0.2811 -0.1027
15148W        W30765  11.901   2.516   0.058 -0.3996 -0.0126 -0.0180
15149W        W30766   6.155   5.788  12.809  0.1273  0.0844 -0.4083
15150W        W30767   8.509   4.397  11.196  0.0636  0.2466  0.1594
15151W        W30768  11.507   7.378  14.940  0.2861  0.1906  0.0186
15152W        W30769   1.351  15.531  14.116  0.3232  0.2919  0.0534
15153W        W30770  10.905   2.480   2.601  0.1396  0.1606  0.1886
15154W        W30771   1.650   2.784   1.323  0.1995 -0.0228 -0.3450
15155W        W30772   8.402  13.981   0.838  0.0177  0.3268  0.0121
15156W        W30773   5.059  14.967  13.659 -0.0900 -0.0985 -0.2230
15157W        W30774   4.050  13.939  15.139  0.0746 -0.1957  0.0376
15158W        W30775   8.631   6.966   3.091 -0.1470 -0.4388  0.2416
15159W        W30776  16.892   4.898   4.086  0.0839 -0.1823  0.1023
15160W        W30777   6.332  15.683  13.178  0.3331 -0.0369  0.2249
15161W        W30778  18.201   8.934  14.172 -0.1808 -0.1762 -0.0741
15162W        W30779   9.570   9.874  15.657  0.0142 -0.0663 -0.1156
15163W        W30780   8.292  14.577  11.678 -0.0022  0.0499 -0.1346
15164W        W30781   1.483   0.290  11.462 -0.1366  0.0518 -0.1151
15165W        W30782  10.963   0.022  12.305  0.1731 -0.1377  0.0420
15166W        W30783   1.655  11.180  15.074  0.0086 -0.2583 -0.2237
15167W        W30784  14.257  13.550  12.323 -0.3938 -0.2802  0.1897
15168W        W30785  14.292  11.362   0.979  0.2867  0.0771 -0.0594
15169W        W30786   5.671   1.515  12.418 -0.0265 -0.2004 -0.2047
15170W        W30787  16.100  16.487  15.655 -0.0719 -0.1580 -0.1116
15171W        W30788  16.226   7.779  16.099  0.0701  0.0226 -0.1484
15172W        W30789  15.845   7.855  12.468  0.3168 -0.0319  0.3814
15173W        W30790  15.480   9.979  13.712  0.2375  0.0731 -0.0169
15174W        W30791   9.256  17.683   4.979 -0.1355 -0.1993 -0.2591
15175W        W30792   2.190   9.389   4.255  0.1171 -0.1878 -0.1353
15176W        W30793   1.792  11.349   5.310 -0.2026 -0.2228 -0.1845
15177W        W30794  11.670   4.356  15.293  0.0399  0.0203  0.3179
15178W        W30795   0.965   9.885   0.451 -0.2975  0.1592 -0.4742
15179W        W30796  13.496  17.405  15.074 -0.1350 -0.1377  0.2242
15180W        W30797   1.596   2.440   3.535 -0.0822  0.2928  0.0773
15181W        W30798  14.599   3.765  15.368  0.2617 -0.1757 -0.3148
15182W        W30799  14.381   4.533   6.129  0.2517  0.1837 -0.0331
15183W        W30800  13.259  17.768  11.622  0.0784  0.0575 -0.2449
15184W        W30801  11.949  10.590  13.772  0.3486 -0.2652 -0.0483
15185W        W30802   9.954   9.911  11.462  0.0619  0.1337  0.1140
15186W        W30803   4.696   0.199   2.703 -0.0023  0.0885  0.0456
15187W        W30804   8.665   9.219  11.950  0.2659 -0.1685 -0.2423
15188W        W30805  14.593  14.182  14.525 -0.4161 -0.0362 -0.0919
15189W        W30806   6.186  16.889  13.423 -0.0955 -0.0146 -0.3055
15190W        W30807  10.762  15.081   2.199 -0.1171  0.3838  0.0173
15191W        W30808   8.152   4.129   0.836  0.3100 -0.3041 -0.0333
15192W        W30809  16.852  11.297   2.889  0.0716 -0.1108  0.1913
15193W        W30810   3.088  18.405   0.108  0.0345  0.3164 -0.1615
15194W        W30811  10.026  18.403  13.394  0.2084  0.0551  0.0910
15195W        W30812   0.134  14.926   1.990 -0.0034  0.1273 -0.0899
15196W        W30813  11.225   2.335  15.651  0.2038  0.1081  0.0662
15197W        W30814  16.968  15.857  15.907 -0.0897  0.3942  0.0049
15198W        W30815   1.703  14.599   3.879 -0.0859  0.2255 -0.1540
15199W        W30816   4.903  10.885   1.884  0.1297  0.1660 -0.0204
15200W        W30817   3.346   0.127   1.933 -0.2558  0.1056  0.0808
15201W        W30818   5.533  14.265   0.959 -0.0490  0.3222  0.0970
15202W        W30819   2.109  17.329  14.953 -0.0830 -0.0540 -0.0656
15203W        W30820  12.560  14.797  13.775 -0.0513  0.2897 -0.1924
15204W        W30821   9.347   6.624  15.396 -0.1441 -0.2344 -0.1924
15205W        W30822  10.629   9.305  14.177  0.0558  0.0888  0.1906
15206W        W30823  11.406  12.630   3.878  0.2377 -0.1518  0.0923
15207W        W30824  13.765   2.875  11.641  0.0109 -0.1224 -0.0349
15208W        W30825   4.384   2.016  16.072  0.1421 -0.1443 -0.2976
15209W        W30826  13.364  16.350  13.892  0.0368 -0.0444  0.1765
15210W        W30827   1.920   0.046   3.120 -0.2904 -0.3340 -0.2617
15211W        W30828   2.137  15.908   1.026  0.0400  0.0525  0.2440
15212W        W30829   2.637  16.146  12.818  0.1781 -0.2298  0.1193
15213W        W30830  13.637   8.782  12.331  0.0410  0.0157  0.1002
15214W        W30831  10.196  15.341  12.546  0.2173  0.1464 -0.0128
15215W        W30832   4.799   2.948  15.972  0.2493  0.0396  0.0302
15216W        W30833  17.950  10.520   0.549 -0.1747  0.0605 -0.4162
15217W        W30834  11.286  17.180  11.163  0.0305  0.0558  0.3311
15218W        W30835  10.658  13.834  14.829 -0.1235  0.0147 -0.0900
15219W        W30836   2.631   2.350   3.917 -0.0240 -0.0781  0.1002
15220W        W30837   0.425  13.447   2.856 -0.1456 -0.0249  0.0104
15221W        W30838   8.143   1.318   3.788  0.2451  0.0128  0.0888
15222W        W30839   1.206  12.233   4.484 -0.1303  0.0827 -0.0030
15223W        W30840  17.670   0.307  12.228  0.1458 -0.2367  0.0302
15224W        W30841   2.052   6.456  13.125 -0.1276 -0.0694 -0.1432
15225W        W30842   6.002   6.058  14.718  0.0465 -0.2333  0.5484
15226W        W30843  14.829  16.931   5.374 -0.1086 -0.1911 -0.0250
15227W        W30844   7.838  16.143   2.044 -0.1865 -0.1840 -0.0852
15228W        W30845   3.769  13.852   3.221 -0.2194 -0.2874  0.1162
15229W        W30846  17.856   2.415   0.848  0.0122  0.1202  0.0082
15230W        W30847   2.480  11.426   3.092 -0.0585 -0.3951 -0.0211
15231W        W30848  11.549   4.736   2.631  0.2157  0.1789  0.3573
15232W        W30849   5.280   5.040  10.545  0.1793 -0.1964  0.3096
15233W        W30850   8.992  11.452  11.250  0.0253 -0.2556  0.0267
15234W        W30851  10.520  10.065  13.296 -0.1148  0.0395 -0.2342
15235W        W30852   7.789  10.113  11.066  0.1008 -0.0147 -0.2271
15236W        W30853  11.068  17.834   5.379 -0.0075 -0.0480  0.3275
15237W        W30854   2.624  16.613  11.358  0.1977  0.1792 -0.1763
15238W        W30855  15.100  16.663   4.999 -0.0126  0.0947 -0.3209
15239W        W30856   1.076   7.792  10.427 -0.0717  0.3184 -0.1255
15240W        W30857   6.199  17.527   4.064 -0.0267  0.2051  0.0961
15241W        W30858   5.051  10.011   2.552 -0.0986 -0.2554 -0.0015
15242W        W30859  13.037   1.532  12.984  0.0507 -0.1584  0.1054
15243W        W30860  15.493   4.747   2.204 -0.1968 -0.1152 -0.1049
15244W        W30861  11.008  13.168  15.425  0.0228 -0.3482 -0.3581
15245W        W30862   0.499   7.718   1.085 -0.3497 -0.1186  0.2953
15246W        W30863   2.703   9.393  11.848 -0.3092 -0.0879  0.1886
15247W        W30864  14.302   0.790   0.177 -0.1597  0.2392  0.2939
15248W        W30865   8.049   2.341   4.832 -0.0269 -0.2490 -0.0393
15249W        W30866   0.604   9.716   0.813 -0.1656  0.1265  0.0452
15250W        W30867   7.085  17.405   5.582 -0.1065 -0.1037  0.0623
15251W        W30868   2.553   3.591  11.370  0.2793 -0.2306 -0.0096
15252W        W30869   9.132   3.973  12.861 -0.0273  0.2196  0.1479
15253W        W30870  15.218   9.311   4.041 -0.2581 -0.0379  0.2166
15254W        W30871   6.819  10.252  13.220  0.0173  0.1696  0.3147
15255W        W30872  12.783  12.474   2.942  0.3028 -0.4288 -0.2259
15256W        W30873   5.312  18.026   0.203 -0.0558 -0.1300 -0.2215
15257W        W30874  15.026  11.782  14.530 -0.1618 -0.0333 -0.1075
15258W        W30875   3.684   5.692   2.716  0.1811 -0.0523 -0.2189
15259W        W30876  11.624  15.060  13.544  0.1557  0.1533 -0.4429
15260W        W30877   3.881   8.232   3.107 -0.2129 -0.4071  0.0187
15261W        W30878  15.849   9.481  14.454 -0.0664 -0.1555  0.1943
15262W        W30879   3.954  17.469  15.780 -0.0749 -0.0758 -0.1206
15263W        W30880  10.967  12.885  12.681 -0.0486  0.2924 -0.1469
15264W        W30881  13.915   6.059   3.400  0.1210  0.1326 -0.1787
15265W        W30882   0.353  15.481  11.152  0.1358 -0.0334 -0.0549
15266W        W30883  12.002  15.336   1.601  0.1488  0.3170  0.3132
15267W        W30884   7.809   4.583   3.527 -0.0665  0.0117  0.0993
15268W        W30885  10.181  16.978  11.572 -0.0987 -0.0269 -0.0002
15269W        W30886   4.137  12.983  16.102  0.0061 -0.0707 -0.0944
15270W        W30887  12.739  15.333   0.547  0.1309 -0.3514  0.0359
15271W        W30888  15.574   3.222  15.266 -0.1888  0.3184 -0.4275
15272W        W30889   9.134  16.668   2.795  0.3664 -0.1055 -0.0502
15273W        W30890  17.848   8.439  12.248 -0.0596  0.1119 -0.0106
15274W        W30891   0.654  16.214   1.954  0.0000 -0.0462  0.1465
15275W        W30892   2.812   3.949  13.090  0.0710 -0.1462 -0.0854
15276W        W30893  10.052   5.809  10.569  0.1682  0.3392  0.3080
15277W        W30894  10.776   3.917  11.592  0.0212 -0.2034 -0.1725
15278W        W30895   6.526   4.877   4.143  0.3274  0.1859  0.1477
15279W        W30896   6.509   3.663  12.108 -0.2001  0.2465  0.3484
15280W        W30897  15.686  12.922  14.331 -0.3367  0.1486 -0.0467
15281W        W30898  10.665  10.836   4.456  0.0485  0.4407  0.0332
15282W        W30899  15.471   7.359  10.771  0.2228  0.1635 -0.0900
15283W        W30900   5.477   5.538  10.547 -0.0752 -0.0712 -0.0452
15284W        W30901  12.754  17.297   2.230 -0.1005 -0.0423  0.1833
15285W        W30902   5.222  11.917  12.307  0.1214  0.2025 -0.2968
15286W        W30903   9.486  18.335  12.502 -0.2874 -0.1470  0.0917
15287W        W30904   5.396   3.049   0.606  0.0773 -0.4685  0.2358
15288W        W30905  16.914   6.248   3.780  0.5401  0.2567  0.1737
15289W        W30906   4.628  15.723  13.350  0.0737 -0.1943 -0.0162
15290W        W30907   5.529   9.932   3.371 -0.1921 -0.3037  0.1657
15291W        W30908   1.752   5.208  14.195 -0.0708  0.0480 -0.1340
15292W        W30909   7.582  13.160   1.597 -0.0197 -0.0507 -0.0201
15293W        W30910  18.428  15.933   0.548  0.0968 -0.1001  0.1147
15294W        W30911   1.826   3.355  14.072 -0.0490 -0.0196 -0.0060
15295W        W30912  13.774   2.369   4.353  0.0707  0.0070 -0.1578
15296W        W30913   4.327   8.903   4.876  0.0550 -0.2032 -0.1641
15297W        W30914  17.701  12.420   4.499 -0.5095  0.0937 -0.0907
15298W        W30915  17.523  12.407   0.341 -0.2708  0.0639 -0.2556
15299W        W30916   3.949   7.052  15.246  0.0933 -0.1791 -0.1465
15300W        W30917  16.021   4.058   2.177  0.0028 -0.1320 -0.1363
15301W        W30918  13.997   4.224  11.053 -0.3958 -0.2647  0.1087
15302W        W30919   8.562   6.794  12.284  0.2502 -0.1458 -0.1998
15303W        W30920  11.924   3.695   2.973  0.1626  0.4203 -0.0406
15304W        W30921  11.201   0.311   3.669  0.0737  0.0557  0.2041
15305W        W30922   5.027   3.815  15.769 -0.2816  0.2094  0.1164
15306W        W30923  14.280  13.663   3.218  0.4327  0.2733  0.0367
15307W        W30924   4.151   9.719   4.520 -0.0981 -0.1958 -0.1305
15308W        W30925  15.282   9.696  15.551  0.4690 -0.2235 -0.0968
15309W        W30926  16.478   0.619  12.267 -0.0491  0.0122  0.0427
15310W        W30927   8.563  14.532  15.077 -0.3026 -0.0736 -0.2490
15311W        W30928  15.506   4.979   1.101  0.0234 -0.0244  0.0391
15312W        W30929  12.869  14.616  14.497  0.4819 -0.2267 -0.0805
15313W        W30930  12.724  14.442   2.153 -0.2837 -0.1897 -0.4157
15314W        W30931   1.164   6.216   1.337 -0.3716 -0.0287 -0.0201
15315W        W30932  14.928   7.754  15.475 -0.2500 -0.0734 -0.1749
15316W        W30933   1.383   6.965  15.141  0.2260 -0.2713  0.0817
15317W        W30934   5.201   9.523   3.237 -0.3567  0.0663 -0.1002
15318W        W30935   5.630  12.215  15.035 -0.0750 -0.2482 -0.1429
15319W        W30936  11.122   5.319   2.144  0.2110 -0.2335  0.2360
15320W        W30937   2.202  12.617  11.549  0.0701  0.0022 -0.2070
15321W        W30938   1.940  10.721   4.560  0.0809  0.0275 -0.0912
15322W        W30939  16.364   2.879  14.253 -0.0119 -0.3156  0.2804
15323W        W30940  14.173  16.900  12.183 -0.0317 -0.1812 -0.2849
15324W        W30941   4.832   2.083   5.602  0.2435 -0.2857  0.0818
15325W        W30942   8.526   3.189   0.578 -0.0745  0.3563 -0.0973
15326W        W30943  18.306  17.949   2.598  0.1278  0.4015 -0.0576
15327W        W30944   6.569  16.439   1.769  0.0240  0.2310 -0.2872
15328W        W30945  13.871  15.306  12.046  0.0430  0.2232 -0.2318
15329W        W30946   4.988  13.073  12.869 -0.1129  0.1011 -0.1321
15330W        W30947   9.519  16.594  15.808 -0.0172  0.1132 -0.0324
15331W        W30948   2.352   2.694   4.406 -0.0408  0.0193 -0.0400
15332W        W30949  13.760   4.759   3.085 -0.1111  0.2104 -0.0347
15333W        W30950  17.088  14.676   1.966 -0.3608  0.0186 -0.1432
15334W        W30951   6.682   8.326  15.791 -0.3176 -0.0718 -0.3476
15335W        W30952   3.747  15.218  12.502 -0.0382 -0.1226 -0.0662
15336W        W30953   4.495  14.864   1.890  0.2840  0.1029  0.0605
15337W        W30954   4.231   3.487  15.239  0.0215 -0.0923 -0.0716
15338W        W30955   2.697  10.789   1.552  0.1066  0.0554 -0.4410
15339W        W30956  12.949  12.219  13.610 -0.5560  0.1929  0.0792
15340W        W30957  16.290   6.750  15.617 -0.0660  0.0195 -0.1849
15341W        W30958  17.957  15.278   0.018 -0.1842 -0.0948  0.0432
15342W        W30959  11.418   1.235  12.518  0.3037 -0.1710  0.0321
15343W        W30960   5.068  13.389  15.875 -0.2735 -0.1064  0.0364
15344W        W30961  14.881   6.377  15.499  0.0242  0.1790 -0.0162
15345W        W30962   4.691   2.977  11.987 -0.1665 -0.3666  0.0189
15346W        W30963   3.530   8.884  15.383 -0.0229 -0.0165  0.2464
15347W        W30964   3.821   0.026  13.301 -0.1294 -0.3661 -0.0827
15348W        W30965   6.325   1.694  15.307  0.1010  0.1087  0.2010
15349W        W30966   6.852  14.948  14.320 -0.4199 -0.0740 -0.0030
15350W        W30967   5.822  13.760  15.539  0.0936  0.0152 -0.0904
15351W        W30968   0.881   3.923   3.113 -0.0346 -0.0763  0.3698
15352W        W30969   8.078  11.337  11.434  0.2154  0.0147 -0.0271
15353W        W30970   6.381   4.936   0.353  0.0646  0.0674  0.2910
15354W        W30971  13.720  11.033   0.340 -0.0360 -0.0622  0.1452
15355W        W30972  16.635  10.321   1.491 -0.0024  0.1360 -0.1967
15356W        W30973   1.178  16.381  13.981 -0.1054  0.0127 -0.1025
15357W        W30974   6.247   9.447   4.602  0.1244 -0.2887 -0.3088
15358W        W30975   1.267   9.419   3.812  0.1198  0.1903  0.0444
15359W        W30976  15.359   5.216   2.887 -0.1819 -0.1470  0.2467
15360W        W30977  16.472   0.403  12.789 -0.2538 -0.2244  0.0940
15361W        W30978  11.879  13.643  14.963  0.0824  0.2042 -0.3164
15362W        W30979   5.286   5.327   1.988  0.0482 -0.2268  0.1065
15363W        W30980  13.866   5.851  12.318  0.4193  0.0212  0.2596
15364W        W30981   4.337   8.770  13.389  0.3107  0.0419 -0.0803
15365W        W30982   3.598  14.351   6.264  0.4850  0.2919 -0.0665
15366W        W30983   5.910   6.892  13.427  0.1382 -0.4124  0.0709
15367W        W30984  12.857  14.647   4.237  0.2835  0.1570  0.0104
15368W        W30985  12.220   5.471   3.590  0.1811  0.0015 -0.1353
15369W        W30986   2.541  13.044  16.134  0.0436 -0.0028  0.1089
15370W        W30987   7.421  13.250   1.128  0.0505 -0.0523  0.1296
15371W        W30988  12.526  16.318   2.173  0.2142 -0.1790 -0.2428
15372W        W30989   9.112  14.126  14.955  0.1991 -0.0220 -0.0758
15373W        W30990  12.078  13.076   2.087  0.1488  0.0338  0.0441
15374W        W30991   2.174   7.447  14.727  0.1757 -0.2264 -0.2240
15375W        W30992   5.742  13.520   1.172  0.2007 -0.2767  0.2185
15376W        W30993  16.481  11.709  14.089 -0.3748 -0.2814 -0.3426
15377W        W30994  15.917   7.384  15.385  0.1867  0.1024 -0.0263
15378W        W30995   5.766   4.896   2.866  0.1115  0.0299 -0.0769
15379W        W30996   6.003  17.305  12.895 -0.0900  0.0303 -0.0041
15380W        W30997   4.155   4.561  12.196  0.0053  0.2167  0.2283
15381W        W30998  14.899   3.597   1.444 -0.1280  0.1669  0.0076
15382W        W30999   2.202  18.156  15.389 -0.3131  0.0175  0.1279
15383W        W31000  12.241  17.553   4.139 -0.2999  0.4415 -0.2228
15384W        W31001   4.554  14.031  14.196 -0.2393  0.2330 -0.1540
15385W        W31002  16.213  14.444  12.637 -0.0153 -0.1933  0.2173
15386W        W31003  14.483  11.077  12.996  0.0148 -0.0696 -0.3564
15387W        W31004   1.541  10.291  13.668  0.0786 -0.1501  0.0718
15388W        W31005   0.194   7.078   4.908  0.0950 -0.0535 -0.1666
15389W        W31006  14.066   8.721  10.642  0.0805  0.1277  0.2490
15390W        W31007  17.059  12.089  15.992 -0.2390 -0.0548 -0.1095
15391W        W31008  13.211   8.797  10.306  0.0151 -0.2619  0.1164
15392W        W31009   6.580   9.461   1.437 -0.1533 -0.3311 -0.1145
15393W        W31010  14.035  16.201   1.174  0.2132  0.3641 -0.3394
15394W        W31011   6.864   9.773  13.229 -0.2240  0.0816  0.0506
15395W        W31012   3.504  15.344   2.137  0.0474 -0.2385  0.0518
15396W        W31013  15.669   0.685  13.369 -0.2222  0.3331 -0.1267
15397W        W31014  11.967  15.641  14.910 -0.2365 -0.0045  0.1691
15398W        W31015  13.904  17.641  15.221  0.0131 -0.1115  0.0138
15399W        W31016   1.532   7.312  10.225  0.1576  0.0419  0.0168
15400W        W31017  15.722   0.092  11.053  0.4706 -0.0294 -0.0726
15401W        W31018   3.717   8.592   1.341 -0.1792  0.0291 -0.0860
15402W        W31019   7.791   8.188  12.543 -0.0184 -0.0290  0.0254
15403W        W31020   7.156   9.456  15.985  0.2625 -0.1100 -0.1705
15404W        W31021  15.214   3.334   3.637 -0.0145 -0.1470  0.1846
15405W        W31022   8.205  11.945   0.834  0.3959  0.0057 -0.0793
15406W        W31023   3.669   8.868  11.593 -0.0732  0.1726  0.1890
15407W        W31024  16.793   8.537   0.082  0.0930 -0.2654  0.3921
15408W        W31025  10.392   7.822  12.423  0.0021 -0.2467  0.1014
15409W        W31026   9.821  13.665  12.033  0.0330  0.0710 -0.2333
15410W        W31027   5.588   7.845  13.986 -0.1553  0.2208 -0.1187
15411W        W31028   5.391  15.530   2.486 -0.0286  0.2477  0.2989
15412W        W31029   5.899  10.741   6.123  0.1173  0.2366  0.2859
15413W        W31030   3.250  12.854  15.693 -0.0061 -0.1696 -0.2099
15414W        W31031  13.426  12.481  15.971 -0.2946  0.3073 -0.3095
15415W        W31032   3.400   5.490  14.159 -0.0953  0.2793 -0.1406
15416W        W31033   8.318  14.088   5.362  0.4335 -0.0347  0.1113
15417W        W31034  14.708   1.160  14.873  0.0000 -0.0080  0.0783
15418W        W31035   6.476   9.952  14.245  0.1241  0.0975 -0.0602
15419W        W31036  11.715  15.303   2.023  0.0902 -0.0949 -0.0924
15420W        W31037  16.563  14.983   5.582  0.2533 -0.1671  0.1685
15421W        W31038   7.038  13.144  14.401  0.1619  0.0262  0.0801
15422W        W31039   4.824   6.319  13.947  0.4625  0.2018 -0.1358
15423W        W31040   0.701  12.829   1.676  0.0492 -0.3532  0.1794
15424W        W31041   0.546   5.652  15.556 -0.1530 -0.3037  0.3655
15425W        W31042   8.136  11.544  12.773 -0.1275 -0.5103  0.0213
15426W        W31043  17.066   0.675  11.522 -0.0612 -0.0884 -0.2867
15427W        W31044  10.562   8.904  15.471  0.0350  0.0420  0.0887
15428W        W31045  14.721  14.512   3.441 -0.0414  0.0170 -0.0512
15429W        W31046  12.793   3.301  10.593 -0.2359 -0.0317  0.1835
15430W        W31047   1.138  14.958   6.355 -0.1014  0.2624  0.0157
15431W        W31048  12.492  14.219   4.179 -0.0853  0.0714 -0.1174
15432W        W31049   8.078   5.905   1.856 -0.2350 -0.1606 -0.1096
15433W        W31050   9.324   3.290  12.075  0.0222 -0.3618  0.0109
15434W        W31051   8.775   5.679  15.144  0.2071 -0.0528  0.1026
15435W        W31052   4.872  11.183  12.822 -0.0132  0.0552  0.1949
15436W        W31053  13.037   2.563   4.054 -0.0805  0.0408  0.0269
15437W        W31054  13.473   6.991   2.290  0.0295 -0.0675 -0.1687
15438W        W31055  13.297  10.132  13.855 -0.0635 -0.3065 -0.1128
15439W        W31056   0.300  13.232   4.741 -0.1307  0.0095  0.3686
15440W        W31057  18.101  14.578   0.868 -0.0496  0.0270  0.0276
15441W        W31058  11.591  10.462  13.187 -0.0970  0.3515 -0.3511
15442W        W31059  10.488   4.741  11.322 -0.0434 -0.3649 -0.1625
15443W        W31060  12.075  14.330   3.962 -0.3463 -0.2480 -0.0092
15444W        W31061  13.339   4.627  15.082 -0.1570  0.2207 -0.1124
15445W        W31062  15.352   2.224   1.313  0.1973 -0.1427  0.2954
15446W        W31063   0.523   2.760  10.660  0.0820  0.0522 -0.2196
15447W        W31064  11.048   8.990   0.730 -0.0981 -0.2248  0.2732
15448W        W31065  13.140  14.185   2.098  0.1704  0.1903 -0.2758
15449W        W31066   0.598  12.703  13.275  0.0339 -0.1964  0.0906
15450W        W31067  13.415   8.367   3.012 -0.1038  0.0322  0.2245
15451W        W31068  13.487   8.209   4.815  0.1552 -0.1255 -0.3101
15452W        W31069  11.508  16.927   5.074  0.1675 -0.0206  0.1661
15453W        W31070   6.132   3.160  12.114  0.0884  0.1237 -0.0280
15454W        W31071  10.506   4.031  13.807  0.1918  0.1310 -0.0952
15455W        W31072   4.525   6.703   2.630 -0.3086 -0.2551 -0.1404
15456W        W31073  12.292  15.829  15.988  0.0084 -0.0155 -0.4686
15457W        W31074   6.610  17.048  12.530 -0.0148  0.3109  0.1105
15458W        W31075   9.036  12.578  12.793  0.2094  0.0278  0.3648
15459W        W31076  11.697   4.861  12.663  0.0623  0.4337 -0.1718
15460W        W31077   8.543   0.866   5.578  0.2030  0.3014  0.0558
15461W        W31078  17.611   6.125  11.697 -0.2576  0.2542 -0.2706
15462W        W31079  16.875   9.616   3.088 -0.2780 -0.1003  0.0939
15463W        W31080  13.530  11.420  13.183 -0.0554  0.3408  0.0086
15464W        W31081   9.886   6.333  14.158 -0.0351  0.0607 -0.0722
15465W        W31082  13.578  10.756  11.882 -0.1470 -0.0207  0.0082
15466W        W31083   8.943   5.598   1.711 -0.1270 -0.0538  0.1691
15467W        W31084  13.365   7.101  12.822  0.0777  0.0146 -0.0491
15468W        W31085   9.235  11.611  15.429  0.2141 -0.2326 -0.4233
15469W        W31086   0.241   6.900  11.228  0.0613 -0.0909  0.0277
15470W        W31087   2.183  16.874   2.510 -0.2142 -0.1635  0.3351
15471W        W31088  13.807   6.026  11.831 -0.2808  0.2954 -0.0691
15472W        W31089   9.670  17.440  15.335 -0.1339  0.0801 -0.2039
15473W        W31090   2.334  14.252   0.794  0.0793  0.1930  0.2251
15474W        W31091   4.842   1.890  12.580 -0.2854  0.1184  0.3110
15475W        W31092  14.023   2.431  13.795 -0.0389 -0.0289  0.0616
15476W        W31093   8.592   9.665  15.400  0.0438  0.2830 -0.0621
15477W        W31094  10.557   7.980  11.949 -0.0933 -0.0078  0.4983
15478W        W31095   7.078  10.591  11.294 -0.0132 -0.0778  0.1615
15479W        W31096   2.911   1.439  15.807 -0.1412  0.1008 -0.2273
15480W        W31097  15.852   8.940   2.674 -0.2661  0.2917 -0.1432
15481W        W31098  16.529  16.158  11.822 -0.2772  0.1409 -0.0185
15482W        W31099   1.974  15.963   2.082  0.0825 -0.1458 -0.2304
15483W        W31100  11.725   3.691  13.936  0.1361  0.1329  0.1217
15484W        W31101   2.955   4.760  10.924  0.1421  0.0914  0.1923
15485W        W31102  14.684   5.296   4.235  0.0476  0.1671  0.2376
15486W        W31103  17.398   9.696  12.824  0.0081 -0.2472 -0.2314
15487W        W31104   9.555   3.588   3.740 -0.1176  0.1771 -0.1661
15488W        W31105  17.109   1.891   5.118  0.0750  0.2587  0.1631
15489W        W31106  17.576   3.504   5.494 -0.1584  0.0827  0.1731
15490W        W31107   3.815   1.294  14.973 -0.0058 -0.1595 -0.0478
15491W        W31108  17.506  14.177  15.134 -0.0493 -0.1325 -0.2222
15492W        W31109  12.588  13.241  15.315  0.0386  0.2243 -0.0987
15493W        W31110   7.572  17.682  10.974 -0.1487 -0.0839  0.0002
15494W        W31111   6.084  12.531  14.976 -0.0619  0.2425 -0.1837
15495W        W31112   7.491  13.956  11.446 -0.4087 -0.1365 -0.0352
15496W        W31113   6.488   7.856  15.784 -0.0113 -0.1918  0.1091
15497W        W31114  13.091   2.304  14.353  0.2981  0.4930  0.5058
15498W        W31115   4.616   5.289   0.785  0.1361 -0.2560  0.1101
15499W        W31116  14.734   7.817   2.543 -0.0719 -0.1831  0.1071
15500W        W31117  11.773   1.620  13.447 -0.0288  0.0771  0.0950
15501W        W31118   1.503  12.733   1.148 -0.0286 -0.0968 -0.0294
15502W        W31119  11.141   5.603  14.646  0.1852 -0.1092 -0.0779
15503W        W31120  13.172  16.403   5.781 -0.0905 -0.0651  0.0767
15504W        W31121   6.565   0.325   5.780 -0.0514  0.1540  0.0534
15505W        W31122  18.163  10.580   3.868  0.0005  0.3537 -0.0092
15506W        W31123  17.261   7.982   3.045  0.5606 -0.0274 -0.0688
15507W        W31124  10.220   4.647   3.729 -0.1038 -0.1268  0.2531
15508W        W31125   9.430  17.685   1.208 -0.0513 -0.0413  0.0530
15509W        W31126   3.005   9.135   0.125  0.5215  0.2244  0.0898
15510W        W31127  10.321  16.625  14.357  0.1715  0.0519  0.1310
15511W        W31128   9.805  18.385   5.445  0.3491 -0.2099 -0.1997
15512W        W31129  14.642  17.276  14.373  0.1200 -0.0060 -0.0064
15513W        W31130   9.016   0.151   1.471  0.1306 -0.1473 -0.1430
15514W        W31131  14.466   1.101   4.408  0.0737 -0.2838 -0.5974
15515W        W31132  15.522   8.933   3.698  0.5079 -0.0200  0.0020
15516W        W31133   6.472   7.497   0.015  0.0512  0.4241  0.2586
15517W        W31134  14.219  12.588   3.730 -0.1442 -0.0909 -0.0631
15518W        W31135  11.890   0.293  13.981 -0.1867  0.2855  0.0808
15519W        W31136  13.196  15.803  15.752  0.0654 -0.0158 -0.2439
15520W        W31137  11.019  12.979   4.026 -0.1803  0.2190  0.0275
15521W        W31138  10.446   5.050   4.609 -0.1635 -0.1331  0.3100
15522W        W31139   9.145  17.896  16.062  0.0179  0.1275 -0.0930
15523W        W31140  16.056  15.737   2.298  0.2255  0.1097  0.1602
15524W        W31141   1.553   6.573  11.820  0.1487  0.2319  0.0775
15525W        W31142   4.125  12.964   0.717 -0.0098  0.1454  0.1664
15526W        W31143  17.122   5.154   0.316  0.2001 -0.1840 -0.0720
15527W        W31144   0.136  15.349  12.439  0.0440  0.2677 -0.0965
15528W        W31145  12.953   1.597   0.596  0.1374  0.0137 -0.0841
15529W        W31146  12.230  13.186   3.406  0.0920  0.0780  0.2391
15530W        W31147   9.484  15.391   3.984  0.1003  0.5916 -0.5087
15531W        W31148   2.518  13.049   1.850  0.2062 -0.4008  0.0619
15532W        W31149  14.414   1.091  15.585  0.1910 -0.1178  0.0358
15533W        W31150   5.261   1.649  12.051 -0.0649  0.0154 -0.1425
15534W        W31151   1.019  12.766   1.299  0.1315 -0.2802 -0.0220
15535W        W31152   3.530  12.703   1.062 -0.1475  0.2791 -0.1239
15536W        W31153   7.501   7.490   5.800 -0.0914 -0.1106 -0.0671
15537W        W31154   4.675   0.587  15.797 -0.3127  0.0082  0.5001
15538W        W31155  14.856   3.679  12.026 -0.0106 -0.1847 -0.0085
15539W        W31156   6.385   8.058  12.520 -0.3387  0.0182  0.4013
15540W        W31157   0.132  16.817   5.750 -0.0893 -0.3718 -0.0590
15541W        W31158   8.086  10.873  12.366 -0.1977  0.4331 -0.1134
15542W        W31159   4.968   8.529  11.595  0.0486 -0.0983  0.5551
15543W        W31160  18.136   0.082   5.376  0.2846 -0.0654 -0.1315
15544W        W31161   7.497   6.819  12.711 -0.1914 -0.0169  0.1458
15545W        W31162   6.033  13.241   1.539  0.0320  0.0992 -0.1043
15546W        W31163   6.709   0.795  12.899 -0.4014  0.0361  0.1503
15547W        W31164   5.041   1.143   1.760  0.2070  0.2512 -0.1520
15548W        W31165  15.384   9.152   1.868  0.0985  0.4086 -0.0755
15549W        W31166   8.840   8.746   2.998 -0.0858  0.2747  0.0823
15550W        W31167  10.152   6.228   5.295 -0.2983 -0.1416  0.2067
15551W        W31168   0.108   7.448   3.322  0.2593  0.2848 -0.0892
15552W        W31169  15.636   7.827  12.908 -0.1906 -0.2494  0.0848
15553W        W31170   3.248  17.371  14.698  0.2901  0.0253 -0.2037
15554W        W31171  14.387  11.756  15.195 -0.1426  0.1406 -0.5083
15555W        W31172  15.311   7.471  12.680 -0.0847  0.0089  0.0632
15556W        W31173   5.760  13.515  10.638 -0.2487  0.1586 -0.1558
15557W        W31174  10.160  10.959   2.132  0.0202  0.0216 -0.0413
15558W        W31175  16.597   8.218   4.870  0.2372  0.1463 -0.1983
15559W        W31176  16.892  11.164  14.481  0.0072 -0.0175  0.0093
15560W        W31177  11.648   3.180  13.811  0.2311  0.0937 -0.2123
15561W        W31178  11.113   8.901  12.946  0.0130  0.2656  0.1373
15562W        W31179  10.780  13.640  13.541 -0.1329  0.0182  0.3918
15563W        W31180   5.355  13.458  12.380 -0.1225 -0.3112 -0.3009
15564W        W31181  12.393  10.377  11.960  0.0033  0.1687  0.0850
15565W        W31182  15.575  11.352   2.013 -0.4334 -0.0767  0.2111
15566W        W31183  12.402   1.731   0.371 -0.1483  0.0240  0.1925
15567W        W31184   7.853  12.361  13.853  0.0712  0.0991  0.1793
15568W        W31185  12.811  17.961  14.759 -0.1585  0.4918 -0.0501
15569W        W31186   1.889  11.549  12.951 -0.0436  0.0363 -0.0473
15570W        W31187  17.620   9.713   1.851  0.1603  0.1424 -0.0007
15571W        W31188   5.669  14.420  15.936  0.1765  0.0683 -0.0726
15572W        W31189  17.648   7.456   0.287  0.2106 -0.0616 -0.0253
15573W        W31190  11.334   5.435  16.118  0.0619  0.0965 -0.1406
15574W        W31191   1.230  15.604  14.727  0.0459  0.0350  0.0692
15575W        W31192  16.717   3.820  11.735 -0.0000 -0.0111  0.0656
15576W        W31193  18.440   3.029  15.921 -0.3488  0.2395 -0.0522
15577W        W31194   1.265   8.239   3.241 -0.2574  0.0633 -0.3828
15578W        W31195   4.855  11.196  11.441  0.1057  0.2104 -0.1751
15579W        W31196  14.557   2.194   4.616 -0.1386  0.1520 -0.2863
15580W        W31197  17.687  11.476   4.223 -0.1548  0.2381  0.0698
15581W        W31198   0.944  17.515  15.133  0.0702  0.2069  0.0729
15582W        W31199   1.399  15.696  15.705  0.3400  0.2084 -0.0352
15583W        W31200  17.559   7.988  13.152  0.0914 -0.2538  0.2966
15584W        W31201   4.033   6.634   2.406  0.0254 -0.1020  0.0968
15585W        W31202   0.669   0.529  13.660  0.1852  0.0547 -0.2221
15586W        W31203   2.960  12.343  13.874 -0.0651  0.1828 -0.0537
15587W        W31204  13.235   4.095   2.672 -0.0879 -0.0719 -0.1894
15588W        W31205  18.157   1.320  14.580 -0.0252  0.0955 -0.0027
15589W        W31206   2.494  12.577  14.003  0.2755 -0.0604  0.1656
15590W        W31207  17.919  15.771   3.660  0.1338  0.2869 -0.4835
15591W        W31208   4.851   7.847   3.455 -0.1191  0.3168 -0.1944
15592W        W31209   6.708  14.774   0.545 -0.1311  0.5201  0.0724
15593W        W31210   3.612   9.890  13.600  0.3036  0.3405  0.1276
15594W        W31211  17.042  12.621  15.934 -0.0636 -0.3386  0.1255
15595W        W31212   9.876   5.291   0.881  0.0474 -0.1119 -0.1088
15596W        W31213   5.669   8.795  15.507 -0.2559  0.1657 -0.2225
15597W        W31214  18.276  14.495  15.678 -0.2404 -0.0255 -0.1081
15598W        W31215   8.675   5.960   1.943  0.0747 -0.1126 -0.2008
15599W        W31216  15.909  11.346  14.773 -0.3684  0.1918 -0.1281
15600W        W31217  16.460  16.743   3.881  0.0517  0.0364 -0.1577
15601W        W31218   3.886   5.751  15.754 -0.0843  0.0003 -0.1230
15602W        W31219   0.970   7.101   3.183 -0.1759  0.0800 -0.0952
15603W        W31220   8.037  16.155   5.630 -0.0017  0.2751 -0.1684
15604W        W31221  14.756  10.096   0.959  0.1309 -0.3368  0.1284
15605W        W31222   6.522   6.838  15.136 -0.0874  0.1179  0.2874
15606W        W31223   9.833  18.434   5.954  0.2539  0.3489 -0.1251
15607W        W31224  13.623  18.376   1.076  0.1157 -0.1187  0.2968
15608W        W31225   2.045  15.490   3.785 -0.0263 -0.1684 -0.0159
15609W        W31226  16.507  16.580  13.782  0.1989  0.0784  0.1947
15610W        W31227   6.001  14.248  15.565 -0.2698  0.1728 -0.4122
15611W        W31228  17.658  12.939   2.731 -0.2291  0.1848 -0.4487
15612W        W31229  17.551   8.370   4.491  0.0263  0.1919  0.0793
15613W        W31230   6.341   9.920   2.348  0.1505  0.2030 -0.1307
15614W        W31231  17.005   7.736  14.308  0.2021 -0.2910  0.0717
15615W        W31232   4.096  17.118   3.627 -0.1092 -0.0874 -0.2109
15616W        W31233   0.627   7.284   1.282 -0.0644  0.0105  0.1029
15617W        W31234  14.892   6.322   5.212  0.1182  0.1928 -0.1451
15618W        W31235   9.928   5.528  11.818 -0.1809  0.0388 -0.0933
15619W        W31236  18.202   2.615   4.824  0.1257 -0.2681 -0.0623
15620W        W31237   2.551   2.484  13.521  0.0423  0.0810 -0.0523
15621W        W31238   5.029   5.206  11.417 -0.0897  0.2833  0.1747
15622W        W31239   4.785   7.699  12.961  0.2325 -0.2514  0.1225
15623W        W31240   7.524   5.812  14.419 -0.0198 -0.2130 -0.1810
15624W        W31241   6.075   7.108   0.178 -0.2589  0.2100  0.3757
15625W        W31242   8.367  17.158   0.608 -0.1093 -0.0184  0.3356
15626W        W31243  15.037  16.015   4.508 -0.2922  0.3487  0.1011
15627W        W31244  11.467   2.821   0.866  0.1870 -0.2906 -0.0351
15628W        W31245  10.816   7.591  12.599 -0.1011 -0.0874  0.1221
15629W        W31246  10.366  14.150  13.029  0.2061  0.1255  0.0932
15630W        W31247   5.126  17.302  14.423 -0.3494 -0.0232  0.2503
15631W        W31248  12.426  16.558   9.970  0.0853  0.1136  0.0362
15632W        W31249  14.070  14.133   1.877  0.0601  0.0970 -0.4198
15633W        W31250  14.761  10.437  10.788 -0.5084 -0.2353 -0.2842
15634W        W31251   6.480  12.758   3.208 -0.1093  0.0558 -0.0162
15635W        W31252  17.926   0.161   0.070 -0.0133 -0.0878 -0.0209
15636W        W31253   3.713  11.607   0.233 -0.0309  0.0593  0.1357
15637W        W31254  17.919   7.610   1.755  0.0544  0.0386  0.2432
15638W        W31255  15.700   5.531   2.755 -0.1232 -0.1501 -0.1807
15639W        W31256  12.040  10.417  14.883 -0.0090  0.1127 -0.0528
15640W        W31257   0.622  18.025   5.159  0.2163 -0.0482 -0.1030
15641W        W31258  10.622   8.824   2.635 -0.1486 -0.1855 -0.1021
15642W        W31259   6.085  12.371   1.730  0.3631  0.2672 -0.1306
15643W        W31260   3.929   7.843   0.111  0.1954  0.5038  0.1344
15644W        W31261  11.075   8.345   4.595 -0.0608  0.5076  0.1364
15645W        W31262  16.863   3.027  11.486 -0.0325 -0.0091  0.2958
15646W        W31263   7.547  17.424   3.738 -0.0389  0.1422 -0.1700
15647W        W31264  10.799  14.161  11.599  0.2438  0.0010  0.2872
15648W        W31265   4.990   6.643  11.309  0.1405 -0.0817  0.2570
15649W        W31266  12.109  13.262   3.959 -0.2255  0.2428  0.0130
15650W        W31267   8.116   7.966  15.875 -0.1964  0.1115  0.1372
15651W        W31268  15.155  14.299  14.646  0.0196 -0.1708  0.0777
15652W        W31269  14.014   8.742   4.198  0.1631 -0.1685  0.0682
15653W        W31270  14.954  13.930  11.608 -0.0409 -0.1473  0.2089
15654W        W31271  13.648   5.614  14.403  0.1643 -0.0601 -0.1212
15655W        W31272  12.207   1.649   3.311 -0.0578 -0.0326 -0.1032
15656W        W31273  16.039   6.131  14.798  0.0325  0.2882  0.1112
15657W        W31274   8.732  12.266   0.301  0.2480 -0.0194  0.1710
15658W        W31275  18.459  16.838   4.172 -0.1187 -0.1930 -0.0526
15659W        W31276  13.009   8.049  13.045 -0.0060  0.3176 -0.2276
15660W        W31277   3.949   9.312   4.625 -0.0566  0.2554  0.2384
15661W        W31278   4.429   1.271   2.543  0.1345  0.1785  0.0513
15662W        W31279   8.432  11.887  14.621  0.1468 -0.1565  0.2193
15663W        W31280   1.924   7.420  11.180  0.2189  0.2905 -0.1460
15664W        W31281   2.356   5.696   1.111  0.1576  0.0220 -0.1121
15665W        W31282   8.755   9.883  12.833 -0.0739 -0.0116  0.1221
15666W        W31283  18.422   8.089   3.973  0.0538  0.0741 -0.1109
15667W        W31284  10.716  17.124  12.077  0.5852  0.1025  0.0758
15668W        W31285   9.632  16.571   0.693  0.0382 -0.3689 -0.0191
15669W        W31286  12.310   1.108   6.121 -0.0466 -0.0272  0.0033
15670W        W31287  15.575  13.221  11.999  0.2168 -0.2214 -0.2458
15671W        W31288   0.668   6.801  14.194  0.3409  0.1585  0.1373
15672W        W31289   0.035  13.344   1.176  0.0185  0.0494  0.3768
15673W        W31290  16.712   5.042  15.107 -0.0270  0.0832  0.0053
15674W        W31291  15.985  10.801   1.024 -0.1021  0.4368  0.0428
15675W        W31292  10.575   6.934  13.228 -0.0170  0.0541  0.1494
15676W        W31293  11.555  10.116  15.533 -0.1837 -0.0511  0.0299
15677W        W31294   7.344  11.849   6.614  0.0988 -0.0098  0.3270
15678W        W31295  13.195   2.192   2.460  0.4255 -0.2025 -0.0333
15679W        W31296   4.893  17.709  11.730  0.2729  0.0550 -0.0140
15680W        W31297   1.361   0.161  14.173 -0.2843  0.0684  0.1295
15681W        W31298  12.854   6.370  15.698  0.2888  0.0164  0.1746
15682W        W31299  11.024   3.093   0.929  0.2712 -0.0573 -0.4544
15683W        W31300   8.549   9.386  13.944  0.1888 -0.2363  0.3155
15684W        W31301   0.973   1.538  13.314  0.0960 -0.1004 -0.1199
15685W        W31302  13.180  15.240  12.019 -0.1262 -0.1450 -0.1550
15686W        W31303  18.213  17.992   0.846  0.0423  0.2467  0.0258
15687W        W31304  17.837  15.664  11.406  0.1363  0.0475 -0.0097
15688W        W31305  10.275  10.581  14.068 -0.2999 -0.1606  0.0623
15689W        W31306   3.599   5.521   3.441 -0.2884  0.2119  0.0652
15690W        W31307  10.540  15.562   0.305 -0.0621  0.1404  0.1701
15691W        W31308  13.667  10.090   0.250  0.3131  0.0700 -0.1382
15692W        W31309  11.108   7.482  11.467  0.2011 -0.3349 -0.1361
15693W        W31310   6.331   0.819   1.962  0.1692 -0.0636  0.2693
15694W        W31311   4.638   9.956   3.706  0.0871  0.2653 -0.0111
15695W        W31312   8.866   3.884   1.186 -0.3562 -0.1127 -0.0311
15696W        W31313   2.897   1.181   2.091  0.3453  0.0391  0.0659
15697W        W31314   9.695   2.878   0.288  0.2580  0.1598  0.0812
15698W        W31315  12.269  17.704   0.229  0.1889  0.0812  0.1667
15699W        W31316   4.327  17.408   4.477  0.0224 -0.1789 -0.0787
15700W        W31317   0.954  10.238  12.521 -0.1612  0.3915  0.0467
15701W        W31318   4.699   3.546   4.217  0.2647 -0.0048 -0.1985
15702W        W31319  14.332   8.324   5.719  0.2502 -0.2720 -0.0905
15703W        W31320   7.713   3.653   3.029 -0.0698 -0.0408  0.0492
15704W        W31321   7.868   7.915  10.979  0.1429 -0.1079  0.5618
15705W        W31322  16.680   3.414   3.090 -0.5732  0.1467 -0.2347
15706W        W31323   1.616  14.378  11.927 -0.1232 -0.1273  0.1942
15707W        W31324  12.388  16.053  15.006 -0.0028 -0.2178 -0.0803
15708W        W31325  18.176   1.004  12.493 -0.1123  0.1554 -0.1105
15709W        W31326   5.519  13.383  14.076 -0.0645  0.0511 -0.0693
15710W        W31327  11.571  14.296   3.484 -0.0137 -0.0358 -0.2640
15711W        W31328  11.309   9.673  15.236  0.4906  0.1325 -0.0044
15712W        W31329   9.966  16.408  15.869  0.0181  0.0037  0.0212
15713W        W31330   4.734  10.315  16.000  0.1495 -0.2431  0.2768
15714W        W31331   7.992  12.538  12.094  0.0582  0.3417  0.0230
15715W        W31332  14.762   3.406   3.470  0.0637 -0.0339 -0.0168
15716W        W31333   7.165   4.354   0.595  0.0788  0.1354  0.0279
15717W        W31334  17.655   2.419   1.794 -0.0965  0.1625  0.0314
15718W        W31335   7.513   0.466  14.033  0.1318 -0.0816 -0.0246
15719W        W31336  17.844   9.558  10.679  0.2151 -0.1434  0.1357
15720W        W31337  15.364  13.941  11.278  0.0379  0.2837 -0.0849
15721W        W31338   2.456   6.101  14.705  0.0556  0.0873  0.1465
15722W        W31339   8.315  14.829   2.038  0.1706 -0.1379  0.1755
15723W        W31340   2.640   7.100   1.027  0.1055 -0.1994  0.3519
15724W        W31341   6.630   1.893  15.911 -0.0584 -0.0158 -0.0099
15725W        W31342   8.357   7.982  13.765  0.2686 -0.0531 -0.4424
15726W        W31343   5.687   1.876  11.842  0.0384  0.1590 -0.2447
15727W        W31344  14.140   4.361   5.265 -0.2197 -0.0768 -0.0606
15728W        W31345   2.680   7.796   5.774  0.2948 -0.0971  0.1769
15729W        W31346   3.211  10.662  12.841 -0.3029 -0.1298 -0.0501
15730W        W31347  15.279  18.064  14.049 -0.0197 -0.3759 -0.0599
15731W        W31348   8.293   4.342  14.541 -0.0429 -0.2459 -0.4170
15732W        W31349   7.437   8.427   1.816 -0.1215  0.1097 -0.2307
15733W        W31350   4.004   3.978  12.782 -0.0079 -0.0463 -0.2655
15734W        W31351  15.769  16.324   0.118  0.1546 -0.1507  0.0838
15735W        W31352   2.218  10.213  16.029 -0.0851 -0.5251 -0.1560
15736W        W31353  10.920   3.669   3.689 -0.4051  0.0287  0.1655
15737W        W31354  11.565  18.194  12.542 -0.0861  0.0798 -0.1986
15738W        W31355  15.385   5.562  14.800 -0.0243  0.3613  0.1093
15739W        W31356  13.588   3.698   0.971  0.3919  0.3079 -0.3759
15740W        W31357   8.689  14.482   1.484 -0.1304 -0.1266 -0.2675
15741W        W31358   3.846  18.429   2.645  0.0985  0.0272 -0.1149
15742W        W31359  17.087   4.956  12.811  0.1125 -0.2083  0.0688
15743W        W31360   2.970   6.253   1.735 -0.0208  0.0358 -0.2506
15744W        W31361  16.178  15.319  12.031 -0.0268  0.3359 -0.3539
15745W        W31362   6.827   3.657   4.878 -0.3461  0.4419 -0.0270
15746W        W31363  11.173  14.655  14.188  0.3646  0.1027 -0.1120
15747W        W31364  13.508   5.149   3.523  0.0316 -0.2428  0.0339
15748W        W31365   3.736   1.707  15.329 -0.1437  0.2073 -0.1778
15749W        W31366   7.243   9.752   6.108 -0.1778  0.3398 -0.2387
15750W        W31367   4.531  12.604   1.839  0.1524 -0.0436  0.1596
15751W        W31368   9.392  16.217  12.528 -0.2155  0.0738 -0.0692
15752W        W31369   6.812   9.286   2.547  0.1962  0.1426  0.0274
15753W        W31370   5.934   1.002  15.973  0.1343  0.2576  0.2569
15754W        W31371  13.402   1.921  11.552  0.0103 -0.0452 -0.1392
15755W        W31372   9.401   3.283   4.926 -0.0229 -0.0491  0.1621
15756W        W31373   3.886  14.681   4.494  0.0606 -0.2158 -0.2282
15757W        W31374   1.135   0.239   2.355 -0.1641  0.1384  0.0166
15758W        W31375  17.500   9.489  13.369 -0.3793  0.3419  0.1108
15759W        W31376  12.005   3.509   0.353  0.2245 -0.0475 -0.1916
15760W        W31377   9.863   9.766  14.025 -0.1755  0.0287  0.1008
15761W        W31378  13.636  17.235  10.518  0.0689 -0.1316 -0.1993
15762W        W31379   2.985  17.374  12.157  0.0368  0.1160 -0.0195
15763W        W31380  11.226   1.186   4.068 -0.2254 -0.1593  0.3768
15764W        W31381   1.836   8.396   3.303  0.0540 -0.0411  0.0583
15765W        W31382   5.537   7.815  12.240 -0.0635 -0.0545 -0.0554
15766W        W31383  12.208  15.477  11.345  0.2010 -0.2373 -0.4141
15767W        W31384  11.188  10.719  11.400 -0.0268 -0.0657  0.0513
15768W        W31385   6.136  16.480  14.849  0.2589 -0.1950  0.2441
15769W        W31386  11.753  16.605   5.580 -0.0501  0.0309 -0.2128
15770W        W31387  18.406  13.925  13.620  0.1056 -0.1578 -0.1337
15771W        W31388  16.088   0.681   1.471  0.2766  0.0726 -0.0219
15772W        W31389   2.190   1.257   2.544 -0.2507 -0.1007 -0.1795
15773W        W31390   2.577  16.042  15.788  0.1874 -0.3187 -0.1287
15774W        W31391   2.876  12.820  14.782 -0.1031 -0.0161 -0.0490
15775W        W31392  10.827  12.516   4.005  0.0255  0.1027  0.2725
15776W        W31393   6.323  10.597   3.551  0.0124  0.3030  0.3086
15777W        W31394  15.029  16.749  11.935 -0.1956 -0.2206 -0.1877
15778W        W31395   6.884  13.479   2.172  0.0554  0.0464  0.2401
15779W        W31396  11.779  12.204   4.815  0.1408 -0.1707 -0.0135
15780W        W31397   8.225   3.760   2.821 -0.1245  0.2186 -0.0839
15781W        W31398   9.511   5.366  14.842 -0.1973 -0.0995  0.0113
15782W        W31399  14.997   9.522   3.129 -0.0088  0.0765 -0.0931
15783W        W31400   8.860   2.452   3.810 -0.0598 -0.4244 -0.0549
15784W        W31401   0.230  12.890  12.925  0.0966 -0.0554  0.0055
15785W        W31402   6.399   3.166  13.737  0.2527  0.0194 -0.0962
15786W        W31403  15.524   5.710  12.021  0.0298 -0.2078 -0.2414
15787W        W31404  14.924   8.111  13.871 -0.0012  0.1169  0.0233
15788W        W31405   3.485  11.005   4.629  0.1628 -0.2285  0.1609
15789W        W31406  10.871   5.372  10.913 -0.1566  0.0060 -0.0693
15790W        W31407  11.097  13.927  13.782  0.5171 -0.1766 -0.1615
15791W        W31408   2.857  16.394   1.500  0.0399  0.0211  0.1050
15792W        W31409  18.410  15.202  12.877  0.0764  0.2398  0.0474
15793W        W31410   1.528   4.548   4.144  0.4084  0.1131  0.4046
15794W        W31411  10.107   2.410  14.706  0.0993  0.0435  0.1728
15795W        W31412   7.624   1.026   3.770  0.2288 -0.0252  0.0893
15796W        W31413   4.907  13.093   1.069  0.0775 -0.1015  0.2915
15797W        W31414  10.382   2.486  14.305 -0.0289  0.3097  0.2215
15798W        W31415   5.570  14.628   2.985 -0.0681 -0.0836 -0.1360
15799W        W31416  11.786  10.701  12.738  0.3769 -0.0273 -0.0087
15800W        W31417  15.243   8.836  14.972 -0.2367 -0.0022  0.1399
15801W        W31418   6.606   4.458   5.146 -0.0114 -0.0820 -0.0749
15802W        W31419   3.947  13.755   2.625 -0.0095 -0.1396 -0.2089
15803W        W31420  10.706  10.941  13.343  0.0585  0.0627  0.3967
15804W        W31421  17.174   6.415   4.885 -0.1092 -0.0907 -0.1182
15805W        W31422  11.364  13.703   3.566  0.0443  0.2848  0.4679
15806W        W31423  13.043  13.032   5.896  0.1079 -0.0625 -0.0576
15807W        W31424   0.597  18.030  15.069 -0.1587  0.3764  0.0730
15808W        W31425   6.315  17.210   5.106  0.0328 -0.0780 -0.2008
15809W        W31426   8.749  12.628   1.623 -0.1037 -0.0791  0.0227
15810W        W31427   1.917   6.393   1.079 -0.0025  0.3293 -0.1786
15811W        W31428   8.014  13.915  15.711 -0.2328  0.1994  0.4720
15812W        W31429   5.481  11.202  13.408 -0.2886  0.1368  0.0536
15813W        W31430  12.624   0.637  14.020 -0.1440 -0.3079  0.2046
15814W        W31431  12.505  10.067   5.245 -0.0433  0.1680 -0.1342
15815W        W31432  16.429   1.074   3.930  0.0808  0.0199 -0.1346
15816W        W31433  15.999   9.377  12.033  0.2644 -0.0345 -0.0832
15817W        W31434  17.978  10.390   3.112  0.1741  0.3328 -0.1059
15818W        W31435   8.772   4.380  12.780 -0.0133 -0.1532  0.1869
15819W        W31436  10.346  13.796  13.420  0.0260  0.3260  0.4764
15820W        W31437  12.821   0.162   4.631 -0.0473  0.0265 -0.1874
15821W        W31438   7.083   1.587   1.073  0.0498 -0.2630 -0.3226
15822W        W31439   9.342   3.671  10.339  0.4624 -0.4521  0.0984
15823W        W31440   5.239  14.822  11.534  0.1609 -0.1264  0.0289
15824W        W31441   9.496   2.996  11.575  0.1808 -0.1110  0.4428
15825W        W31442  17.769  10.452  13.073  0.0900  0.1748  0.0817
15826W        W31443  16.926   9.296   2.381 -0.3271 -0.0402  0.0298
15827W        W31444  15.732  16.156   1.150 -0.2081 -0.0412  0.0758
15828W        W31445   1.249   9.360   0.225  0.1711  0.0073  0.2492
15829W        W31446   6.005   9.035  10.889  0.0943  0.1280 -0.0979
15830W        W31447  18.331   9.997  16.047 -0.3469  0.1816 -0.4134
15831W        W31448  10.375   7.644   1.759  0.2070 -0.4103  0.2424
15832W        W31449  10.224   5.754   2.091  0.1346  0.1916  0.1860
15833W        W31450   3.206   0.212  15.262 -0.3060 -0.2275 -0.0551
15834W        W31451  12.111   1.012   2.510 -0.4356 -0.2174 -0.2840
15835W        W31452  13.465   8.146   4.294 -0.2624 -0.1160 -0.0483
15836W        W31453  18.338   4.744   1.068 -0.0175  0.1394 -0.0738
15837W        W31454   5.876   7.382   2.752  0.2166 -0.1409 -0.0002
15838W        W31455   7.184  16.951  12.528 -0.1231 -0.0952 -0.2005
15839W        W31456  15.598  18.200   1.615 -0.2829  0.3961 -0.2207
15840W        W31457   1.721   1.864   1.305 -0.0898  0.0220 -0.3066
15841W        W31458  12.793   7.645  13.145  0.0420 -0.1150 -0.2268
15842W        W31459   2.097   6.079   3.470  0.0916 -0.2580 -0.1081
15843W        W31460   7.151   2.809   3.353  0.0841  0.0123 -0.1004
15844W        W31461  12.619  10.460  11.202  0.1147 -0.2756 -0.1262
15845W        W31462  14.598  10.826  12.556 -0.0225 -0.2733  0.0929
15846W        W31463  11.945  15.783   1.358  0.1820 -0.0290 -0.0824
15847W        W31464  11.400   2.436  13.790 -0.2708 -0.0403  0.0151
15848W        W31465   2.549  15.945   1.453  0.4266 -0.2108 -0.1564
15849W        W31466  10.055  11.541  15.126  0.1429  0.1007  0.1400
15850W        W31467   4.006   5.673   0.904 -0.0120  0.0823  0.0483
15851W        W31468   8.090   7.027   0.259  0.1304 -0.0510  0.0391
15852W        W31469  14.287  12.920  15.170 -0.0600 -0.0046  0.0816
15853W        W31470   7.628  15.146   0.101  0.0319  0.1137  0.1019
15854W        W31471  12.764  10.594   5.946  0.2087  0.0211 -0.1024
15855W        W31472   6.256  15.194  15.299 -0.2042 -0.1618  0.0728
15856W        W31473   0.974   8.786   4.698  0.0167 -0.0841  0.1915
15857W        W31474  13.978   3.078  15.880  0.1794 -0.2001  0.0499
15858W        W31475   4.795   0.048   2.174  0.1353  0.2061 -0.0047
15859W        W31476   9.388  10.861   1.808  0.0439 -0.1098 -0.1754
15860W        W31477   6.591   8.481   1.602  0.0507 -0.0823 -0.0555
15861W        W31478  15.252  16.383  13.199  0.2622 -0.0159  0.4169
15862W        W31479   6.050   6.145   2.400  0.0812 -0.1440  0.2689
15863W        W31480   6.481   4.266  15.615 -0.3319  0.5239  0.0406
15864W        W31481   1.967  18.050   2.242  0.1146 -0.0728 -0.1460
15865W        W31482   7.594   1.683   1.537 -0.0744  0.1294 -0.0130
15866W        W31483  14.793   7.151  10.115  0.1016  0.0556  0.2807
15867W        W31484   1.639   7.622   3.964 -0.2520 -0.0744 -0.2406
15868W        W31485  10.240   6.990   2.283  0.2311 -0.3515 -0.0801
15869W        W31486   9.717   6.212  14.633 -0.2388  0.1323  0.1018
15870W        W31487   0.893  13.755  11.896  0.1348 -0.0667  0.0904
15871W        W31488   1.193  16.217   4.082 -0.0612  0.0931 -0.2546
15872W        W31489  18.278  12.503   2.137 -0.1663 -0.0513 -0.0965
15873W        W31490  16.771  14.604   0.067  0.0164  0.0576 -0.0683
15874W        W31491   0.995   5.237   4.094  0.2029 -0.0574  0.0010
15875W        W31492  10.170   0.581  13.398  0.3645 -0.0708  0.1713
15876W        W31493   5.687   1.447  14.342 -0.1519 -0.3506  0.0957
15877W        W31494   3.875  13.673  15.568 -0.1698 -0.0357 -0.1804
15878W        W31495  11.395  14.954  15.177 -0.0252  0.2694 -0.1743
15879W        W31496   1.175   5.373   1.756  0.0804  0.0487 -0.2021
15880W        W31497   2.660   6.541  16.091  0.1111 -0.1541 -0.1991
15881W        W31498  11.257   1.185  12.030 -0.2567 -0.0590 -0.1407
15882W        W31499  17.306   5.159  13.274 -0.0372 -0.2000 -0.1072
15883W        W31500  11.141   2.326   3.531  0.1707 -0.1694 -0.0595
15884W        W31501   5.713   9.499   1.034  0.1865 -0.1133 -0.0875
15885W        W31502  12.350  11.150   0.435  0.1112  0.1889  0.3444
15886W        W31503   6.739   2.500  11.277 -0.1899  0.2416 -0.1649
15887W        W31504  17.331  14.081   5.746 -0.3592  0.2731 -0.2299
15888W        W31505  17.998   9.866   5.426  0.2078  0.1009  0.1418
15889W        W31506  15.349   2.263   2.635  0.2007  0.1626 -0.1722
15890W        W31507   1.701  10.906   2.092  0.0639 -0.0445  0.3112
15891W        W31508   1.011  12.004  12.652  0.4149  0.0484  0.1760
15892W        W31509  10.690  14.651   5.613 -0.2909 -0.2839  0.2376
15893W        W31510  13.328  10.078   2.004 -0.0301  0.0867  0.0121
15894W        W31511   6.162  13.140  12.046 -0.2393 -0.1147  0.2891
15895W        W31512   6.890  10.171   2.115  0.0900  0.1221  0.0001
15896W        W31513   0.863   8.025  12.739  0.2752 -0.4415  0.1080
15897W        W31514   9.233  10.277  13.587 -0.0152 -0.0013  0.1709
15898W        W31515   0.874  17.591  12.688  0.3833 -0.1669  0.1054
15899W        W31516   0.687   0.422  15.354 -0.0237  0.0277  0.1592
15900W        W31517  15.230   8.500   1.123 -0.3393  0.1026  0.0221
15901W        W31518  15.720   5.782  14.047 -0.1718 -0.0842 -0.1859
15902W        W31519   8.694   2.747  12.786  0.1030  0.1130 -0.0868
15903W        W31520   9.927   5.855  13.952  0.0493  0.2318 -0.0601
15904W        W31521   4.655   2.512   2.086  0.0668  0.0388 -0.1473
15905W        W31522   7.932   0.124   4.790  0.2260 -0.1696 -0.1825
15906W        W31523  14.621  12.888   0.398 -0.2998 -0.0642 -0.1246
15907W        W31524   8.225  12.382  12.987 -0.0707 -0.4546 -0.2134
15908W        W31525  11.561   3.253   1.133 -0.2821  0.1513 -0.1103
15909W        W31526   6.188  10.465   1.528  0.0873  0.0639 -0.0510
15910W        W31527   8.117   8.138  14.784 -0.0810  0.1794  0.1945
15911W        W31528   6.892  10.777  12.564 -0.3753  0.0563  0.0144
15912W        W31529  17.124   7.685   4.389 -0.1565 -0.0304  0.3824
15913W        W31530   0.246  16.658  15.081 -0.1041  0.0153  0.1885
15914W        W31531   8.102   5.038   3.478 -0.1567  0.1237  0.2157
15915W        W31532   0.591   6.604  16.126  0.0953  0.1105 -0.1630
15916W        W31533  16.463   7.945   3.858 -0.1530  0.0733  0.1780
15917W        W31534  13.331  14.685   3.647 -0.3095  0.0110  0.1047
15918W        W31535   6.631   7.894   2.264 -0.2533 -0.0348 -0.2336
15919W        W31536   3.439   8.317   4.926  0.0894 -0.0494 -0.0264
15920W        W31537  10.815  18.141   5.702  0.0529 -0.2083 -0.0945
15921W        W31538   0.092   9.427  15.052 -0.4402  0.0346  0.2732
15922W        W31539   1.375  16.359  15.571  0.4102  0.2338  0.1998
15923W        W31540   8.043  16.340   0.146 -0.0726 -0.4269 -0.0545
15924W        W31541  16.977  12.702   2.482 -0.3595  0.1869 -0.0704
15925W        W31542  11.194  12.190   5.210 -0.0829 -0.3216 -0.2054
15926W        W31543  17.436  10.389   3.196  0.0345 -0.1821  0.1462
15927W        W31544   4.426  10.995   4.310  0.1864 -0.1799 -0.0708
15928W        W31545   6.528  10.775   5.073 -0.0343 -0.0775 -0.0289
15929W        W31546  17.642   6.016   2.453  0.3177 -0.1816 -0.1277
15930W        W31547   7.160   4.764  16.011 -0.2514 -0.1463 -0.1114
15931W        W31548   4.278  18.345   2.928  0.0666  0.0140 -0.1919
15932W        W31549  12.116   5.339  12.140 -0.0418  0.2227 -0.0775
15933W        W31550  14.453   2.525   3.093 -0.0185  0.0455 -0.2620
15934W        W31551  16.122   3.823   1.123  0.0826 -0.2051  0.0853
15935W        W31552  12.266   2.769   2.702  0.1263  0.1073  0.2546
15936W        W31553   0.818  16.420   6.545 -0.3791 -0.2916  0.0319
15937W        W31554   8.216   0.207   5.197 -0.0634  0.1481 -0.1785
15938W        W31555   1.175   3.743   2.155  0.1643 -0.0236 -0.2735
15939W        W31556   7.200   7.283   0.040  0.1189  0.4281  0.2730
15940W        W31557  16.148  15.002  12.769  0.0093 -0.4230  0.2151
15941W        W31558  13.757  14.159   2.296  0.1366 -0.0740  0.0880
15942W        W31559   2.085   6.944   4.117 -0.1835 -0.3362  0.3022
15943W        W31560  12.316  14.892   2.614 -0.0714 -0.2270 -0.0450
15944W        W31561  12.508  11.314  15.429  0.2059 -0.1764 -0.4087
15945W        W31562   1.885   9.106  12.426 -0.1659 -0.2578 -0.0971
15946W        W31563  18.277  17.004   4.615  0.0014  0.1753 -0.0687
15947W        W31564  13.840   2.033   2.638 -0.1032 -0.1338  0.2675
15948W        W31565   5.844  15.010   1.111  0.4097 -0.0694 -0.0953
15949W        W31566   0.867   9.900   2.864 -0.2619  0.2619  0.1397
15950W        W31567  17.599  14.959   3.840 -0.2034 -0.2732  0.0483
15951W        W31568   8.726   7.599   4.816  0.3226  0.0091  0.0147
15952W        W31569   6.457  11.810  14.279  0.1625  0.0635 -0.4000
15953W        W31570   0.879   8.578   3.243  0.3059  0.2617 -0.2107
15954W        W31571   6.095   0.480  11.896  0.3579  0.0411  0.1354
15955W        W31572   9.814   9.023  13.881 -0.1087 -0.1340 -0.3866
15956W        W31573   5.333  10.802  14.009 -0.2432 -0.2943  0.3653
15957W        W31574   6.334   2.250  12.044  0.0487 -0.1582 -0.3039
15958W        W31575  10.456   9.510  14.625  0.0116 -0.3821 -0.0609
15959W        W31576  12.663   4.595  13.172 -0.1975  0.2827 -0.0045
15960W        W31577   3.512  18.105   1.949 -0.0229 -0.1543  0.1592
15961W        W31578   1.477  13.031   5.795  0.1757  0.1949 -0.2480
15962W        W31579  11.197   0.474  11.271  0.2150  0.3882  0.3313
15963W        W31580  11.028   3.006  11.393  0.1590  0.1068 -0.2261
15964W        W31581   1.804  10.599   1.494  0.0072 -0.1748 -0.2131
15965W        W31582   8.877  13.236   6.129 -0.0907  0.3191  0.2599
15966W        W31583  16.926  16.985   5.077  0.0688 -0.2105  0.0418
15967W        W31584  17.454  12.665  15.226 -0.1357  0.0298 -0.0923
15968W        W31585  13.616   3.382  11.597 -0.0194  0.1542 -0.1211
15969W        W31586   1.856  17.064  12.484  0.0537  0.0439 -0.0188
15970W        W31587  11.681   5.047   0.347 -0.2673  0.1263 -0.0912
15971W        W31588   7.783   7.796   0.656  0.0549 -0.0967 -0.1534
15972W        W31589  17.674   5.024   0.305  0.0268 -0.1035 -0.0875
15973W        W31590   7.311  17.016  12.034 -0.0407 -0.1239 -0.2532
15974W        W31591  18.051   0.599  14.097  0.0728 -0.1388 -0.0991
15975W        W31592   2.567  13.717   5.370 -0.1197 -0.0063 -0.0561
15976W        W31593  18.089   1.360   5.402  0.0581  0.1936 -0.0997
15977W        W31594  15.694   6.447   3.286  0.1561  0.0983 -0.3627
15978W        W31595   6.548   4.052   4.001  0.1866 -0.1996 -0.1158
15979W        W31596  10.712  11.698  14.402  0.3167 -0.0757 -0.1969
15980W        W31597  10.534  10.544  12.523 -0.0675  0.1456  0.0223
15981W        W31598   2.936  17.597   0.696  0.1628 -0.2734  0.0787
15982W        W31599  11.842   1.398  15.569 -0.3631 -0.0246  0.1275
15983W        W31600   4.742  12.426  11.851  0.0934  0.0311 -0.3401
15984W        W31601  16.908   6.930  12.568 -0.0562  0.0464 -0.3440
15985W        W31602   3.051  17.972   5.843 -0.2543  0.2458  0.1127
15986W        W31603  14.068   3.354  11.966  0.1536  0.0446  0.1702
15987W        W31604  17.613  12.508   3.080 -0.3764 -0.2010 -0.1767
15988W        W31605   9.404   5.299   0.102 -0.1648 -0.0944  0.1304
15989W        W31606  18.061  16.161  15.322  0.0752  0.3001 -0.1380
15990W        W31607   7.943   1.333  12.426  0.0519 -0.1413 -0.1872
15991W        W31608  10.698   7.463   2.204 -0.3427 -0.0559  0.2017
15992W        W31609  17.163   3.268   1.571  0.2055 -0.1847  0.3402
15993W        W31610  13.456  11.379   2.434  0.2109  0.3848 -0.1392
15994W        W31611  10.510   1.800  15.009 -0.0477  0.0475  0.0576
15995W        W31612   3.187   1.825  16.101  0.0542 -0.1267 -0.1908
15996W        W31613  10.407   1.146   3.408 -0.2780  0.1658  0.1615
15997W        W31614  11.666  13.676  11.657 -0.0756  0.0372  0.0456
15998W        W31615   1.395   8.283  12.749 -0.0745  0.0758 -0.3408
15999W        W31616   4.747   1.735   0.603  0.0885 -0.0062  0.1236
16000W        W31617   7.575   9.435  13.922  0.1198  0.0352 -0.1177
16001W        W31618   8.496   3.693  13.479  0.1690 -0.1507  0.1116
16002W        W31619   4.292   6.710  11.858 -0.4851  0.0669  0.3739
16003W        W31620  10.719  16.947  13.948 -0.1502  0.1654 -0.2320
16004W        W31621  14.795  11.107   4.687  0.2943 -0.2114  0.2134
16005W        W31622  17.106   8.408   4.811  0.1763  0.1045 -0.1804
16006W        W31623   1.203  14.694   1.512 -0.3283 -0.0213  0.1185
16007W        W31624  15.944  10.354  11.045 -0.3864  0.1755 -0.3924
16008W        W31625   0.062   4.704   3.210 -0.0398  0.0508  0.0744
16009W        W31626  14.336  18.348  14.597  0.0413 -0.0418 -0.0891
16010W        W31627   8.215  10.446   2.483  0.3025  0.2081  0.2642
16011W        W31628   8.419  16.404  14.212 -0.2145  0.0070  0.6087
16012W        W31629   9.641   4.993   4.313  0.1631  0.1696  0.3694
16013W        W31630   5.204   1.757   3.689  0.6756  0.1550  0.0438
16014W        W31631  15.886   0.548  15.798  0.2307  0.2451 -0.1987
16015W        W31632  13.320   6.141   2.051 -0.0847  0.2015  0.4591
16016W        W31633   0.744   3.757  12.728 -0.1413  0.2261  0.1669
16017W        W31634   7.503   2.198   1.393 -0.1697  0.1454  0.1257
16018W        W31635   0.644  11.201  10.833 -0.0158 -0.0192  0.2058
16019W        W31636  16.929  16.699   0.871  0.0466 -0.1623  0.1997
16020W        W31637   3.995  12.565   1.899  0.1051 -0.2224  0.1652
16021W        W31638  12.743  10.701  11.669  0.1704  0.2617 -0.0315
16022W        W31639  18.130   7.037  11.628  0.2461 -0.2987  0.0551
16023W        W31640  18.151   5.114  13.560 -0.1625 -0.0714  0.1075
16024W        W31641  10.269   6.946  11.904  0.0137  0.0195  0.0094
16025W        W31642   2.775   1.971   2.632  0.1987  0.3416  0.2786
16026W        W31643  13.086  17.039  14.269  0.0716 -0.0611 -0.1279
16027W        W31644   5.180   5.741  11.181 -0.1533 -0.2161 -0.1864
16028W        W31645  11.623   4.523  14.739  0.0782  0.1586 -0.2478
16029W        W31646  15.560   1.160  11.803 -0.0323 -0.2839  0.2003
16030W        W31647  17.502   2.036  14.909 -0.0333 -0.0715  0.0907
16031W        W31648   4.026   7.318  11.472  0.0619 -0.1233  0.2438
16032W        W31649   8.030   3.618  11.538  0.0271  0.2830 -0.1978
16033W        W31650   4.295   1.967   4.389 -0.0280  0.2658  0.3177
16034W        W31651  14.566   9.547   4.535 -0.1094 -0.0698 -0.0230
16035W        W31652  15.132   4.968   4.203  0.2950  0.0769  0.0578
16036W        W31653  14.411  13.796   4.395  0.0708 -0.0996 -0.0486
16037W        W31654   9.346   2.218   2.839  0.2696  0.4242  0.1533
16038W        W31655   1.181   6.473   3.092  0.1062  0.1834 -0.1145
16039W        W31656  15.548   5.700  13.564  0.0823 -0.4269  0.0301
16040W        W31657   1.123   6.993  14.141  0.0888 -0.1005 -0.2535
16041W        W31658   4.800  13.298  14.842 -0.0602 -0.0020 -0.0277
16042W        W31659  14.244   9.720  10.758  0.2174 -0.1129  0.0123
16043W        W31660  17.967  15.820   4.178  0.3117 -0.0729  0.0363
16044W        W31661   3.519  18.053  15.586  0.1595 -0.0337  0.2956
16045W        W31662   8.835  12.165  15.742  0.0855 -0.1788  0.0176
16046W        W31663   4.047   1.267   5.098  0.3302 -0.0333  0.1209
16047W        W31664  15.885  15.897  13.872 -0.1886  0.0068 -0.1139
16048W        W31665   9.133  16.638  11.115 -0.0357 -0.2460 -0.0433
16049W        W31666   4.609   3.857  11.029 -0.0692 -0.1572  0.1591
16050W        W31667   4.668   6.429  11.613  0.3028  0.0471 -0.1003
16051W        W31668   6.774   9.657  10.792  0.0370 -0.0721 -0.1104
16052W        W31669   1.567  11.373  10.468  0.1822 -0.2208  0.1370
16053W        W31670   6.179   3.229   2.506  0.3574  0.0136  0.1645
16054W        W31671  11.277   0.825   4.524  0.0646  0.3023 -0.1179
16055W        W31672   3.709  14.311   1.075 -0.1364 -0.1499  0.1032
16056W        W31673  13.965  17.825  13.306 -0.2552 -0.0455 -0.3494
16057W        W31674   7.648   4.754   1.614  0.1299  0.1598  0.2150
16058W        W31675  18.216  15.424  13.373 -0.1639 -0.1177 -0.0709
16059W        W31676   7.879   7.492  11.985 -0.1387 -0.1626  0.1097
16060W        W31677   3.972   5.426   1.771 -0.5579  0.2466 -0.1373
16061W        W31678   6.236   7.276  13.144  0.1353 -0.1634  0.1501
16062W        W31679   3.979  10.015   5.404  0.1274  0.0041  0.0113
16063W        W31680  13.509  17.528  12.705  0.0326 -0.1150 -0.0523
16064W        W31681   0.110   7.783   0.379 -0.0712 -0.2054 -0.0423
16065W        W31682   9.889  13.882   0.424 -0.2547  0.4476 -0.7226
16066W        W31683   6.107   9.058  15.443 -0.1770 -0.2631  0.2567
16067W        W31684   9.176   6.087   5.398 -0.1479  0.1665  0.4276
16068W        W31685   4.541  17.630  13.244  0.3248  0.0068 -0.0638
16069W        W31686   6.586   3.163   3.242 -0.0281  0.0333  0.1524
16070W        W31687   0.426  13.857   2.603 -0.1494  0.0176  0.2187
16071W        W31688  16.728  14.652   2.813 -0.0598  0.1044 -0.2219
16072W        W31689   0.765   9.675   1.910 -0.2232 -0.0992  0.0209
16073W        W31690  14.268   6.907  11.146  0.0360  0.0630  0.0823
16074W        W31691  15.103  10.418   4.703 -0.0666 -0.1822  0.0409
16075W        W31692  16.595  11.897  14.895  0.1869 -0.0358  0.1820
16076W        W31693   6.304   5.987   3.834 -0.0396  0.1100  0.1692
16077W        W31694  13.462   5.417  13.942 -0.2030 -0.1315  0.0609
16078W        W31695   8.694   0.844  10.038 -0.0696 -0.0063 -0.2809
16079W        W31696  13.553  12.997   4.530 -0.1005  0.2001  0.0318
16080W        W31697   4.658   0.419   4.292 -0.4452  0.0658 -0.4593
16081W        W31698   2.640  18.092  15.078 -0.2438 -0.0222  0.0406
16082W        W31699  10.139  14.019   1.748 -0.0151 -0.1584 -0.0816
16083W        W31700   0.424   2.167  13.311  0.0483  0.1342 -0.0681
16084W        W31701   7.733  17.257   5.406  0.2827 -0.1044  0.4948
16085W        W31702   8.154   1.768  11.993 -0.1067 -0.2112  0.0619
16086W        W31703  10.677   0.366   0.906 -0.1259  0.3620  0.1160
16087W        W31704   4.719  10.285  12.984 -0.0172 -0.0823 -0.3758
16088W        W31705  15.615  13.580   4.453  0.2173  0.0169 -0.0228
16089W        W31706   7.939  10.329   6.042 -0.0452 -0.0101 -0.0312
16090W        W31707   7.383  12.976   3.196  0.1944  0.2153  0.4543
16091W        W31708  11.321   5.801  15.022  0.3034 -0.0416 -0.3765
16092W        W31709   3.823   3.781  14.287  0.0722  0.2072 -0.3187
16093W        W31710   1.047  10.942   3.182  0.0432  0.4210 -0.0216
16094W        W31711  14.426  14.524  12.340  0.0100 -0.3665 -0.0569
16095W        W31712  13.408   2.887  13.144 -0.0390 -0.0802 -0.2216
16096W        W31713   2.319   0.156   5.930  0.0933  0.2912 -0.0147
16097W        W31714  13.171   6.742  15.778  0.0287 -0.0551  0.0369
16098W        W31715  14.410  18.339   4.117 -0.3395  0.1960 -0.2859
16099W        W31716  11.995   9.549  15.813 -0.0406  0.1276 -0.0824
16100W        W31717  10.147  13.664   1.308  0.0013  0.2199 -0.0070
16101W        W31718   0.388   8.602  14.814 -0.0972 -0.0277 -0.2313
16102W        W31719  18.117   3.663   5.532 -0.1090  0.0898 -0.1419
16103W        W31720  14.082   9.215  12.284 -0.2517  0.1209 -0.0777
16104W        W31721   8.524  11.808   0.460  0.0517  0.1767  0.0470
16105W        W31722   3.912   2.978   2.006 -0.1533  0.1388 -0.1016
16106W        W31723   9.690   5.760   2.115 -0.0070 -0.1323  0.0664
16107W        W31724   6.245   2.384   1.033  0.1042  0.0392 -0.2026
16108W        W31725   7.765   3.957  11.351 -0.0611  0.1987 -0.0219
16109W        W31726   0.978  11.653  14.143  0.1294  0.0597  0.1111
16110W        W31727  11.415  18.320   1.933  0.3833 -0.2749 -0.0053
16111W        W31728   4.583  10.665   3.947 -0.1901 -0.3709 -0.1069
16112W        W31729  12.220  16.868  15.771 -0.0128 -0.2412  0.1818
16113W        W31730  14.819   2.358  11.073 -0.1367 -0.0128 -0.0565
16114W        W31731   2.077   7.438  14.279 -0.2055 -0.0197  0.1034
16115W        W31732   4.764   3.335  14.122  0.0612 -0.1617  0.1381
16116W        W31733  13.535   6.708   4.502  0.0868 -0.1923 -0.1535
16117W        W31734  11.953  14.787  14.418  0.1619  0.1131  0.2882
16118W        W31735  10.228   2.998   2.381 -0.1787  0.1660  0.1007
16119W        W31736   2.632   9.544   1.236  0.0902 -0.0112  0.2743
16120W        W31737  14.438   2.785   2.097  0.0803  0.2211  0.2571
16121W        W31738   9.614   7.512   1.489  0.1265  0.0078  0.2113
16122W        W31739   5.912  17.852  13.481 -0.0869  0.4402  0.1325
16123W        W31740  14.990  11.724   2.848  0.0933 -0.0610  0.1560
16124W        W31741  11.148   5.312  15.561  0.0787  0.1352 -0.3766
16125W        W31742   5.379   7.491  14.328  0.1287  0.1863  0.0431
16126W        W31743  17.136  15.660  12.169  0.0531 -0.2638 -0.1739
16127W        W31744  16.863   6.101  15.862  0.0061  0.0641 -0.0742
16128W        W31745   4.481  10.604   1.980 -0.0261  0.0099  0.0883
16129W        W31746   7.377  17.344  15.358 -0.1033  0.1861 -0.1737
16130W        W31747  17.635   3.797  12.688  0.0647  0.1877  0.0075
16131W        W31748   6.759   3.834  14.125 -0.0467  0.2390 -0.2971
16132W        W31749  16.465   1.518  14.472 -0.1852  0.0069 -0.1630
16133W        W31750  17.642   4.155   4.743 -0.1157  0.1507 -0.1123
16134W        W31751  10.450   8.876  12.383 -0.1930 -0.4689 -0.1252
16135W        W31752  17.019  13.737  13.072 -0.3638  0.3693  0.0428
16136W        W31753   3.695   3.652  13.059  0.3387  0.0179 -0.0071
16137W        W31754   9.196   7.800   1.130  0.2746 -0.0419  0.2683
16138W        W31755   9.224   0.261  13.688 -0.1894 -0.0968  0.1221
16139W        W31756  16.975   6.245  14.444 -0.0152  0.0127  0.1250
16140W        W31757  13.757  10.185  11.911  0.0236  0.3138  0.3062
16141W        W31758   0.650  17.689   0.854 -0.1633  0.2294  0.1139
16142W        W31759  15.524   4.363   3.272  0.2193 -0.1524 -0.3311
16143W        W31760  17.179   7.180  15.437 -0.0847  0.0788  0.1114
16144W        W31761  14.302  13.408  14.094  0.1424 -0.3503 -0.2424
16145W        W31762  10.296   8.772   1.720 -0.1896  0.2364 -0.2405
16146W        W31763  12.683  13.767   4.337  0.2709 -0.0248 -0.3802
16147W        W31764   1.892  13.382   3.338 -0.1706  0.0225 -0.1896
16148W        W31765  16.091   5.149   0.189 -0.0441 -0.1523 -0.2396
16149W        W31766   1.203  15.605  15.252 -0.0305 -0.1306 -0.1383
16150W        W31767   5.206  13.393   1.805 -0.2392 -0.1420 -0.1704
16151W        W31768   9.526   9.328   4.729  0.0961  0.1292 -0.2351
16152W        W31769  14.915  16.315  14.631 -0.1717 -0.1188 -0.0027
16153W        W31770   3.107  13.738   3.844  0.1799  0.0223 -0.1658
16154W        W31771   3.303   5.682   5.439  0.2815  0.1646 -0.1340
16155W        W31772   4.290   0.184  12.391  0.4059 -0.4808 -0.3526
16156W        W31773   4.665   6.622  15.554 -0.1135  0.0976 -0.2708
16157W        W31774  11.658   7.588  13.085 -0.1300 -0.1225  0.1816
16158W        W31775   3.516   3.546   2.960  0.2539  0.0085  0.0359
16159W        W31776   3.777  18.188   5.131  0.2474  0.0478  0.2511
16160W        W31777   3.215   4.751   0.358  0.2221 -0.1397 -0.0251
16161W        W31778   1.193  16.159   5.135 -0.0128 -0.2630 -0.2414
16162W        W31779   1.054   1.340  15.066 -0.3234 -0.1113 -0.3884
16163W        W31780   7.605   3.005  14.840  0.0328  0.2903 -0.0152
16164W        W31781  10.137  17.077   5.141 -0.3247 -0.1506  0.2128
16165W        W31782  10.741   6.052   9.869  0.0305 -0.0757  0.0375
16166W        W31783   0.841  14.906  13.750 -0.0277  0.2171  0.1779
16167W        W31784  11.917  14.444   5.237  0.2805  0.0724  0.1173
16168W        W31785   2.415   7.933   0.476 -0.3106  0.0100 -0.1868
16169W        W31786  11.084  17.765  12.875  0.0673  0.0004 -0.3802
16170W        W31787  18.282   1.150   2.643  0.1321 -0.2255 -0.2731
16171W        W31788   4.676   9.632   3.329  0.0264  0.1129  0.0743
16172W        W31789  18.219   0.955   4.004  0.2778 -0.1053 -0.0806
16173W        W31790   6.817  13.919  14.029  0.0596  0.0322  0.1753
16174W        W31791  11.398   6.135  12.632  0.1982  0.0597 -0.1926
16175W        W31792   4.939   1.634  15.720 -0.1636  0.0508  0.2313
16176W        W31793   9.909   2.447  12.174  0.2241  0.2523 -0.2078
16177W        W31794  10.487  15.296   3.673 -0.0240 -0.0476  0.1753
16178W        W31795  11.534  16.111  14.470  0.1263 -0.0814  0.2629
16179W        W31796   5.142   9.009   0.423 -0.0115 -0.0876  0.3338
16180W        W31797  14.391  13.329   2.805  0.0548 -0.2955  0.4007
16181W        W31798   9.105  18.386   2.349 -0.0446  0.0807  0.2213
16182W        W31799   8.007   9.322  11.920 -0.0499 -0.0314  0.0363
16183W        W31800   5.428   7.085   2.339 -0.1629  0.0025  0.0072
16184W        W31801  15.030   3.605  15.152  0.0385  0.2090 -0.3177
16185W        W31802  11.816  12.845   5.321 -0.0728 -0.2222  0.0332
16186W        W31803   5.406  18.368  15.417  0.0706  0.3639  0.0344
16187W        W31804   1.566   2.829   4.664  0.0988 -0.2822  0.3550
16188W        W31805  11.869  10.700  10.829  0.0551  0.0833  0.2232
16189W        W31806   1.644   0.393  16.108 -0.0384  0.1479  0.1328
16190W        W31807   9.993   1.508  11.197 -0.0269  0.1356  0.0567
16191W        W31808  16.758   9.861   1.779 -0.3297 -0.0656 -0.0489
16192W        W31809  13.742   0.246   3.540 -0.0795 -0.1862 -0.1790
16193W        W31810   3.208  16.292  13.803 -0.0153 -0.0692  0.1875
16194W        W31811   9.872  16.067  14.972 -0.1849 -0.1737  0.2012
16195W        W31812  12.412  14.641  14.296 -0.2534  0.2624  0.0639
16196W        W31813   3.908   1.466   2.393 -0.3184  0.0374 -0.0011
16197W        W31814  17.241   7.589   0.582 -0.0629 -0.1039  0.1955
16198W        W31815   0.896  13.895   0.342 -0.0740  0.0096 -0.0200
16199W        W31816   3.312  11.509   2.177  0.0574  0.0750 -0.1670
16200W        W31817  13.325  10.016  12.152  0.3861 -0.1911 -0.2731
16201W        W31818  14.911   0.394   0.405 -0.3047 -0.1597  0.0452
16202W        W31819   7.831   8.727   2.199  0.4324 -0.0819 -0.0036
16203W        W31820   5.932  17.018   6.207 -0.0680  0.1127  0.1805
16204W        W31821  15.127   8.016   5.459  0.0234  0.1668 -0.0109
16205W        W31822  16.143   0.282  11.330 -0.2138  0.0187  0.0044
16206W        W31823   2.084  10.379   5.422 -0.2427  0.0158  0.3074
16207W        W31824   2.084  11.747   0.907  0.1513  0.0432  0.1877
16208W        W31825   4.968  12.442   1.004 -0.0437  0.1404  0.0175
16209W        W31826  16.698  14.337   0.594  0.1664 -0.1805  0.1178
16210W        W31827  14.776   0.220   3.896 -0.0239  0.2513  0.0041
16211W        W31828  15.811   5.069  15.879  0.0497  0.1475 -0.2080
16212W        W31829  10.800   9.148  13.270  0.0008 -0.0650 -0.0712
16213W        W31830   6.113  11.469   3.079  0.2062 -0.0656 -0.1717
16214W        W31831   6.365   8.103   3.463 -0.3216  0.2246 -0.2188
16215W        W31832  10.019  10.295  13.254 -0.0673  0.2323 -0.0631
16216W        W31833  16.753   0.558   0.689 -0.0671 -0.2263  0.0265
16217W        W31834   1.964  10.788   0.693 -0.0571 -0.2313 -0.1460
16218W        W31835  15.904   6.240   2.728 -0.0761 -0.2212 -0.1690
16219W        W31836   3.402   5.833  15.581 -0.1367 -0.1688 -0.1437
16220W        W31837   3.776   2.797  15.613 -0.0630 -0.5927 -0.1686
16221W        W31838   6.588   0.681   2.756 -0.1950  0.1952  0.3567
16222W        W31839  16.476   3.724   2.219  0.0918  0.0800 -0.2900
16223W        W31840   1.108   4.818   4.286 -0.3697 -0.0387  0.4132
16224W        W31841   0.540   5.205   4.854 -0.2870  0.1827  0.0993
16225W        W31842  17.389  16.579   5.076  0.0763  0.0726 -0.0078
16226W        W31843   2.618  13.054   5.694  0.4901  0.2488  0.0335
16227W        W31844   1.792  12.034   3.471  0.5121 -0.0128  0.3357
16228W        W31845   2.649  14.777  15.673 -0.0314  0.1524  0.2259
16229W        W31846  12.826   7.193   3.433 -0.2856  0.1082 -0.0092
16230W        W31847  10.778   1.426  15.205  0.1123  0.1670 -0.0434
16231W        W31848   4.193   0.519  14.009  0.0048 -0.2782  0.0621
16232W        W31849  14.163  11.033  14.463  0.1748 -0.2157 -0.2862
16233W        W31850   7.784  12.592  15.802  0.0825 -0.3872  0.0410
16234W        W31851   6.560   8.382  12.206  0.1427  0.0460  0.1239
16235W        W31852  14.868  17.704  13.273 -0.0720  0.0733  0.0837
16236W        W31853  14.950  17.584   0.281  0.0397  0.4081 -0.0142
16237W        W31854   4.181  13.291   3.348 -0.0766  0.0467 -0.2005
16238W        W31855  17.163   2.865  14.084 -0.4129  0.1216 -0.1482
16239W        W31856  11.620   9.448   0.183 -0.1758 -0.2819  0.0224
16240W        W31857   4.373  15.120   2.416 -0.2304 -0.3998 -0.0262
16241W        W31858   6.394  15.188  14.304 -0.0592 -0.2120 -0.0521
16242W        W31859   8.365  17.759   4.252 -0.2346  0.3339 -0.1163
16243W        W31860  16.298  10.604  11.765  0.0076  0.2949  0.0180
16244W        W31861  12.605   5.803  12.889 -0.1000 -0.1139  0.1188
16245W        W31862  17.429   8.940  15.207  0.0322  0.3187 -0.3311
16246W        W31863   0.934  14.426  14.190 -0.0659  0.1144 -0.0483
16247W        W31864   5.616  14.932  11.878  0.0646  0.2072 -0.2238
16248W        W31865  13.535   0.589  12.614  0.0048  0.1266 -0.0906
16249W        W31866  12.404  14.085  14.133  0.1566  0.0139  0.4128
16250W        W31867   7.322   6.277  13.305  0.0843 -0.0548 -0.0363
16251W        W31868   8.681  17.107  15.536  0.1453  0.4481  0.0266
16252W        W31869  16.858   8.137  14.005  0.2354  0.1170 -0.1511
16253W        W31870   5.608  18.276  13.537  0.0489 -0.2909 -0.0692
16254W        W31871  13.541  17.330  14.243  0.2717 -0.0532 -0.1676
16255W        W31872   1.708   9.337  11.485  0.2606 -0.0148  0.0664
16256W        W31873   7.697   3.410  11.291  0.0163 -0.3033 -0.0090
16257W        W31874  16.715  18.239   1.198 -0.0282  0.0072  0.1576
16258W        W31875   7.606  11.781   3.280 -0.0249  0.3030  0.2018
16259W        W31876  16.573   8.862  15.175  0.3291 -0.2076  0.1821
16260W        W31877  18.261  11.690   4.131 -0.3888 -0.1312  0.0022
16261W        W31878   9.922   7.178   1.829 -0.0221 -0.1720  0.2348
16262W        W31879  15.598   2.992  12.091 -0.0225 -0.3234  0.0358
16263W        W31880   8.261   8.578  14.907 -0.0066 -0.0985 -0.0525
16264W        W31881  13.293   9.263   0.182 -0.0243 -0.4545 -0.0067
16265W        W31882  12.083   3.487  11.663 -0.3596  0.1869 -0.3864
16266W        W31883  11.754  14.500   2.038 -0.2198 -0.4288  0.4061
16267W        W31884  11.053  13.504   3.980 -0.0578  0.1798  0.0212
16268W        W31885  13.813   6.265   2.234 -0.0270  0.0617  0.1117
16269W        W31886  17.441  15.844   5.580  0.0262 -0.0370  0.0054
16270W        W31887   4.150  14.564   4.084 -0.1308  0.1187  0.0501
16271W        W31888   9.837  17.464   1.428 -0.0219 -0.3193  0.1730
16272W        W31889  13.999   3.673  15.389 -0.1072  0.3260  0.0212
16273W        W31890  14.118   0.606   2.227 -0.0983 -0.1007 -0.0029
16274W        W31891  18.048   9.603   0.020 -0.0558  0.0318 -0.1521
16275W        W31892  17.648  17.255  13.686  0.0937 -0.3317 -0.1298
16276W        W31893   4.154   1.823   1.483  0.0084  0.2967  0.1812
16277W        W31894  12.278   2.973   4.317 -0.1928 -0.0701 -0.3635
16278W        W31895   9.297  13.529   2.062 -0.1012 -0.3780 -0.0807
16279W        W31896  11.293   1.321   4.551  0.1136 -0.2328 -0.0372
16280W        W31897   6.412   8.526   5.096 -0.1771  0.0709 -0.1785
16281W        W31898   8.093   1.060   1.381 -0.4524  0.0054  0.1178
16282W        W31899   0.793   0.026  12.547 -0.1664  0.1583  0.3395
16283W        W31900   8.869  15.655  14.853 -0.0445 -0.0342  0.1704
16284W        W31901   3.486  13.767  12.926  0.0712  0.0963 -0.2166
16285W        W31902  17.611   1.295   0.896 -0.2748  0.0016  0.2489
16286W        W31903   5.644  15.268   0.217  0.1283 -0.2945 -0.2032
16287W        W31904   7.994  10.053   3.284  0.0114 -0.1558  0.0448
16288W        W31905   0.654  18.027  12.877 -0.2943  0.0926  0.0655
16289W        W31906  10.602  13.506   4.109  0.0090  0.0491 -0.3246
16290W        W31907   3.404   7.892  13.917 -0.0413 -0.3490 -0.3629
16291W        W31908  16.192  12.007  14.311 -0.1898  0.0622 -0.2847
16292W        W31909  12.703   5.026  11.115  0.5709  0.0337 -0.0527
16293W        W31910  13.108   5.199  10.874  0.0886  0.1187 -0.2924
16294W        W31911  14.694  17.422   3.418 -0.2182 -0.1469 -0.1649
16295W        W31912   3.099  17.932   4.611  0.2063  0.2996  0.0542
16296W        W31913   8.758   8.659  10.577  0.2230  0.1462 -0.0571
16297W        W31914   4.276   4.040   4.118 -0.0980  0.0549 -0.0029
16298W        W31915  13.807   3.792  11.333  0.1084  0.0334  0.1324
16299W        W31916   4.827   4.949  15.292  0.2164  0.0244  0.1705
16300W        W31917   5.817  17.168   1.779 -0.0693 -0.2340 -0.0791
16301W        W31918   2.413   8.070  15.615  0.0810 -0.0774 -0.2368
16302W        W31919   5.645  15.891   2.268 -0.2144  0.2152 -0.3032
16303W        W31920  11.668  12.915  12.639  0.2388  0.3536 -0.0019
16304W        W31921  11.723  16.564   2.480  0.4001 -0.1807 -0.1534
16305W        W31922  11.156  14.164  14.251 -0.0137  0.0264 -0.1112
16306W        W31923   6.066  12.174  13.737  0.0065  0.1232 -0.2049
16307W        W31924   9.454  10.560  11.856  0.1470 -0.0689 -0.0702
16308W        W31925  17.288   1.520  11.785 -0.0714 -0.0299 -0.2804
16309W        W31926  16.494   9.270  12.336 -0.2084  0.3894  0.0505
16310W        W31927   8.973  13.568   3.225 -0.0323  0.1695  0.1132
16311W        W31928  11.735  13.158  11.629  0.0796 -0.0824  0.1823
16312W        W31929  14.924  16.544   1.637  0.1901  0.3475 -0.3662
16313W        W31930  16.714   1.580   0.582 -0.2486  0.0091 -0.0027
16314W        W31931   7.480   2.667  12.863  0.2601  0.1085  0.1313
16315W        W31932  17.224  12.880   2.887 -0.0458  0.0616  0.1346
16316W        W31933  11.698  11.999  13.338  0.0706 -0.1051  0.2610
16317W        W31934   5.393   7.824  13.056 -0.0320 -0.1517  0.1926
16318W        W31935   0.402   0.817   1.034  0.0387 -0.5299  0.2923
16319W        W31936  14.278  12.560   0.405  0.1327  0.4789  0.2237
16320W        W31937  17.786   9.902   4.067 -0.1238 -0.1672  0.1414
16321W        W31938  13.974  15.373   3.538 -0.0462 -0.1804  0.2066
16322W        W31939   5.993  13.795  13.184 -0.0083 -0.0416 -0.2391
16323W        W31940   6.225  10.517   5.412 -0.1080 -0.2744 -0.1615
16324W        W31941   4.763   4.390  12.705  0.1602  0.2140 -0.0427
16325W        W31942   6.903   9.830   5.008  0.1100 -0.0902  0.0770
16326W        W31943  10.661   4.393  11.672  0.4026  0.0795  0.1415
16327W        W31944   2.966  11.587   0.405 -0.1102  0.0161 -0.0892
16328W        W31945  14.406   0.857  15.130 -0.3884  0.1018 -0.0797
16329W        W31946   5.120   0.807  15.604  0.3882 -0.0793 -0.0039
16330W        W31947   8.835  10.269  12.537 -0.2229  0.0047 -0.2427
16331W        W31948  15.935   5.701  12.320 -0.0651 -0.0572  0.1469
16332W        W31949  13.470  11.280  15.015  0.0006  0.0467 -0.2711
16333W        W31950   7.475  11.293   3.161 -0.1393  0.3094 -0.1978
16334W        W31951   2.295  11.097   0.372  0.4334 -0.0996 -0.1544
16335W        W31952   4.251   6.657   4.381  0.1225  0.0792  0.3108
16336W        W31953   7.167   5.875   3.076  0.2220 -0.2409 -0.0643
16337W        W31954   6.189  17.666   4.873 -0.3996  0.1031 -0.1743
16338W        W31955   6.195  10.858   1.876 -0.0083  0.3021  0.0925
16339W        W31956   3.657  10.792  13.144 -0.1490 -0.0240 -0.2538
16340W        W31957   0.726   9.061  12.671  0.2289  0.1087 -0.0324
16341W        W31958   3.949  12.506   0.141  0.2040 -0.2918  0.1502
16342W        W31959   6.291   7.985  14.441 -0.1191  0.0370  0.5027
16343W        W31960   7.011  12.099   2.173  0.0010 -0.2884  0.4260
16344W        W31961   6.258  14.523   0.425 -0.1968  0.2387 -0.0040
16345W        W31962   2.192   8.428   3.782  0.2032  0.1174  0.0562
16346W        W31963   2.598  12.512   0.663  0.0040 -0.1749  0.1485
16347W        W31964   2.185  15.743   5.944  0.1035  0.0870 -0.1257
16348W        W31965  15.203   2.439  15.475  0.0602  0.0053 -0.1468
16349W        W31966  13.321   1.885   3.567  0.0631  0.1531 -0.0369
16350W        W31967  17.051  14.915  11.636  0.2254 -0.2835  0.1476
16351W        W31968   6.081  17.593  13.928 -0.0078 -0.1180 -0.0979
16352W        W31969  13.001  14.179  14.950 -0.2399  0.1733  0.0557
16353W        W31970  13.152   0.805  15.755  0.0547  0.1910  0.1119
16354W        W31971   1.852  15.301   4.207  0.1801 -0.2772 -0.2467
16355W        W31972   5.115  16.967  13.435  0.2031 -0.0283 -0.0654
16356W        W31973  12.171   0.568  11.468  0.1128  0.1118 -0.0290
16357W        W31974   3.140   4.805   1.599  0.2357 -0.2109  0.2134
16358W        W31975   8.493  11.518  12.260 -0.1888  0.0378  0.0692
16359W        W31976  13.151   6.745  13.064  0.2216 -0.0148  0.0694
16360W        W31977  15.331   4.836  10.029 -0.0306  0.0621  0.1645
16361W        W31978   1.541  15.411  16.081 -0.5421 -0.2965 -0.0790
16362W        W31979   8.559   2.820  11.215  0.1260  0.1112 -0.2956
16363W        W31980  14.439   8.639  12.629 -0.0547 -0.2496 -0.1333
16364W        W31981  15.152   4.252  14.482  0.1617  0.1923  0.0634
16365W        W31982   2.468   6.710  15.552  0.2076  0.0412 -0.1702
16366W        W31983   9.503  13.220  11.301  0.0710  0.3115  0.1663
16367W        W31984   1.441   9.244   5.400  0.1421 -0.0693  0.2552
16368W        W31985  10.002   9.456  11.125  0.0258 -0.0760 -0.1550
16369W        W31986   7.251   3.074   1.716  0.0155 -0.1556 -0.0479
16370W        W31987   5.746   8.347   3.637 -0.1449 -0.0701  0.0631
16371W        W31988  12.245  14.091   6.334  0.0260 -0.0484  0.1787
16372W        W31989  16.088  15.267   3.145  0.3341  0.2629 -0.3566
16373W        W31990  11.918  12.509   0.044  0.1886  0.1490 -0.0633
16374W        W31991   1.806  16.478   1.684  0.2921  0.0537 -0.2380
16375W        W31992  14.441   5.224   2.519 -0.0489 -0.0143 -0.5342
16376W        W31993  10.057  12.748  15.502  0.0117 -0.0108 -0.1000
16377W        W31994   3.587  14.690   0.385 -0.0752  0.0583  0.1094
16378W        W31995  14.693   9.577  11.798 -0.1455 -0.1065 -0.0184
16379W        W31996   9.243   7.364   5.076  0.1004  0.2282  0.2605
16380W        W31997   8.018   0.581  13.162  0.2693 -0.2884 -0.0758
16381W        W31998  11.869   9.646   1.667  0.0108 -0.1892  0.1227
16382W        W31999  16.656  11.466   5.881 -0.2428 -0.0526 -0.0701
16383W        W32000  12.687   7.562  14.631 -0.1082  0.1846  0.0924
16384W        W32001  13.646  15.487  14.202 -0.2560 -0.1954 -0.1483
16385W        W32002  15.204  17.707   4.777  0.1978  0.0814  0.2282
16386W        W32003  12.426  11.143  15.874  0.0320 -0.1489 -0.1574
16387W        W32004   8.088  17.613   3.842 -0.1743 -0.0552  0.1505
16388W        W32005  14.380   4.725  14.280  0.0179  0.3150 -0.0845
16389W        W32006  16.254   6.072   1.647  0.2133  0.4607 -0.0598
16390W        W32007   1.326   1.910  15.267  0.1059 -0.1517  0.3934
16391W        W32008   2.175   5.177  12.879  0.1098 -0.0368  0.0604
16392W        W32009   5.391   9.073   0.895  0.1713 -0.2720 -0.2136
16393W        W32010   1.485  14.941  13.517 -0.1120  0.2924  0.1248
16394W        W32011  12.077  14.295   3.480  0.2044 -0.3642  0.2344
16395W        W32012   0.164  17.932  14.375  0.0251  0.2414  0.1387
16396W        W32013  12.327  12.510  15.898  0.1412 -0.0032 -0.0205
16397W        W32014  11.319   4.227   4.475 -0.0606  0.0265 -0.0253
16398W        W32015  12.693  16.131   1.693  0.4465  0.0427 -0.0369
16399W        W32016  16.752   2.426   1.767 -0.4893  0.2061  0.2666
16400W        W32017   2.619   0.002   3.928 -0.1144 -0.1046  0.0244
16401W        W32018   5.986   0.489   0.972 -0.2065 -0.0306  0.1297
16402W        W32019  18.007  12.161  14.275 -0.1471  0.1787  0.0055
16403W        W32020   2.752   6.940  11.520  0.1148 -0.0784  0.2213
16404W        W32021   9.801  17.010  13.052 -0.1330 -0.2166  0.0379
16405W        W32022  10.404  10.561  11.491 -0.0782  0.0635  0.2234
16406W        W32023   5.781   0.028  14.235 -0.2328 -0.0845  0.2215
16407W        W32024  17.418  17.304  11.094  0.1762  0.0102 -0.0764
16408W        W32025  12.127   2.005   0.021 -0.0144 -0.1868  0.1925
16409W        W32026   0.591  14.661   4.464  0.0539  0.0091 -0.2094
16410W        W32027   5.762   4.206   1.728 -0.1662 -0.2343  0.0372
16411W        W32028   7.197  10.255   1.649 -0.2382  0.0875 -0.1556
16412W        W32029   9.267  16.941   0.708  0.1959 -0.0660 -0.2740
16413W        W32030  10.916   0.073   0.567 -0.0395 -0.2680  0.1273
16414W        W32031  14.227  13.162   1.782 -0.2270 -0.4727  0.0053
16415W        W32032   8.833   0.562   1.688  0.1700  0.3488  0.2716
16416W        W32033   1.235  10.971  11.261  0.2118 -0.1060 -0.4009
16417W        W32034   5.114   6.356   5.319  0.1678  0.0448  0.0499
16418W        W32035  10.894  18.112  11.476  0.5712  0.0340  0.2149
16419W        W32036   9.580  14.133   5.043 -0.3343 -0.0810  0.0149
16420W        W32037  10.275  12.205  12.837  0.0351  0.1725 -0.1931
16421W        W32038  14.281   3.606  15.890 -0.3623 -0.1011 -0.1596
16422W        W32039   2.086  15.619  11.631 -0.1160  0.0743 -0.0210
16423W        W32040   7.854   9.002   0.448  0.1701  0.0538 -0.3202
16424W        W32041   7.177  14.499   4.877  0.0965  0.1311 -0.1939
16425W        W32042   6.325  12.480  12.865  0.1849 -0.0373 -0.1637
16426W        W32043  17.612   5.137   4.614  0.0245 -0.0731 -0.1890
16427W        W32044  13.506   8.139  14.700 -0.0112 -0.1551 -0.1336
16428W        W32045  12.766  11.763  13.524  0.0648  0.0678  0.0566
16429W        W32046  12.603   9.568  14.672  0.0563 -0.0940  0.1193
16430W        W32047   5.650  12.506   3.977  0.2032  0.0298  0.1209
16431W        W32048   6.410  14.464   5.947  0.0885  0.2088 -0.3510
16432W        W32049   9.416   8.456  14.657 -0.1830 -0.0635 -0.1799
16433W        W32050   6.107   4.397  12.665  0.1510 -0.3016  0.1490
16434W        W32051  13.124   4.426   0.279 -0.2309 -0.1698  0.2150
16435W        W32052   0.028  15.029   5.538  0.2476  0.1626  0.1113
16436W        W32053   8.871   2.513  10.548 -0.2185  0.1242  0.1646
16437W        W32054   8.044   8.670   3.388 -0.0638  0.1609 -0.0853
16438W        W32055   2.733  18.198  11.737  0.0803  0.3319 -0.0594
16439W        W32056   4.507  12.432   3.252  0.0681  0.1098  0.0997
16440W        W32057   7.427   2.030  13.115  0.0781  0.1799  0.1053
16441W        W32058   5.075  16.616   1.976 -0.1787  0.0141  0.0556
16442W        W32059  13.001   6.164  10.454 -0.2035 -0.1680  0.0137
16443W        W32060   6.434   6.186   1.985 -0.0389 -0.1161  0.0933
16444W        W32061   4.410  10.187   4.613 -0.1756 -0.0659 -0.1296
16445W        W32062   7.129   1.375   4.358 -0.1919 -0.1907 -0.2043
16446W        W32063   7.134  17.525   2.781 -0.0314  0.0325 -0.2242
16447W        W32064   4.640   4.384   0.460 -0.1123  0.0424 -0.2715
16448W        W32065  11.389   4.249   1.723 -0.4146  0.1864  0.0689
16449W        W32066  14.156   2.035   4.877  0.1396  0.1631  0.1828
16450W        W32067   4.429   6.500  12.451 -0.0021 -0.0287 -0.4413
16451W        W32068  10.677  14.006   3.149 -0.2420  0.0200  0.1690
16452W        W32069   9.770   2.149   1.975  0.3722  0.2905 -0.1277
16453W        W32070   4.095  13.141  14.159  0.3442 -0.2016  0.0393
16454W        W32071   4.176   3.384  11.203  0.1862  0.0874  0.0516
16455W        W32072  18.429   8.383  11.729  0.1325 -0.1620  0.2753
16456W        W32073  13.857   6.523  11.749  0.0933 -0.1453 -0.3178
16457W        W32074   5.648   9.923  13.825 -0.0313  0.3555  0.3662
16458W        W32075   3.435  12.256   0.299 -0.0387  0.1403  0.3662
16459W        W32076   6.014  11.714   5.042  0.2005 -0.3422  0.1537
16460W        W32077   8.348  14.174  15.966  0.0242  0.0128 -0.0692
16461W        W32078  12.034  14.914   1.834  0.1133 -0.1393  0.2593
16462W        W32079   3.416   0.320   3.442 -0.1108  0.0449  0.1856
16463W        W32080  10.696   2.286   0.740  0.2974  0.0516 -0.2085
16464W        W32081   3.787  10.190   1.680  0.0766  0.1887  0.2530
16465W        W32082   8.277  13.461   2.022  0.1977  0.0718  0.2636
16466W        W32083  16.838   7.282   4.327  0.0209  0.1282  0.2449
16467W        W32084   1.933   2.251  13.332 -0.1645 -0.0231 -0.0199
16468W        W32085   5.186  14.043  13.378  0.3564 -0.0356  0.0800
16469W        W32086   9.525  17.985  15.722 -0.0428  0.2404  0.1018
16470W        W32087   9.757  10.578  15.111  0.1583  0.3021  0.0863
16471W        W32088   3.680   9.076   3.920  0.0327 -0.0566  0.0393
16472W        W32089   6.010  12.602  13.981 -0.5015  0.0925  0.0369
16473W        W32090  15.104   8.380   3.896 -0.1485 -0.0101 -0.3118
16474W        W32091   8.576   0.716  15.987 -0.1740 -0.0477 -0.1803
16475W        W32092   7.426   5.888  12.457  0.2546  0.2490  0.0877
16476W        W32093   8.604  18.286  12.195 -0.2076 -0.0293  0.0824
16477W        W32094  14.308   7.816  10.813  0.0743  0.3723 -0.1236
16478W        W32095  13.320   4.414  13.742 -0.1400  0.0797 -0.0588
16479W        W32096  10.021  18.133   2.315  0.2656 -0.0547 -0.2270
16480W        W32097  16.335   8.721   0.491 -0.2602 -0.0484  0.2062
16481W        W32098   3.772   9.615  12.205 -0.1607  0.1396  0.2134
16482W        W32099   9.683  13.945   4.018  0.1787 -0.1509  0.0556
16483W        W32100   5.240   7.341  12.994  0.1186  0.1577  0.1385
16484W        W32101   5.904   5.794   4.839  0.2200 -0.2470  0.0673
16485W        W32102   6.046   1.931   1.245  0.2949 -0.0554  0.2625
16486W        W32103   2.255  14.322   4.984  0.0563 -0.4611  0.1438
16487W        W32104   5.564   0.890   4.534 -0.0935 -0.1692  0.0614
16488W        W32105   2.131   2.352  15.817  0.0485  0.4851  0.0539
16489W        W32106  17.835  10.596   4.260 -0.0050  0.3376 -0.2938
16490W        W32107   9.002  12.894  12.356  0.0061  0.0017 -0.1843
16491W        W32108   8.083  17.110  14.529  0.0958  0.1762  0.1039
16492W        W32109   2.210  13.304  14.534 -0.0218  0.2174  0.0209
16493W        W32110  15.229  15.348   0.667 -0.2838  0.0009  0.1357
16494W        W32111  13.897  15.731   5.887  0.0215 -0.3308 -0.0879
16495W        W32112   4.987  10.114   4.566 -0.0269  0.0831  0.2837
16496W        W32113  15.384  16.829   3.613 -0.2012 -0.0019 -0.1678
16497W        W32114   7.239  15.498  14.347  0.1980  0.0225  0.0764
16498W        W32115   1.160   2.776  15.186 -0.1440 -0.0222  0.0554
16499W        W32116  11.150   8.393  11.286  0.2402 -0.0912 -0.2720
16500W        W32117   0.770  15.063   4.167  0.2285  0.1335 -0.3574
16501W        W32118   5.580  14.493   3.496 -0.0308  0.2736 -0.3265
16502W        W32119  10.959   8.734   4.227  0.2502 -0.2786  0.2222
16503W        W32120  10.198  11.583  11.652  0.1864  0.2663  0.1230
16504W        W32121  10.095   9.105  15.235  0.0638  0.0954  0.2073
16505W        W32122   3.524   6.769   3.782 -0.0716 -0.1156 -0.2397
16506W        W32123   2.193  12.351  12.540  0.3679  0.0571  0.2647
16507W        W32124   4.654   3.252   1.735 -0.0809  0.0416  0.0001
16508W        W32125  12.508   9.593   3.344  0.1800 -0.0141 -0.0585
16509W        W32126  12.141  14.356   0.058 -0.0338  0.2707 -0.1486
16510W        W32127   2.090   8.901   4.790  0.2542  0.0003  0.2124
16511W        W32128   5.917  16.901   0.094 -0.1476 -0.0930  0.1294
16512W        W32129   8.351   6.151   1.575 -0.2395  0.1497 -0.1672
16513W        W32130  11.426  12.967   1.607 -0.1699 -0.0026  0.1453
16514W        W32131   2.208   1.487   6.251  0.0066  0.1009 -0.3002
16515W        W32132   4.532   3.897   5.057  0.1965  0.2908  0.1497
16516W        W32133   8.728  13.394   3.749  0.3111  0.2468  0.1420
16517W        W32134  13.533   1.774  12.689 -0.0245 -0.0389 -0.0972
16518W        W32135   6.557   5.065  13.320  0.0290  0.1842  0.1553
16519W        W32136   0.639  17.748  11.251 -0.1237 -0.0988  0.0842
16520W        W32137   8.988  12.946   3.278 -0.0115 -0.3192  0.0685
16521W        W32138  16.192   8.763   1.814 -0.1081  0.0622 -0.1701
16522W        W32139   0.244  16.465  13.403 -0.2889  0.0605  0.2156
16523W        W32140  18.192   6.672   0.658  0.1893  0.0975 -0.1185
16524W        W32141  17.600  16.024  15.115  0.0226 -0.4387  0.1475
16525W        W32142   9.876  10.420   4.715  0.1664 -0.1890 -0.2969
16526W        W32143   4.434  15.861  12.279  0.2237  0.1014  0.6163
16527W        W32144  11.138  12.884  15.813 -0.0425  0.1673 -0.1259
16528W        W32145   7.392  15.919   1.744 -0.0461 -0.0877  0.1422
16529W        W32146   5.435  11.452  12.270  0.0270 -0.0963 -0.1279
16530W        W32147   6.913  10.137   0.673  0.0529 -0.0601  0.0945
16531W        W32148   9.699  14.405   0.512 -0.1101  0.0884 -0.0120
16532W        W32149   5.149  12.433   4.850 -0.2387 -0.0724 -0.0685
16533W        W32150   2.196   8.520  11.620  0.0137  0.4557  0.3466
16534W        W32151   2.902  13.682  11.950  0.1591  0.1003  0.2872
16535W        W32152   2.174   3.541   1.889 -0.1616  0.0717 -0.1578
16536W        W32153   8.226  10.324   9.943 -0.0478  0.1510  0.2505
16537W        W32154   4.029  14.703  14.406  0.2281  0.0312 -0.2109
16538W        W32155   0.836  12.252   0.187  0.2699 -0.2052 -0.2156
16539W        W32156   7.175   2.429  13.997 -0.1413 -0.1788  0.1843
16540W        W32157  15.225   8.256   1.614 -0.0209 -0.1669  0.0637
16541W        W32158   2.044  10.385   4.927  0.2538 -0.1987  0.0019
16542W        W32159   6.513  13.542  13.042 -0.0764 -0.0612  0.3033
16543W        W32160  11.760   4.055  15.736 -0.0864  0.3492  0.1723
16544W        W32161   8.348  10.945  12.760 -0.1450 -0.1383  0.0227
16545W        W32162   5.416  17.882   2.506  0.0560 -0.1456  0.0775
16546W        W32163  13.400   4.150  11.920 -0.1583  0.0104  0.1903
16547W        W32164   6.148   0.271  13.121  0.0924  0.1194 -0.0053
16548W        W32165  11.573   9.522   2.410  0.0975 -0.0332  0.2862
16549W        W32166  13.083  13.530   5.136 -0.1006 -0.2442 -0.3172
16550W        W32167  17.020   0.509  12.907  0.0837 -0.1462 -0.1259
16551W        W32168   8.061  17.612   1.353 -0.0953  0.0400 -0.3326
16552W        W32169   1.345  10.122  13.099  0.1361  0.0177  0.0930
16553W        W32170  11.154  10.519   4.478 -0.4122  0.2189 -0.3209
16554W        W32171   9.645   8.919  14.955 -0.0129 -0.1236 -0.3116
16555W        W32172  11.118  11.670  12.777 -0.3898 -0.1927 -0.1254
16556W        W32173   0.936   3.396   4.224 -0.1673 -0.0914 -0.2250
16557W        W32174  10.131   5.304   5.558 -0.1615  0.1081 -0.4919
16558W        W32175   4.905  17.202  15.971  0.2024 -0.1955  0.0861
16559W        W32176  15.558  18.268   0.777 -0.1112 -0.0896 -0.2132
16560W        W32177  15.113   6.007   3.944 -0.1703 -0.4986 -0.1288
16561W        W32178   7.597  11.418   3.631 -0.1935 -0.2541  0.1724
16562W        W32179   5.963   7.372  15.030  0.2487  0.0946  0.2634
16563W        W32180  17.609   4.381  13.430  0.0358 -0.1290 -0.2532
16564W        W32181   5.250   5.924   3.651 -0.0373 -0.3372  0.2521
16565W        W32182   3.449  14.812  12.776 -0.0117 -0.2435  0.2314
16566W        W32183   7.832  13.538   1.351 -0.1054 -0.3247  0.2233
16567W        W32184   4.841  13.634  11.540  0.1193  0.1347 -0.1944
16568W        W32185  15.053   2.209  11.688  0.0443 -0.1193 -0.0752
16569W        W32186   4.292   8.981   2.295  0.0458  0.1286  0.5011
16570W        W32187   8.674   4.406  15.701  0.1397 -0.0870 -0.1545
16571W        W32188   6.687  15.304  12.997  0.0220  0.1471  0.1070
16572W        W32189   1.970   5.925   0.868 -0.0178  0.1986  0.0317
16573W        W32190   8.558   5.043   4.237 -0.2225  0.1329  0.2158
16574W        W32191  14.713   7.031  10.575  0.0941 -0.2804  0.1320
16575W        W32192  16.709  15.147   2.770 -0.1397  0.3884 -0.1749
16576W        W32193  18.319   6.312  15.462 -0.0147 -0.2344  0.1500
16577W        W32194  17.046  13.313   4.663  0.1117 -0.2010  0.1805
16578W        W32195  15.483   0.453   3.244  0.0872  0.3863  0.0829
16579W        W32196  11.943   8.660  13.812  0.0052 -0.2452 -0.1825
16580W        W32197  16.945  11.546   0.067 -0.0589  0.1263  0.0746
16581W        W32198   3.433  11.564   1.112 -0.2988 -0.2170  0.0494
16582W        W32199   3.493   2.631   0.945  0.0709 -0.0015  0.1901
16583W        W32200   2.419   4.053  16.065  0.2313  0.2899 -0.2115
16584W        W32201  14.886  14.611  14.361  0.2540 -0.0222 -0.1940
16585W        W32202  12.410  15.061  13.385  0.2223 -0.2416  0.2482
16586W        W32203   5.946  18.194   3.171  0.3368 -0.0900 -0.0779
16587W        W32204   3.281  12.815  14.061 -0.1953  0.3499 -0.0681
16588W        W32205  16.450   4.775  11.122  0.1329 -0.1713 -0.0892
16589W        W32206  18.338  17.897  13.365  0.0935  0.1297 -0.0354
16590W        W32207   8.196  16.165   3.582  0.0127  0.2172 -0.1643
16591W        W32208  16.409  17.585   3.366 -0.0115 -0.1268  0.1984
16592W        W32209   4.739  18.183   3.850 -0.0869  0.1605  0.2607
16593W        W32210  14.544  17.951  15.030  0.1980 -0.3604 -0.0851
16594W        W32211  16.423   5.604   0.909 -0.1861 -0.3545 -0.1804
16595W        W32212   6.671  10.343   1.571 -0.1622  0.1377 -0.1232
16596W        W32213   0.393   1.147   0.548  0.2891 -0.1617 -0.0403
16597W        W32214   5.374   4.566  14.056 -0.5419 -0.1318  0.0360
16598W        W32215  10.440  17.869   0.811 -0.0616 -0.0811  0.1581
16599W        W32216   7.038  11.187   2.266 -0.1088  0.0896 -0.1556
16600W        W32217  16.375   6.089   4.451  0.0771 -0.1497  0.0906
16601W        W32218   7.675   2.686  10.553  0.0160 -0.1974  0.2838
16602W        W32219  17.847   3.414   2.622 -0.2394  0.1824  0.0743
16603W        W32220  13.822  12.267   2.303 -0.2983 -0.0095 -0.0060
16604W        W32221   7.287  15.318  14.830  0.2889  0.1282 -0.2027
16605W        W32222   5.638  14.356  15.270 -0.0299 -0.2286  0.1140
16606W        W32223   6.881   2.055  14.196 -0.0557  0.0634 -0.0920
16607W        W32224  12.532  11.365  13.407  0.1003  0.0438  0.2327
16608W        W32225  10.253  11.349   3.083 -0.0146  0.1488  0.0396
16609W        W32226   1.678   6.794   0.852 -0.3305 -0.2027 -0.1445
16610W        W32227   5.577  17.127   2.310 -0.0410 -0.2297  0.0355
16611W        W32228  11.918  14.887   4.860 -0.1595  0.0562  0.0636
16612W        W32229   6.760   0.338  13.997 -0.1829  0.0886  0.1423
16613W        W32230  17.512   1.266   3.533 -0.0005  0.1317 -0.1755
16614W        W32231  12.468   6.886   4.470 -0.1981 -0.0792  0.0354
16615W        W32232   3.827  11.869  12.181 -0.1263  0.1927 -0.2254
16616W        W32233  15.801  14.536   1.648 -0.0504 -0.2272  0.0379
16617W        W32234   7.781   1.713   3.819  0.1500 -0.2852 -0.3767
16618W        W32235  14.354  10.249   0.749  0.3981 -0.1359 -0.0598
16619W        W32236   9.012  16.881  14.420 -0.0525  0.1600  0.1308
16620W        W32237  17.761   2.415   4.086 -0.0856  0.0339  0.0632
16621W        W32238  11.349   0.336   1.731 -0.3648  0.1487 -0.3057
16622W        W32239  10.234   8.510  15.672 -0.4097  0.0537  0.1089
16623W        W32240  12.863   8.332  15.288  0.1377  0.1063  0.5894
16624W        W32241   0.871  16.787   2.358 -0.1435  0.2445  0.4528
16625W        W32242   6.505   2.586   4.615 -0.0144  0.2232 -0.3898
16626W        W32243   2.839  10.294  14.975 -0.0322  0.2224  0.1765
16627W        W32244  12.302   3.128   5.335  0.1275  0.1115  0.0319
16628W        W32245   2.100  12.805  15.124  0.1770 -0.1973 -0.4104
16629W        W32246   5.228  14.664   4.319  0.0736 -0.0502 -0.1035
16630W        W32247   8.625   2.755  14.246  0.0908  0.2208 -0.0083
16631W        W32248  10.982   3.713  15.097 -0.0041  0.1215  0.1344
16632W        W32249   0.663   7.265   4.167 -0.2815  0.6240  0.1104
16633W        W32250   8.575   2.171   5.025  0.1502 -0.0982  0.3595
16634W        W32251   6.104   3.384   1.113  0.2353 -0.1136 -0.0098
16635W        W32252  17.131   2.134  15.353  0.1229 -0.3223  0.1200
16636W        W32253  13.796   7.832   1.544 -0.1785  0.3821 -0.0967
16637W        W32254  15.337  16.745  12.370 -0.2229  0.1841 -0.2972
16638W        W32255   1.695  14.791  12.229 -0.1752 -0.1900  0.2224
16639W        W32256   7.883  10.623   2.133 -0.1662 -0.1456 -0.1068
16640W        W32257  10.917  11.141  15.364 -0.1086  0.0294 -0.1386
16641W        W32258  18.096  16.747   2.693  0.2302 -0.0046 -0.1843
16642W        W32259  10.457   7.167   1.822 -0.0378  0.2534  0.1970
16643W        W32260   3.488  12.535  14.473  0.0946  0.3930  0.1104
16644W        W32261   8.843   6.783  10.970 -0.0474  0.3696 -0.0688
16645W        W32262   9.574   4.425   0.641 -0.3034  0.2114  0.3167
16646W        W32263  12.594  16.067  12.554 -0.0080 -0.2012  0.0771
16647W        W32264  14.174   4.433  14.709 -0.0670 -0.0718 -0.1218
16648W        W32265   2.227   8.849   0.569 -0.1928  0.0758  0.1849
16649W        W32266  11.639   8.004   1.411 -0.0567 -0.1880  0.1554
16650W        W32267  17.789  12.416   3.975  0.0398 -0.1990 -0.1097
16651W        W32268  13.679   6.917  12.515  0.2779 -0.1470  0.0806
16652W        W32269   4.360  11.988   4.205 -0.0745  0.2322  0.1423
16653W        W32270   6.693  13.603   4.999 -0.0858  0.0656 -0.1259
16654W        W32271   2.772  17.223  11.251 -0.0001  0.4618 -0.3871
16655W        W32272   5.202   8.627   1.969  0.0965  0.2877 -0.3474
16656W        W32273  13.890  13.335   3.032 -0.1040 -0.0126  0.3386
16657W        W32274   6.212   1.252  15.131 -0.0719 -0.2272 -0.0390
16658W        W32275   9.625  16.069  16.066 -0.1099 -0.0307 -0.2192
16659W        W32276  12.884   9.249  11.140 -0.2368  0.1701  0.0523
16660W        W32277   2.441  12.113   0.346  0.1823 -0.0261 -0.3797
16661W        W32278   5.465  15.760  15.589  0.1957 -0.0048  0.3144
16662W        W32279   1.253  14.442   6.668 -0.0237 -0.1516 -0.2965
16663W        W32280  16.088   7.338   1.353  0.1140  0.0622  0.4752
16664W        W32281   1.433   7.749  15.858  0.0354 -0.0552  0.1587
16665W        W32282   5.259  13.740  15.518 -0.1363  0.0938  0.0512
16666W        W32283   3.934   2.935   4.817  0.3390 -0.0657 -0.0587
16667W        W32284   8.817  11.820  12.043 -0.0090 -0.2403 -0.2569
16668W        W32285   6.392   6.409  12.397  0.0079  0.1504  0.1016
16669W        W32286   0.617  11.141  14.888 -0.0587 -0.0800  0.0551
16670W        W32287   1.506  16.068  14.769 -0.3341 -0.1179  0.0829
16671W        W32288   3.934  15.469  11.685 -0.0374  0.0236  0.2798
16672W        W32289  12.569  16.800   4.141  0.0445  0.3911  0.1879
16673W        W32290  11.739  13.169   3.076  0.3711  0.2642  0.0079
16674W        W32291   1.509   3.158  15.268 -0.1907 -0.0727 -0.0101
16675W        W32292   9.760   8.810  15.390  0.0842  0.3407  0.0739
16676W        W32293   2.523  15.208  14.317 -0.2116  0.0481  0.0776
16677W        W32294   9.907   6.905   2.771 -0.1455 -0.0208  0.0742
16678W        W32295  13.737   3.636   4.516  0.1213 -0.0591  0.1494
16679W        W32296   2.509  13.547   2.637  0.1619 -0.2576 -0.0571
16680W        W32297   7.999  14.464   5.564  0.1248  0.2940 -0.0390
16681W        W32298  14.588  12.190  13.850  0.0729 -0.0855 -0.1210
16682W        W32299  11.114   2.166   4.096 -0.1220 -0.3541  0.1699
16683W        W32300  15.167   3.262   2.228  0.2694 -0.1499  0.0134
16684W        W32301  14.316  15.837  11.396  0.0322 -0.3006  0.2968
16685W        W32302   0.771  16.085   3.795 -0.2006 -0.2249  0.0739
16686W        W32303   9.955   7.159   1.209 -0.3768  0.0617 -0.3144
16687W        W32304  12.902  17.315  13.572  0.2665 -0.4444 -0.1270
16688W        W32305  12.167  11.675  11.885 -0.1175 -0.1032 -0.4450
16689W        W32306  16.767   1.319   2.995  0.0861 -0.0103  0.2368
16690W        W32307   8.613  15.745  12.021 -0.1235 -0.0235 -0.1408
16691W        W32308  15.506   9.369   3.264  0.1895  0.0687  0.0702
16692W        W32309   0.734   4.415   0.752  0.2278 -0.2803  0.3403
16693W        W32310   4.815  12.490   0.492  0.2617  0.2958  0.1112
16694W        W32311  14.886  16.749  14.234  0.2490 -0.2200  0.0685
16695W        W32312  14.133   2.517   4.904  0.0384 -0.2302  0.0751
16696W        W32313   9.519   1.066  13.506  0.1870 -0.0597 -0.2303
16697W        W32314  10.579  14.996   6.369  0.0426  0.0525  0.2946
16698W        W32315   2.806  17.144  13.471  0.1246 -0.1215 -0.1850
16699W        W32316  18.051  14.124  12.543 -0.1068 -0.1054  0.2052
16700W        W32317  15.836  16.223   5.706 -0.0649 -0.0867  0.1076
16701W        W32318  13.428  14.601   2.199 -0.1179 -0.1769 -0.0119
16702W        W32319  12.775  17.759   0.107  0.1278  0.0186  0.2523
16703W        W32320   7.989  12.561   3.822  0.1664  0.2327  0.1021
16704W        W32321  17.310   4.472  11.384  0.1309 -0.4600 -0.3057
16705W        W32322  18.199   4.358  13.217 -0.0486 -0.0536 -0.3582
16706W        W32323   4.581   5.116  12.166  0.0683 -0.1075  0.0394
16707W        W32324  10.218  17.985  13.216 -0.1218 -0.0743  0.2373
16708W        W32325  12.304  12.052   5.460  0.0879 -0.2050 -0.1568
16709W        W32326  14.149   0.071   1.723 -0.0779  0.0747  0.2934
16710W        W32327   2.581   9.598   2.629 -0.1109 -0.0293 -0.0709
16711W        W32328   3.932  10.296  13.051 -0.0614 -0.2957 -0.2212
16712W        W32329  11.996   8.107  13.184  0.1181 -0.3825  0.1504
16713W        W32330  12.181   7.327   1.544  0.0225 -0.0709 -0.2686
16714W        W32331  15.125   0.762   0.756 -0.3391  0.3183  0.1916
16715W        W32332   2.498   1.875   3.091  0.0106  0.3539 -0.1067
16716W        W32333   7.533  18.388   3.028 -0.5039 -0.1114 -0.0777
16717W        W32334  17.780  17.954   4.710  0.2618  0.5018  0.1361
16718W        W32335  16.366  17.609  15.029 -0.0180 -0.1464 -0.2656
16719W        W32336  10.530   7.923   1.350  0.1698 -0.3494  0.1934
16720W        W32337  11.614   8.525  13.353 -0.1222 -0.1874 -0.1132
16721W        W32338   7.417   2.656   0.413 -0.1318 -0.4852 -0.0966
16722W        W32339  13.078  18.131  13.354  0.3820  0.0449 -0.1877
16723W        W32340   2.798  14.471   0.564 -0.2857 -0.2390 -0.0764
16724W        W32341  16.602   2.221   2.238 -0.0540 -0.0068 -0.0221
16725W        W32342  16.301  12.017   0.746 -0.3144  0.0993  0.0710
16726W        W32343  18.022  16.703   3.840  0.3350  0.1978  0.3497
16727W        W32344   0.125   0.105  15.989 -0.1142  0.1073  0.0094
16728W        W32345  17.987   7.221   5.433 -0.1507 -0.1073  0.0760
16729W        W32346   9.824  17.524   3.596 -0.0316  0.2440 -0.3327
16730W        W32347   6.792   1.250  15.012 -0.2394  0.1650  0.1916
16731W        W32348   3.191  11.280   5.543 -0.0803  0.0987  0.2222
16732W        W32349   4.674  17.281  13.547 -0.2758 -0.0732 -0.1139
16733W        W32350  16.127  12.943   3.802 -0.2015 -0.2125 -0.4393
16734W        W32351  10.028   7.520   5.087 -0.0716  0.0821  0.0220
16735W        W32352  16.518   8.903  14.663  0.0300 -0.0338  0.1374
16736W        W32353   3.064  10.849  15.064 -0.0108  0.0312 -0.1514
16737W        W32354   1.304  13.312   2.402 -0.1321  0.0760 -0.0288
16738W        W32355   3.405   9.228   2.285 -0.0963  0.3273  0.4556
16739W        W32356   5.202  10.481  14.530 -0.0524  0.0236  0.0826
16740W        W32357  16.289  14.195  13.243  0.2422  0.0509  0.2852
16741W        W32358   4.420  13.204   1.160 -0.0631 -0.0601 -0.2768
16742W        W32359  10.013  10.403  12.323 -0.1590 -0.1770 -0.0781
16743W        W32360  14.166   5.023  13.439 -0.2675 -0.3291  0.1009
16744W        W32361   5.297   0.170  14.288  0.0259 -0.1730  0.3304
16745W        W32362   5.289  17.906  15.822 -0.0183 -0.1564 -0.1897
16746W        W32363  15.825   9.240   1.125 -0.2373  0.2424 -0.3808
16747W        W32364  10.141  12.555   5.808  0.1952  0.1041  0.1379
16748W        W32365  13.464  11.020   1.445 -0.0194  0.4075  0.1407
16749W        W32366   6.098   2.591   4.240  0.4193  0.1475  0.1951
16750W        W32367   5.294  12.882   1.942 -0.0515  0.0604 -0.1399
16751W        W32368   4.056   9.970   3.896  0.0354  0.2394 -0.0459
16752W        W32369  16.911  16.099  12.419 -0.1160  0.1481  0.0268
16753W        W32370  17.890   5.143   5.569  0.0831 -0.0179 -0.0238
16754W        W32371   7.623  16.369   1.575 -0.2316 -0.0284 -0.1126
16755W        W32372   5.605   8.241  14.866  0.1642 -0.0718  0.1156
16756W        W32373   4.456  17.482   1.692 -0.1485 -0.3289  0.2012
16757W        W32374   1.508  15.730   5.363  0.1274 -0.0332 -0.2109
16758W        W32375  17.716   4.871   2.258  0.2274  0.1345  0.3639
16759W        W32376  11.952   3.522   0.926 -0.0551  0.2334  0.0652
16760W        W32377  16.950  16.840  10.922 -0.0947  0.0287  0.0130
16761W        W32378  16.130  12.610  11.741  0.4539  0.0540  0.0111
16762W        W32379   8.084   7.639   2.735 -0.0219 -0.1498  0.2591
16763W        W32380  12.891  14.976  15.743 -0.1153  0.1029 -0.1687
16764W        W32381   0.948  11.804   3.262 -0.1453  0.3071  0.0268
16765W        W32382  14.500   6.783   1.624 -0.1898 -0.0551  0.0265
16766W        W32383   8.309   6.965   4.140  0.2563 -0.2315 -0.0123
16767W        W32384   7.103  13.014   5.474  0.0731  0.1129  0.0259
16768W        W32385  16.214  11.651  15.595  0.1370 -0.2371 -0.1575
16769W        W32386   6.865   1.722  13.284 -0.1669  0.0662  0.0717
16770W        W32387   7.079   1.252   2.223 -0.0300  0.0348 -0.1477
16771W        W32388  15.250  15.311   3.301  0.1208  0.2248 -0.0676
16772W        W32389   3.530   2.178  11.869 -0.0768 -0.0897  0.1051
16773W        W32390   6.780   9.744  15.894 -0.0821  0.0349  0.0089
16774W        W32391   2.489  11.571   1.109  0.1122 -0.3485 -0.0064
16775W        W32392  12.773  11.314   4.751  0.0949  0.2090 -0.1394
16776W        W32393  17.382   3.141   5.176 -0.0441 -0.1584 -0.1827
16777W        W32394  15.376   3.425  11.938  0.0398  0.5521 -0.0580
16778W        W32395   6.475   3.396   0.787  0.2158 -0.2724 -0.0362
16779W        W32396   0.404   6.340  12.339  0.1273  0.1060  0.3003
16780W        W32397   4.118   0.940   1.235 -0.1881  0.5144 -0.2573
16781W        W32398  14.632  12.952   3.034  0.0233 -0.0256  0.0831
16782W        W32399  18.156   2.018   1.341 -0.1560  0.3192 -0.1064
16783W        W32400  15.168   5.475   4.412 -0.3392 -0.3330 -0.1365
16784W        W32401  10.540  14.813  13.942  0.1488  0.3811 -0.0207
16785W        W32402  15.973  17.660   0.274 -0.0787  0.3542  0.2189
16786W        W32403  17.314  12.377   5.410 -0.0234 -0.0312 -0.1016
16787W        W32404  10.251  16.143   3.428 -0.1761 -0.1815  0.0064
16788W        W32405   1.780  16.011   2.972  0.0625 -0.1025  0.2234
16789W        W32406  11.171   9.173   1.366  0.1327 -0.0971 -0.0831
16790W        W32407   8.218  15.600  13.960  0.1534  0.0921 -0.2957
16791W        W32408  14.191   1.782   3.144  0.0797 -0.1280  0.0365
16792W        W32409  16.679  13.526   0.057  0.0383 -0.3421  0.3315
16793W        W32410   8.635  16.012  14.033 -0.0163 -0.0382  0.1704
16794W        W32411   5.435   0.689  12.552 -0.1158 -0.1889  0.2479
16795W        W32412   6.598  12.125  11.478  0.1601 -0.1659  0.4850
16796W        W32413   9.789  16.399   2.060  0.1400  0.0986 -0.0778
16797W        W32414  17.037  10.113  12.479 -0.0414 -0.2768  0.0524
16798W        W32415   8.949   1.051  14.395  0.0391  0.5739 -0.1610
16799W        W32416   5.429   3.103  10.698 -0.1523 -0.3342 -0.1296
16800W        W32417  13.438  16.418   3.714 -0.4272  0.4054  0.0144
16801W        W32418   7.833  15.429   3.285 -0.2428 -0.2492  0.4285
16802W        W32419  11.053   2.203   0.408  0.1154  0.0187 -0.1090
16803W        W32420   4.383   5.994   3.688 -0.2369 -0.1787  0.0351
16804W        W32421  10.130   6.484   3.191 -0.1887 -0.1371 -0.2100
16805W        W32422  11.725   2.507  15.632 -0.2612  0.1065 -0.1768
16806W        W32423   4.254  12.780   5.723  0.0242 -0.2190 -0.1747
16807W        W32424   0.076   5.023   4.224 -0.1720 -0.1619  0.3456
16808W        W32425   8.594  10.522   0.838 -0.0937  0.4410  0.0363
16809W        W32426   5.488  11.338   5.684 -0.0111 -0.0038 -0.2451
16810W        W32427  12.022  10.979   4.773 -0.2080  0.0554 -0.2101
16811W        W32428  11.651  10.867  10.192 -0.0559 -0.1334 -0.1560
16812W        W32429   5.852  12.266   3.054 -0.0372 -0.0782 -0.2185
16813W        W32430   5.364   3.534  13.580  0.1840  0.0715 -0.1433
16814W        W32431  11.388   3.893  11.432  0.1181 -0.1130 -0.0939
16815W        W32432  13.655   1.156  15.053 -0.0191  0.2606 -0.2217
16816W        W32433  13.900  11.109   4.219 -0.1962  0.0757 -0.0329
16817W        W32434   0.321   3.025  15.498 -0.0527  0.2150 -0.0547
16818W        W32435  15.298  10.138   0.632 -0.2842  0.2403  0.2189
16819W        W32436   6.770   3.701   3.495  0.1518  0.2309 -0.2187
16820W        W32437  10.860  12.925   1.569  0.0102  0.0234  0.2084
16821W        W32438   5.976   4.940   3.337 -0.3974  0.2486 -0.5433
16822W        W32439   8.238   7.377  13.681  0.1075 -0.3728 -0.0400
16823W        W32440  10.348  11.200   1.304  0.1725  0.0142  0.0482
16824W        W32441   6.264  17.243   1.421 -0.0017 -0.0881  0.0596
16825W        W32442   2.487   8.212  14.490  0.1369 -0.0027  0.1391
16826W        W32443   8.591  17.710   2.013 -0.2359  0.0442  0.0711
16827W        W32444   3.884  15.227   1.086 -0.0148  0.1874 -0.0657
16828W        W32445  12.669  15.677  14.153  0.3836 -0.1962 -0.0713
16829W        W32446  11.731  16.568  14.365 -0.0959  0.1129  0.0747
16830W        W32447   9.516   8.709  11.867 -0.2307  0.1163 -0.1503
16831W        W32448  17.573   8.718  11.517 -0.0883  0.1692  0.1879
16832W        W32449   8.816   0.276   0.981 -0.1200 -0.0233  0.0536
16833W        W32450  15.041  14.743   3.817  0.0656  0.2003  0.4291
16834W        W32451   4.161  16.777  15.032  0.4315  0.0920 -0.2505
16835W        W32452  13.000   8.322  14.735  0.2250 -0.1881  0.0938
16836W        W32453   6.308   2.369  11.430  0.0564 -0.0538 -0.2371
16837W        W32454   5.211   8.613  12.706 -0.0566  0.0852 -0.2235
16838W        W32455  18.333   5.625  13.605  0.3267 -0.0201 -0.1299
16839W        W32456   7.513  17.067   2.727 -0.2698 -0.0096 -0.0036
16840W        W32457  12.911  10.257   1.754  0.2386 -0.0487 -0.0227
16841W        W32458   5.808   8.436   3.133  0.0442  0.0388 -0.1598
16842W        W32459   6.249   0.932   0.848  0.3717  0.3018 -0.5038
16843W        W32460  17.882   3.465   3.784 -0.0095  0.0300  0.0067
16844W        W32461   5.365  13.249   0.833  0.1409  0.1270  0.1197
16845W        W32462   0.364  16.738  13.834 -0.1454  0.2934 -0.1439
16846W        W32463  12.499   7.219  12.048 -0.2091 -0.2747  0.1098
16847W        W32464  12.774  14.625  15.096  0.0526  0.1318  0.1326
16848W        W32465  10.371  16.742  15.728  0.0172  0.3537  0.0735
16849W        W32466   0.644  15.623   0.384  0.0073 -0.1183  0.1649
16850W        W32467   3.013   0.767   5.821  0.0363 -0.1574  0.4683
16851W        W32468   9.385   8.648  11.375 -0.0889 -0.1534  0.1136
16852W        W32469   9.491  15.155   2.722 -0.1851 -0.3738 -0.1438
16853W        W32470  16.611   7.485   0.056 -0.1604  0.3615  0.0259
16854W        W32471   7.647   5.960   3.989  0.0664 -0.0518  0.1418
16855W        W32472  18.313   3.414   0.677 -0.0207 -0.2734 -0.0805
16856W        W32473  18.039   6.086   3.595  0.5050 -0.3134  0.0872
16857W        W32474   2.293   3.117  12.324 -0.0415  0.1391  0.1880
16858W        W32475   2.605   2.974  13.044 -0.1189 -0.0278 -0.0060
16859W        W32476   9.356  11.675  12.626 -0.1485  0.0301  0.1394
16860W        W32477  11.480  13.229   2.278  0.0128 -0.0428  0.0321
16861W        W32478  12.507  16.073  11.593 -0.1536  0.0647  0.1186
16862W        W32479   8.324   4.799  14.605 -0.0842 -0.2351 -0.0071
16863W        W32480   2.557  15.491  16.079  0.1448 -0.0984 -0.3791
16864W        W32481  17.209  10.280  14.085 -0.1060 -0.3387  0.1314
16865W        W32482  12.450   1.119  13.920 -0.0990  0.1355  0.1493
16866W        W32483  14.067  14.513  13.703  0.0428  0.1466 -0.3075
16867W        W32484  13.203   1.290  15.989 -0.3121  0.1045  0.0669
16868W        W32485   2.514   6.344  12.539  0.0930 -0.0821 -0.2199
16869W        W32486   3.483   9.308   4.937  0.0430  0.1555  0.2227
16870W        W32487   2.945   5.764  13.103 -0.0481 -0.0040  0.1236
16871W        W32488  16.718   3.000  13.925  0.0808 -0.2402 -0.3571
16872W        W32489   9.795  12.771  14.053  0.1746 -0.0295  0.0344
16873W        W32490   4.893   6.371   2.809  0.2552  0.0407 -0.0140
16874W        W32491   6.744  17.917   0.359 -0.0583 -0.0892  0.0140
16875W        W32492  16.520  11.905   3.254  0.1154  0.1983 -0.2189
16876W        W32493  11.587   5.120  15.325  0.0976  0.1914 -0.2706
16877W        W32494  15.271   3.987   1.153 -0.0113  0.0564  0.0042
16878W        W32495   6.003  14.373   6.155 -0.0326 -0.0425  0.0286
16879W        W32496   4.079  17.132   4.152 -0.4222 -0.0160  0.1111
16880W        W32497  17.233   5.893   0.136 -0.0814  0.0457 -0.1456
16881W        W32498   2.507   2.463  14.797 -0.1639 -0.0195 -0.0805
16882W        W32499   6.451   4.656   1.678 -0.4371 -0.1213 -0.0266
16883W        W32500   1.922  17.388   3.260 -0.1924 -0.1922 -0.1431
16884W        W32501   5.884   0.389  15.938 -0.2032  0.1887 -0.4506
16885W        W32502  10.598   0.986  12.216  0.0026  0.1909 -0.1982
16886W        W32503  17.516  13.718   2.309 -0.0012 -0.3423  0.1005
16887W        W32504   5.202   8.131   5.011 -0.2506 -0.2738  0.0828
16888W        W32505  10.762   7.784   0.380 -0.0779  0.1009 -0.2835
16889W        W32506   1.510  10.672  15.099 -0.0081  0.0585  0.0175
16890W        W32507   8.242  17.918  14.602  0.0837 -0.1570  0.0302
16891W        W32508   7.863  13.041   3.931  0.0697  0.1678 -0.1252
16892W        W32509  15.547   9.236   4.461  0.1638 -0.0883 -0.1080
16893W        W32510   1.976   8.474  14.574  0.0282 -0.1468  0.1954
16894W        W32511  13.196  14.620  11.604  0.0726 -0.2102  0.1449
16895W        W32512   0.196  13.674   5.254  0.2164 -0.1251  0.3457
16896W        W32513  17.248  14.165   4.785 -0.1595  0.1769 -0.2380
16897W        W32514   4.642  14.729  13.508 -0.0858  0.0268  0.0286
16898W        W32515   4.802  16.110   0.471 -0.1373 -0.3041  0.1626
16899W        W32516   4.223   8.497  10.900  0.0339 -0.1518 -0.1390
16900W        W32517  11.346   8.465  11.775 -0.2051 -0.0929  0.1582
16901W        W32518   1.734   9.709  11.016 -0.3094 -0.0660 -0.2457
16902W        W32519  11.067   6.491  11.194  0.1046 -0.2444  0.1702
16903W        W32520   4.677   6.720  14.776  0.1898  0.0221 -0.1587
16904W        W32521  14.714   1.334  13.783 -0.1925  0.3464 -0.0177
16905W        W32522   0.597  13.024   1.058 -0.3238  0.1429 -0.2197
16906W        W32523   4.447   3.426  15.930 -0.0399 -0.0271 -0.1541
16907W        W32524  10.444   7.354   1.318 -0.1443  0.2756 -0.0839
16908W        W32525  12.777   6.627  10.642 -0.0424 -0.2716  0.1238
16909W        W32526   9.628  10.088  12.027 -0.0122  0.2515 -0.3429
16910W        W32527   2.397   7.239  13.126  0.3630 -0.3172  0.2294
16911W        W32528  13.199   4.096  10.110 -0.4064 -0.1322  0.0152
16912W        W32529  11.976   7.435   2.616  0.0003 -0.0894 -0.3781
16913W        W32530  12.558  10.090   3.213 -0.1395  0.2458  0.2530
16914W        W32531   4.528   1.362   5.202 -0.2138 -0.1607  0.2940
16915W        W32532   9.908   8.817   1.389  0.2737  0.1686 -0.0014
16916W        W32533   0.922   3.086  10.874  0.1916  0.0569  0.2436
16917W        W32534   9.900   6.312   0.749  0.3876 -0.1302  0.0432
16918W        W32535   2.302  14.501   4.485 -0.0418  0.0117  0.0417
16919W        W32536  15.706   3.612   0.991 -0.1378  0.4618 -0.0357
16920W        W32537  15.960   4.848   4.600  0.1012  0.1361  0.0881
16921W        W32538   4.846  17.828   2.722 -0.0633  0.0503  0.0922
16922W        W32539   7.391   6.714  13.654 -0.0365  0.0618  0.2353
16923W        W32540   8.718  11.344  14.274 -0.0100  0.1485 -0.2413
16924W        W32541  16.991   8.617  15.370  0.1920  0.0078 -0.0432
16925W        W32542   8.958   2.258   4.219  0.0026  0.4071 -0.1062
16926W        W32543  17.196   8.955  11.745 -0.1470  0.7347  0.0147
16927W        W32544  16.644   3.500  12.148  0.2054 -0.4675 -0.0353
16928W        W32545   6.621   8.927   1.346 -0.0465  0.2394  0.0171
16929W        W32546   0.338   2.825  14.740  0.1384 -0.1834 -0.0675
16930W        W32547   6.206  16.043   5.012  0.3973  0.1454  0.1249
16931W        W32548   2.280  13.455   2.099  0.1902  0.0423  0.2344
16932W        W32549  17.394  13.946   4.020  0.0039 -0.0462 -0.3043
16933W        W32550   6.761  17.886  13.027 -0.4676  0.2396  0.1533
16934W        W32551  18.251   9.967  15.320 -0.1889  0.0835 -0.0070
16935W        W32552  14.454  11.603  13.290  0.0029  0.0783 -0.1088
16936W        W32553  10.594  17.540   0.368 -0.1627  0.1661  0.1537
16937W        W32554   7.277  13.708  10.714 -0.0381 -0.2554 -0.1727
16938W        W32555   1.813   2.519  16.113 -0.0555 -0.1980  0.1741
16939W        W32556  13.557   0.499  11.215 -0.0973  0.0731 -0.2423
16940W        W32557  18.057   9.013   2.579 -0.0442 -0.1002  0.1478
16941W        W32558  12.286  16.730   3.433  0.2776 -0.1710  0.0114
16942W        W32559   8.088   6.985  15.892 -0.1753 -0.0687 -0.2914
16943W        W32560  13.484  11.577  14.240  0.0886  0.0351 -0.0014
16944W        W32561  16.469  17.447  12.291  0.1419 -0.1048  0.1587
16945W        W32562   5.821  13.426   2.464 -0.0917  0.2405 -0.0675
16946W        W32563   4.966   2.135   2.052 -0.0823  0.3238 -0.1396
16947W        W32564  15.649  18.281  12.895 -0.0053  0.1299 -0.0278
16948W        W32565   3.008  15.234   4.581  0.2196  0.1943  0.0280
16949W        W32566   2.974   2.297  15.693  0.0874  0.2540 -0.0808
16950W        W32567  16.149  16.822  13.452  0.4922 -0.0904 -0.1260
16951W        W32568   6.228  10.585   2.994  0.3344  0.3173 -0.1594
16952W        W32569   5.721  13.822  12.687  0.1258 -0.1104  0.1398
16953W        W32570   2.880   6.135   3.751 -0.0638 -0.1383  0.2744
16954W        W32571  12.886   2.064  13.135 -0.0445  0.0633 -0.0197
16955W        W32572   5.676  10.352   2.151 -0.4281  0.0566  0.0827
16956W        W32573  16.128   1.859  15.461 -0.0162  0.0380 -0.2291
16957W        W32574   3.600  16.898   0.414 -0.1449  0.1241 -0.3838
16958W        W32575  10.320   0.722   2.321 -0.3263 -0.0008 -0.3184
16959W        W32576   6.220  13.323   0.898  0.0442 -0.0338 -0.0001
16960W        W32577  12.690  12.015   1.731  0.2620 -0.2539 -0.0805
16961W        W32578  15.251  12.001  13.346 -0.0928  0.4523  0.0109
16962W        W32579   2.380  15.186   3.259  0.3373 -0.1024 -0.2623
16963W        W32580   7.958   1.532   1.134 -0.6126 -0.0055 -0.2557
16964W        W32581   3.504   1.534   2.012 -0.1142  0.0617 -0.1586
16965W        W32582   8.999   1.000  15.928 -0.1604  0.3121 -0.3090
16966W        W32583  10.255   9.282   1.534  0.1013  0.1968  0.2948
16967W        W32584  14.500   9.570  12.274  0.1372  0.1133  0.1337
16968W        W32585   9.064   5.840   4.217 -0.0670  0.0472 -0.0849
16969W        W32586   6.008  17.282  11.947  0.1692  0.0159 -0.3155
16970W        W32587   2.341   3.530  11.867  0.1811  0.0896  0.0006
16971W        W32588  11.472  18.064  13.046  0.0583  0.0602  0.0316
16972W        W32589   8.778   4.433  14.754 -0.4219  0.2858  0.0407
16973W        W32590  15.629   5.339   1.745  0.0173  0.0747 -0.2891
16974W        W32591   6.154  11.609  12.680  0.0456  0.0003  0.0664
16975W        W32592  15.082   7.895   4.290 -0.0480  0.3423  0.3281
16976W        W32593   7.028  10.720   1.816 -0.0612  0.0908  0.3094
16977W        W32594  12.872   9.703  14.058 -0.0201 -0.1471 -0.0094
16978W        W32595  12.592   6.738  12.776  0.3674  0.5074 -0.0613
16979W        W32596  14.640   1.972   3.196 -0.1293 -0.1093 -0.1768
16980W        W32597   1.422   1.800   2.190 -0.0521 -0.0555  0.3524
16981W        W32598   0.712  13.134  11.441 -0.0598 -0.3601  0.0628
16982W        W32599  17.586  17.877  11.569 -0.3005  0.1715 -0.0566
16983W        W32600  17.335  12.424   2.081 -0.1762  0.0404 -0.2739
16984W        W32601   8.713  10.788   1.485  0.0512  0.2250 -0.0788
16985W        W32602   2.706   5.484   4.507 -0.1570  0.0304  0.2465
16986W        W32603   9.592   3.565  13.509 -0.0351 -0.0377  0.3160
16987W        W32604  14.431  15.250   0.950  0.0815 -0.0914  0.1719
16988W        W32605   2.075   2.664   1.017 -0.0413 -0.3732 -0.2729
16989W        W32606  17.282   7.600   1.624 -0.1716 -0.1439  0.3781
16990W        W32607   6.013  17.528  15.015  0.2134  0.2904 -0.2477
16991W        W32608   5.924   3.743  15.171  0.2417  0.0065 -0.0884
16992W        W32609  15.295  13.916  15.052  0.0730 -0.1176  0.2054
16993W        W32610   6.307   5.004  14.958  0.1774 -0.2430 -0.0555
16994W        W32611   2.291   4.617  11.123 -0.3205  0.2379  0.2908
16995W        W32612   9.420   1.594   4.168  0.0051 -0.1110  0.1388
16996W        W32613   6.011  12.012  12.355  0.0708  0.2552 -0.1866
16997W        W32614   9.659  17.061  15.719  0.0092  0.2861 -0.1881
16998W        W32615   0.690   9.685   4.203 -0.0917  0.2808 -0.0115
16999W        W32616   2.069   2.418   3.774  0.1462  0.2724 -0.0195
17000W        W32617  14.695  16.988  12.315  0.0868  0.0402  0.0536
17001W        W32618   5.462   5.814   1.147  0.2236  0.1288 -0.1245
17002W        W32619   9.195  17.328   4.453 -0.0845 -0.2370 -0.2851
17003W        W32620  12.040  12.683  14.674 -0.0851  0.0599 -0.1093
17004W        W32621  15.288   2.591   0.195  0.1832  0.1296  0.1975
17005W        W32622  12.820   6.267   2.517 -0.4125  0.1396  0.0726
17006W        W32623  13.142  16.794  15.614  0.0049  0.3196  0.2430
17007W        W32624   7.548  11.250   5.391 -0.1053  0.2342  0.0904
17008W        W32625   8.990   0.397  15.945  0.0293 -0.0309 -0.1550
17009W        W32626   9.238   3.241  10.647  0.1733  0.0691 -0.0348
17010W        W32627  16.087   8.047   5.066  0.2786 -0.0163 -0.2502
17011W        W32628   6.573   9.264  11.071 -0.0018 -0.1691 -0.0078
17012W        W32629   9.393   1.712   2.793 -0.1747  0.0897 -0.1172
17013W        W32630  17.858  15.156  11.288 -0.1030  0.1250 -0.0022
17014W        W32631  12.037   5.812   4.897  0.2365 -0.0314  0.0064
17015W        W32632   0.666   6.605   3.006 -0.2934  0.2801  0.2850
17016W        W32633  13.847  11.528   3.177  0.0756 -0.1112 -0.0672
17017W        W32634  17.060   9.378  11.175 -0.3644 -0.2971  0.1288
17018W        W32635   7.839   0.577  13.685 -0.1211  0.2280  0.0986
17019W        W32636   4.980  10.025  14.553  0.3621  0.2363 -0.3495
17020W        W32637  12.020   7.708   9.745 -0.1769  0.2463  0.2136
17021W        W32638  11.804   0.208   5.275  0.0763  0.0693 -0.0146
17022W        W32639  10.523   3.401   1.550 -0.1523  0.1140  0.0421
17023W        W32640   3.405  15.884   4.162  0.0708  0.4162 -0.0759
17024W        W32641   2.868   2.743  13.975  0.2677 -0.1120  0.0828
17025W        W32642  15.642   1.465  12.226  0.1302  0.2272 -0.2457
17026W        W32643   4.023   4.786   9.737 -0.3339 -0.1208  0.2690
17027W        W32644   9.877   5.722   2.874 -0.2933 -0.4437  0.4721
17028W        W32645  16.348   5.171  15.523  0.0579  0.2399  0.4529
17029W        W32646   9.613  12.070  15.118 -0.0989 -0.0176  0.0533
17030W        W32647   4.158   3.164   3.714  0.0879  0.0524  0.2034
17031W        W32648  10.385  17.188  14.326  0.0538 -0.0554 -0.1962
17032W        W32649  16.907  16.405  10.136 -0.4124 -0.0569 -0.3059
17033W        W32650   8.763   7.937   1.764 -0.0688 -0.1358 -0.1539
17034W        W32651  15.137   5.364  12.393  0.0213  0.0073  0.2050
17035W        W32652  15.928   6.279  12.508 -0.0623 -0.1824 -0.1940
17036W        W32653  13.652  14.983  15.061 -0.0925  0.0850 -0.2904
17037W        W32654   1.437   3.227  11.700 -0.1742 -0.0269  0.0930
17038W        W32655   0.588   6.471   1.107 -0.0367  0.2344  0.1845
17039W        W32656  16.664   0.124  14.633 -0.0295  0.1604 -0.1821
17040W        W32657  11.052  11.682   3.668  0.2343 -0.0579  0.1531
17041W        W32658  11.909   4.803   4.346  0.1081 -0.1039  0.0981
17042W        W32659  12.684   4.913   0.959  0.0823 -0.3681  0.1961
17043W        W32660   6.093   9.329  11.288 -0.0854 -0.1068  0.1004
17044W        W32661   3.507   9.191   4.376  0.0816  0.0686  0.1982
17045W        W32662   9.770  15.523   2.524  0.1055  0.0774  0.2233
17046W        W32663   4.351  10.334   3.725 -0.2406  0.1620 -0.0651
17047W        W32664  15.786   2.481   1.947  0.0678 -0.0356 -0.2583
17048W        W32665  12.997   9.088  15.402 -0.5045 -0.0302  0.1357
17049W        W32666  18.440   5.685  11.922 -0.0641 -0.1911  0.3144
17050W        W32667   9.708   2.011   5.814  0.3770  0.2299  0.1150
17051W        W32668   3.648   1.914   2.390 -0.0817 -0.0075 -0.1650
17052W        W32669  14.247   1.843  11.679 -0.3651 -0.0880  0.0420
17053W        W32670   8.412   4.732  12.379 -0.0324  0.0820  0.1567
17054W        W32671  13.148  12.046  12.009  0.0544  0.2126 -0.1331
17055W        W32672   4.239   4.126  11.796 -0.3663 -0.0591 -0.1836
17056W        W32673  14.104   8.170  13.386  0.0704  0.0046  0.1903
17057W        W32674  16.607  13.582   4.415  0.2285 -0.3568 -0.1695
17058W        W32675  16.326   7.198  15.110  0.4078  0.0546  0.1208
17059W        W32676   6.364   5.456   3.893 -0.1353 -0.1686 -0.1901
17060W        W32677   2.282   2.610   0.293  0.0444 -0.0249  0.0586
17061W        W32678   1.849   5.373  13.712  0.3451 -0.0174 -0.0777
17062W        W32679  14.032   3.538  12.930  0.2059 -0.2829  0.0252
17063W        W32680  13.410  11.650   0.814  0.1327 -0.1266  0.0839
17064W        W32681  15.118   5.157  14.446  0.0596 -0.2556 -0.2368
17065W        W32682   5.012  10.251  12.557  0.1182  0.0240  0.0439
17066W        W32683   7.666  10.750   5.216 -0.2005  0.1158 -0.2512
17067W        W32684  12.554   1.344  15.447  0.0696 -0.0833  0.0885
17068W        W32685  11.676  12.885   6.745 -0.1215 -0.1583  0.2071
17069W        W32686  16.198  15.314   2.624 -0.0466 -0.4481 -0.0040
17070W        W32687   5.436   9.815   1.387 -0.1230 -0.4022 -0.0869
17071W        W32688   9.058   2.883  11.011  0.1459 -0.0008 -0.0881
17072W        W32689   9.063  11.095   0.219 -0.2223  0.2611 -0.1874
17073W        W32690  10.572  13.364  14.875  0.2723  0.0161  0.0700
17074W        W32691   5.138   5.702   0.274  0.3011 -0.2880 -0.2294
17075W        W32692   7.266   7.296  13.476 -0.1304 -0.3842  0.0990
17076W        W32693  16.041   5.123   1.086  0.0785 -0.2649  0.0767
17077W        W32694   4.633  15.880  15.951  0.2846 -0.0413  0.1766
17078W        W32695   0.920   0.328   4.907  0.2805  0.3028 -0.3310
17079W        W32696  11.404   4.360   1.252  0.0365 -0.0642  0.0941
17080W        W32697   0.796  10.547  13.097 -0.2657  0.1678 -0.1207
17081W        W32698  11.938  11.873  14.508 -0.0698 -0.2537 -0.2161
17082W        W32699  16.379   9.309  11.440  0.2816  0.3681 -0.1704
17083W        W32700   6.550  13.037   2.321  0.0268  0.0114  0.5999
17084W        W32701   8.150   7.734   4.866 -0.1178 -0.0157  0.2431
17085W        W32702   2.236   9.283  11.555 -0.0096  0.0937 -0.2836
17086W        W32703   2.799   2.662   0.434 -0.1947 -0.3854 -0.0686
17087W        W32704   2.638  11.107  14.372  0.0620 -0.0849 -0.1741
17088W        W32705   7.293  17.003   5.151  0.0633 -0.0956  0.1488
17089W        W32706   3.166  11.482  15.806 -0.2150 -0.0869 -0.0301
17090W        W32707  12.698  15.019  14.825  0.1077  0.0209  0.1291
17091W        W32708   4.405   1.632  11.860 -0.0228  0.0175 -0.2865
17092W        W32709   5.712   4.329   0.606  0.0703 -0.1227  0.1495
17093W        W32710  11.989  10.454   9.928  0.2454  0.0543  0.2153
17094W        W32711   1.798   1.372   3.448  0.0804  0.2002 -0.1400
17095W        W32712   4.952   1.490   4.905 -0.1054  0.0355 -0.0370
17096W        W32713  13.415  13.417  16.002 -0.1257  0.2713  0.0813
17097W        W32714  14.761   1.016   3.375  0.1810 -0.1703 -0.1651
17098W        W32715   7.988   9.298  11.323 -0.0737 -0.0895 -0.1914
17099W        W32716   6.175   5.835  12.322  0.1276  0.2964  0.0406
17100W        W32717  11.295   6.320  15.030 -0.3037 -0.0329  0.1344
17101W        W32718  12.743   7.678   2.681 -0.0947  0.0342  0.1069
17102W        W32719  10.446  11.918   4.153 -0.3269 -0.0734  0.4447
17103W        W32720  17.712  13.408  12.917 -0.0060 -0.0701  0.2020
17104W        W32721  18.054   4.080  13.977 -0.2422  0.0946  0.1320
17105W        W32722   0.145   4.225  13.730 -0.0611 -0.3565  0.0461
17106W        W32723  11.966   5.264  12.637  0.3360 -0.0903 -0.1079
17107W        W32724   7.533   5.195   5.595  0.0943 -0.3634  0.0599
17108W        W32725  13.067  13.522   5.622 -0.1835  0.1128 -0.0530
17109W        W32726   3.088   8.530  12.944 -0.0034 -0.0427 -0.3013
17110W        W32727  16.662  11.364   3.800  0.4038  0.0307  0.0724
17111W        W32728  13.222   9.564  15.501 -0.0212 -0.0024 -0.0240
17112W        W32729   7.348   7.610  15.866 -0.0367  0.1221  0.1239
17113W        W32730  15.317  16.301  10.864  0.0168  0.0603 -0.2284
17114W        W32731  12.157   0.173  10.823  0.1425 -0.0376  0.2067
17115W        W32732   8.111   5.493   3.147  0.0247 -0.0582  0.3582
17116W        W32733  10.566  15.980  14.449  0.0773  0.1706 -0.0238
17117W        W32734  14.488  10.374   5.355 -0.0067 -0.1252  0.3731
17118W        W32735  16.397  16.786   0.863 -0.1368  0.2140  0.4101
17119W        W32736   8.280  14.211  12.550 -0.0731  0.0301 -0.1281
17120W        W32737   8.245  16.085   4.058 -0.1015  0.0673  0.2599
17121W        W32738  10.400   7.395  12.808 -0.2422  0.1153 -0.1905
17122W        W32739   7.136   2.193   1.104  0.0144 -0.4239 -0.1496
17123W        W32740   5.182   4.617   4.800 -0.3734 -0.1692  0.1093
17124W        W32741  11.585  15.769   5.490 -0.1037  0.1058 -0.1021
17125W        W32742  15.386   3.898   0.668  0.0581  0.0121 -0.4455
17126W        W32743   6.948  15.507  15.672 -0.0554  0.0753  0.0480
17127W        W32744  13.332   0.549  13.945 -0.2890 -0.1084 -0.1167
17128W        W32745   2.701   8.618   5.333  0.2539  0.1838  0.4636
17129W        W32746  18.128  16.352   4.178  0.0965 -0.1833 -0.2902
17130W        W32747  16.254  18.086   4.130  0.2009 -0.0587  0.0435
17131W        W32748   4.381   1.339   4.001 -0.1435 -0.0129  0.0586
17132W        W32749   5.834   3.170  11.557 -0.0021  0.0367 -0.0644
17133W        W32750  14.155   2.773  11.985 -0.2186 -0.0526 -0.0650
17134W        W32751  14.001   3.044  12.913 -0.0694 -0.3000  0.1418
17135W        W32752  17.559  12.016  15.603  0.0017  0.0349  0.2282
17136W        W32753   6.755  14.851   5.983  0.0967 -0.0070  0.2664
17137W        W32754  17.993  15.012  13.139  0.3845 -0.0860 -0.0512
17138W        W32755  16.574  16.886  11.288 -0.0762 -0.1216 -0.1291
17139W        W32756   8.337   8.108   1.516  0.2670 -0.0701  0.2484
17140W        W32757   7.377   9.382   2.745  0.1250  0.1547 -0.1657
17141W        W32758  14.440  11.930   4.502  0.1033 -0.1144 -0.0709
17142W        W32759  10.221   4.679   5.018  0.0811 -0.0943  0.2235
17143W        W32760   3.354  18.388   5.700  0.3037  0.0407 -0.0567
17144W        W32761   2.686   3.486  12.896 -0.2366 -0.0244  0.0976
17145W        W32762  14.755   9.413  13.927 -0.0054  0.2189 -0.1646
17146W        W32763  10.935   2.096   3.015 -0.0047  0.2031  0.3562
17147W        W32764  16.580  14.396   1.944  0.0627 -0.0471  0.0826
17148W        W32765   4.758  18.060   5.419  0.2178 -0.1267  0.0061
17149W        W32766   7.258   1.781  11.986  0.3427 -0.2056 -0.2231
17150W        W32767   9.106   3.897   1.637  0.0280  0.1124 -0.2150
17151W        W32768  10.273   3.874   2.397 -0.0473  0.2354 -0.0891
17152W        W32769   7.909   3.912   1.226  0.0327  0.0820  0.0639
17153W        W32770   1.929  13.731  15.236 -0.1615  0.1841 -0.0590
17154W        W32771   8.900   6.558  15.040  0.1461 -0.1034 -0.0982
17155W        W32772   5.370  18.282   1.811 -0.2223  0.3367  0.2120
17156W        W32773   7.036   7.903  15.515 -0.2616  0.5548 -0.2126
17157W        W32774   3.555   2.541  14.497 -0.0900 -0.4672 -0.1224
17158W        W32775  13.934  15.053   5.379  0.0304  0.3400  0.0683
17159W        W32776   0.918  15.690   3.447 -0.2511 -0.0711 -0.1196
17160W        W32777   1.676  13.345   0.228  0.0733  0.3630 -0.1038
17161W        W32778   3.006  13.398   4.653  0.1363  0.0849 -0.1749
17162W        W32779   3.994  17.566  12.940  0.2409 -0.0931 -0.1033
17163W        W32780  13.146   1.952  13.941  0.0041  0.2485 -0.4247
17164W        W32781   4.544   1.028  14.632 -0.0082  0.0569 -0.0226
17165W        W32782  12.484   0.605  12.904 -0.0231  0.0614  0.2088
17166W        W32783  18.202   1.374   4.899 -0.0783  0.2403 -0.1017
17167W        W32784  16.873  14.313   3.913 -0.0515 -0.4400  0.1074
17168W        W32785  15.940   0.820  15.293  0.0988  0.3487 -0.1454
17169W        W32786   2.062   3.564  12.485  0.2095 -0.4683  0.1432
17170W        W32787   2.829  17.113  15.144 -0.3995 -0.0536  0.0025
17171W        W32788   1.722   7.174   4.432 -0.2508  0.0310 -0.1278
17172W        W32789   4.752   1.734   3.979 -0.1262  0.0957  0.1961
17173W        W32790   6.221   3.083   5.501  0.1364  0.0970  0.2529
17174W        W32791   4.718   6.019  12.690  0.2455 -0.1570  0.0330
17175W        W32792  16.832  16.166   4.506  0.0359  0.0163  0.2393
17176W        W32793  14.820   7.013   1.288 -0.0164  0.1666  0.0156
17177W        W32794  15.061   6.473  15.015  0.1113  0.2555 -0.2549
17178W        W32795   5.609  10.726  12.563 -0.3274  0.0412 -0.0986
17179W        W32796  11.727   3.986  10.934 -0.1489  0.1090  0.3063
17180W        W32797   1.509  18.163   6.174  0.1049 -0.1548  0.2026
17181W        W32798   5.332   6.354   1.142  0.0319 -0.0904  0.2152
17182W        W32799   1.143  12.097   5.014  0.0124  0.2564  0.1100
17183W        W32800  17.278  10.111   0.105 -0.0340 -0.0835  0.0781
17184W        W32801  17.485   3.191   1.159  0.1069  0.0633 -0.0345
17185W        W32802  11.733   2.307  14.701 -0.2084 -0.1830  0.1354
17186W        W32803   3.378   0.230   2.452  0.1138 -0.0532  0.2061
17187W        W32804  17.398   6.164  11.220 -0.0499 -0.1184 -0.2144
17188W        W32805  15.534  13.723  15.776 -0.0604  0.2158  0.2534
17189W        W32806   1.803   7.054   2.168 -0.2381  0.0224 -0.1149
17190W        W32807   2.290   4.443   6.203  0.1485  0.0308  0.1031
17191W        W32808   2.496   5.476   1.870  0.1134  0.1405 -0.0658
17192W        W32809   4.430   7.479   4.934 -0.2193  0.0290 -0.0554
17193W        W32810   2.650  13.775   1.370  0.2328 -0.1634  0.1629
17194W        W32811   2.498   7.188   2.118 -0.0350  0.1360 -0.2513
17195W        W32812   8.481  17.749  15.966  0.2256  0.1191  0.3256
17196W        W32813   0.635   6.831  12.352  0.0636  0.2332 -0.2221
17197W        W32814  11.711   8.792  10.919  0.0790  0.0786 -0.0939
17198W        W32815  11.331   1.829  11.233 -0.1214 -0.1142 -0.1427
17199W        W32816   4.286   2.639  11.596 -0.1183 -0.0164  0.1213
17200W        W32817   6.402   9.950   1.755  0.1580  0.5029 -0.1453
17201W        W32818  15.003   2.483   3.545 -0.1455 -0.2253 -0.2043
17202W        W32819  15.063   6.770   1.701  0.3474 -0.2295  0.1649
17203W        W32820  10.886  14.880  16.027  0.1720  0.3595 -0.0262
17204W        W32821  14.075  10.353  14.136 -0.0852 -0.0673 -0.0890
17205W        W32822   4.351   9.522   1.927  0.0963  0.0536  0.2347
17206W        W32823   4.963   1.781  14.530  0.1380 -0.1454 -0.1015
17207W        W32824  12.600  16.878  14.611 -0.0683  0.0553  0.0606
17208W        W32825   5.900   6.473   4.529 -0.1255  0.1906 -0.1926
17209W        W32826   3.030   6.144  15.503  0.2565 -0.1533 -0.2060
17210W        W32827   1.783   1.061   1.570 -0.2742  0.0153 -0.3948
17211W        W32828  12.997  11.497  12.034  0.1942  0.1982 -0.0178
17212W        W32829  15.089   9.862  13.492  0.1426  0.1469  0.0796
17213W        W32830   5.045  10.984   1.389 -0.1150  0.0754  0.3630
17214W        W32831   9.405  11.168   2.842  0.2777 -0.0751 -0.1093
17215W        W32832   3.971   1.844  11.742  0.0090  0.0443  0.1049
17216W        W32833  14.183  15.042  13.571  0.1336 -0.0765  0.0115
17217W        W32834   3.106   0.907  16.095 -0.4650 -0.1014  0.4760
17218W        W32835   2.881   7.952  12.002 -0.0057 -0.1573 -0.0366
17219W        W32836   9.017   0.494   2.582  0.3762 -0.3313  0.3915
17220W        W32837  11.407   0.267  16.046 -0.4293 -0.0987 -0.1227
17221W        W32838   0.724   0.597  13.193 -0.1900  0.0588 -0.1876
17222W        W32839   8.573   8.321   5.901 -0.0762 -0.1241  0.1305
17223W        W32840  13.208   6.520  13.499 -0.1187  0.1076  0.0106
17224W        W32841  15.961  11.598  11.621 -0.0862 -0.0029 -0.2460
17225W        W32842   4.927   9.824   4.083  0.0492  0.0213 -0.1618
17226W        W32843   6.906   7.082  11.565 -0.3715  0.3486  0.1797
17227W        W32844  15.458  14.644   2.840 -0.1126  0.1293 -0.0681
17228W        W32845  11.486  11.669   1.117 -0.0761  0.0197 -0.1244
17229W        W32846  16.932   4.151  14.634  0.0351  0.3510  0.0394
17230W        W32847  18.254  18.340   2.289  0.1875 -0.1117 -0.0301
17231W        W32848   8.961   6.869  14.596 -0.2080  0.3622 -0.2335
17232W        W32849   7.886   8.644   1.637 -0.1208  0.1398  0.3549
17233W        W32850  10.778   0.822   2.215 -0.0253  0.1498  0.2476
17234W        W32851  17.466  12.426   4.925  0.0619  0.1239  0.0806
17235W        W32852   3.376   1.238   2.359  0.2309  0.0073 -0.1609
17236W        W32853  15.386  10.435   0.173  0.1196 -0.3411  0.4479
17237W        W32854  15.702   1.966   4.316 -0.3091  0.1857 -0.2180
17238W        W32855  14.062  17.746   0.245 -0.1496  0.0093  0.0222
17239W        W32856   5.534   8.741  14.971  0.2640  0.2468  0.1080
17240W        W32857   5.828   3.483  15.889 -0.0322  0.0538 -0.1410
17241W        W32858   7.487  17.282  12.855  0.1615 -0.1557 -0.1761
17242W        W32859   8.479   9.349  10.984  0.1410  0.1533  0.1297
17243W        W32860  18.208  14.837   2.792  0.0178 -0.1002  0.1147
17244W        W32861  16.272   7.010   4.048  0.2299 -0.1333 -0.0181
17245W        W32862  11.429   4.278   3.989  0.2304 -0.0164 -0.0483
17246W        W32863   7.160   5.715  14.099  0.1558 -0.3396 -0.3212
17247W        W32864   8.435   9.705  14.368  0.0138  0.0389 -0.2232
17248W        W32865  17.015  14.295  15.111 -0.0793  0.0525  0.2520
17249W        W32866  17.606   3.527   1.583 -0.0272  0.0445 -0.0833
17250W        W32867   2.165  16.833  14.943  0.0925  0.0953 -0.2204
17251W        W32868   1.996   2.536   2.598 -0.2508 -0.1629 -0.1935
17252W        W32869   5.275   3.865   0.889 -0.0029 -0.3996  0.2966
17253W        W32870   3.549  15.810  13.688 -0.2390 -0.1157  0.0107
17254W        W32871  11.743  17.235   5.657 -0.1979  0.3134  0.3499
17255W        W32872  17.098   1.325  10.447  0.0501  0.0916  0.0055
17256W        W32873  18.247  18.103   0.137  0.1660  0.1563 -0.1590
17257W        W32874   3.660  17.046  12.845 -0.0663 -0.2784 -0.0264
17258W        W32875  12.669   8.525  11.892  0.0483  0.4111  0.1246
17259W        W32876   0.604   0.835  15.851  0.0811 -0.3686 -0.1297
17260W        W32877  16.441  16.333   4.793  0.1193  0.2235 -0.5827
17261W        W32878  13.813  15.130  15.591 -0.0398 -0.3209 -0.0889
17262W        W32879  12.169  16.633  14.699 -0.1269 -0.1181  0.5742
17263W        W32880  16.541   8.908  13.180  0.0680 -0.0047  0.0694
17264W        W32881   4.833  13.806   5.812  0.1876  0.2803 -0.1536
17265W        W32882   1.730   9.060   0.211 -0.1548  0.0566  0.1614
17266W        W32883  12.294   7.268  15.953  0.0812  0.2943  0.2161
17267W        W32884  12.305  11.355   4.594 -0.0244 -0.2613 -0.3294
17268W        W32885  10.997  14.927   0.370 -0.0095  0.1905 -0.4957
17269W        W32886   4.944   2.446  12.319  0.0935 -0.2602  0.1756
17270W        W32887   6.931  13.164   3.882  0.0178  0.0289  0.1443
17271W        W32888  13.786  10.038   1.817  0.0319  0.0407 -0.1659
17272W        W32889  11.688  13.084   4.875 -0.0871 -0.2346  0.2872
17273W        W32890  18.037   1.573  15.000 -0.2768  0.0542 -0.0374
17274W        W32891  17.892   9.176  13.786  0.1847  0.1441 -0.0058
17275W        W32892   2.991   3.513   2.325 -0.0009 -0.2363 -0.0620
17276W        W32893  14.676   9.294   0.413  0.1665  0.2526 -0.0710
17277W        W32894   6.360   4.908   1.249  0.0911 -0.3165 -0.4880
17278W        W32895   1.454   5.112   2.714 -0.2460  0.0819 -0.0358
17279W        W32896   1.314   0.930  12.196  0.3632 -0.1330  0.1482
17280W        W32897  10.016   8.699   2.167  0.3651 -0.5212 -0.3823
17281W        W32898   1.448  11.724   5.168  0.0879  0.1531  0.3419
17282W        W32899  12.379   3.315   3.971 -0.1040  0.2577  0.0766
17283W        W32900  12.364   6.175  15.140 -0.0113  0.0632  0.4202
17284W        W32901  16.510   1.259   2.506  0.0890  0.3658  0.0816
17285W        W32902   9.309   9.303  13.269 -0.0873 -0.0344  0.1815
17286W        W32903   5.074  15.100  15.730 -0.0368  0.0636  0.0798
17287W        W32904   6.490  15.657   2.205  0.4009 -0.1728  0.2514
17288W        W32905  15.389  10.624  12.381  0.1420 -0.3624  0.0079
17289W        W32906  13.606   9.923  13.451 -0.0160  0.1872  0.1109
17290W        W32907   4.643  13.069  14.124  0.0906  0.0241  0.0903
17291W        W32908   0.327   9.994  15.112  0.0440 -0.1117 -0.2515
17292W        W32909   9.582  10.154  14.054  0.1703  0.0298 -0.2020
17293W        W32910  12.783   5.161   2.314 -0.1856 -0.3031  0.0702
17294W        W32911   8.233   1.869   4.649  0.2987 -0.1983  0.0125
17295W        W32912   9.402   4.091   4.427  0.1067  0.4724  0.1195
17296W        W32913   5.495   3.995  15.064  0.1127 -0.0885  0.0957
17297W        W32914   9.282  10.228  15.421 -0.2250 -0.1370 -0.1063
17298W        W32915   4.360  10.146   0.412 -0.1422  0.1551  0.2091
17299W        W32916   4.614  16.530  11.701  0.2017 -0.1059 -0.1274
17300W        W32917   3.961   1.704   5.374  0.1992 -0.0031 -0.0548
17301W        W32918   3.131   6.714   1.626 -0.2664 -0.1481 -0.3720
17302W        W32919  15.953  12.218  12.019 -0.1372  0.1026 -0.1761
17303W        W32920  15.378   7.277  13.559  0.1407  0.0289 -0.2108
17304W        W32921  13.916   2.829  12.430 -0.6709 -0.0733  0.0504
17305W        W32922  12.519  14.712  13.025  0.2115 -0.2133  0.1085
17306W        W32923  15.832   7.986  15.340  0.0670 -0.2007  0.0041
17307W        W32924   3.860   2.419   0.668 -0.1182 -0.0699  0.0741
17308W        W32925  13.549   2.960  14.828  0.2913  0.1857 -0.0814
17309W        W32926   8.810   1.128  14.874 -0.1049 -0.0683 -0.2446
17310W        W32927  16.150   2.084   0.191 -0.0797  0.1423  0.0971
17311W        W32928   6.528  14.774   2.439 -0.0747 -0.1265  0.2756
17312W        W32929   4.710   1.463   3.092  0.0348  0.0925  0.0781
17313W        W32930   7.606   6.323  13.801  0.1635  0.0707  0.0351
17314W        W32931   8.251   0.341  14.496  0.0720  0.3365 -0.0039
17315W        W32932  12.846  17.972   1.337 -0.0468  0.2480 -0.1911
17316W        W32933  10.053   3.507   1.650  0.0460  0.0850  0.0866
17317W        W32934   6.585  12.588   1.779  0.2442  0.4334  0.1291
17318W        W32935  16.629   8.533  14.342  0.1503 -0.0837 -0.1339
17319W        W32936   2.190   3.437   4.583 -0.2597  0.1506 -0.2219
17320W        W32937   9.859   3.168   3.620  0.1272  0.1948 -0.1177
17321W        W32938   8.253  17.665   0.341  0.3585 -0.0080  0.3104
17322W        W32939  18.426   8.502  16.038 -0.0095  0.0053  0.0097
17323W        W32940  10.849  16.582   0.633  0.0859 -0.1594 -0.0347
17324W        W32941   2.910   2.715   1.072 -0.2087 -0.3150  0.2813
17325W        W32942  15.543  16.718  11.080 -0.2420  0.0689 -0.1836
17326W        W32943   9.840   0.630   4.940  0.0434 -0.1821 -0.0209
17327W        W32944   9.838  12.878  15.066  0.1752  0.2324  0.1986
17328W        W32945   7.098   4.091   0.164  0.1180  0.0794 -0.3299
17329W        W32946  15.012   4.733   5.545  0.1680  0.0260 -0.0306
17330W        W32947  16.921  16.705   5.510 -0.0312  0.1834 -0.2587
17331W        W32948   2.692   4.973   5.020 -0.1404 -0.0099 -0.1502
17332W        W32949  14.187   5.512  13.287 -0.1173  0.2061 -0.0067
17333W        W32950   8.804   1.520  13.971  0.0398  0.0198  0.1499
17334W        W32951   3.519   7.951   0.402  0.4505 -0.2476 -0.1321
17335W        W32952  13.253   2.375   4.477  0.2340 -0.2665 -0.0741
17336W        W32953   1.203   7.322  10.650 -0.1202  0.2167 -0.1739
17337W        W32954  11.134   4.959   2.429 -0.1883  0.0555 -0.1456
17338W        W32955  16.635  15.223  12.186  0.0930  0.0491  0.1036
17339W        W32956   0.123   4.659   2.183 -0.1041  0.1697 -0.0582
17340W        W32957  10.166   1.987   3.387  0.1808  0.2866 -0.2444
17341W        W32958   9.385   7.535  13.206 -0.0548 -0.0477 -0.1863
17342W        W32959   0.841  12.162   2.457  0.3582  0.0159 -0.1907
17343W        W32960   3.897   0.215   1.640  0.2246 -0.0256  0.2853
17344W        W32961   4.637   4.210   1.424  0.1425  0.1404 -0.5504
17345W        W32962   1.811  17.552  14.653 -0.2862  0.0077 -0.4072
17346W        W32963  14.089   6.747  12.551 -0.1011 -0.0251  0.0510
17347W        W32964   7.220   4.294  13.640  0.0345 -0.2161 -0.3094
17348W        W32965  16.052  13.561   5.615  0.2261  0.0782  0.3208
17349W        W32966   5.007  16.644  15.807  0.2834 -0.1501  0.1893
17350W        W32967  17.235   1.092   4.236 -0.2078 -0.1500 -0.1152
17351W        W32968  17.824   7.305  11.338  0.1182  0.1531  0.2035
17352W        W32969  10.854  15.421   3.975 -0.1064 -0.2305  0.3066
17353W        W32970  16.183   4.772   5.616  0.3003  0.1011  0.2362
17354W        W32971  16.106   0.947   0.797 -0.2809  0.0109 -0.0010
17355W        W32972   5.616  14.879   1.881  0.1624 -0.0436 -0.2074
17356W        W32973   6.660   0.965  15.927 -0.0131  0.1999 -0.0870
17357W        W32974  12.526   7.153   0.963  0.2191  0.0796  0.1066
17358W        W32975  15.883   7.974   2.422 -0.0409 -0.1031  0.2702
17359W        W32976   8.940   0.418  10.537 -0.0094  0.1464 -0.1257
17360W        W32977   1.071   2.349   4.872  0.3643  0.2830 -0.3887
17361W        W32978  15.489   4.072  11.258 -0.1631 -0.0428 -0.1646
17362W        W32979   1.080   3.557  13.630 -0.0056  0.1381  0.2169
17363W        W32980  17.590   9.983  14.268 -0.2238 -0.0581 -0.0379
17364W        W32981   2.243   7.232  12.651  0.1234  0.1170  0.1036
17365W        W32982  17.232  16.054   1.574 -0.2870  0.1881 -0.0354
17366W        W32983   1.727  11.002   1.150  0.1586 -0.0906 -0.0981
17367W        W32984  13.550   5.238   2.851  0.1304  0.2155 -0.0445
17368W        W32985  14.649   6.701  10.932 -0.2274  0.1771  0.3030
17369W        W32986   6.582   3.618  15.469 -0.0123  0.0372 -0.0458
17370W        W32987   0.332  15.687   2.729 -0.1867  0.0243 -0.2272
17371W        W32988  12.507   9.576   5.941 -0.3988 -0.6019 -0.0074
17372W        W32989  12.608   5.527   1.975  0.0869  0.0868  0.1334
17373W        W32990   6.351  15.798  14.014 -0.0351 -0.2436  0.2373
17374W        W32991   2.727  11.895   0.023  0.2037 -0.2820 -0.1628
17375W        W32992  15.167  13.839   0.478 -0.1716  0.0606  0.1029
17376W        W32993   7.295  17.825  12.602  0.0371  0.0988 -0.1147
17377W        W32994  17.731   8.514  10.584 -0.1281 -0.0273  0.1476
17378W        W32995  14.559  18.339  15.918  0.1309  0.2644 -0.0892
17379W        W32996  13.659   2.607  12.062  0.0175  0.2799  0.1545
17380W        W32997   1.989   3.541   2.372  0.0586 -0.0245 -0.0295
17381W        W32998  14.436   3.337   3.864 -0.1614  0.1963 -0.0407
17382W        W32999  14.665   2.773   4.333 -0.0289  0.1973  0.4900
17383W        W33000   4.286  13.166  12.228  0.1882  0.2540  0.1989
17384W        W33001  16.913  17.486   5.101  0.0060  0.0174 -0.4178
17385W        W33002   8.739   8.310  13.563 -0.1168 -0.0067 -0.0756
17386W        W33003  18.329   9.854   3.851 -0.3903  0.1884 -0.1052
17387W        W33004  18.343   8.202   0.449 -0.0890  0.3720 -0.1776
17388W        W33005   4.448   1.819   5.300 -0.1233 -0.0776  0.1487
17389W        W33006   1.719   6.439  15.649  0.0772 -0.0455 -0.0232
17390W        W33007  14.724   5.854   5.223  0.0269 -0.0926 -0.0907
17391W        W33008   9.029  12.867  13.626  0.2336 -0.4086  0.0064
17392W        W33009   3.567   7.451   0.391  0.2117  0.0689  0.0721
17393W        W33010   8.500   2.376   1.206  0.1123 -0.0694  0.0305
17394W        W33011  14.296  15.954  15.869  0.2690  0.0482  0.1597
17395W        W33012  12.073   9.375   4.943 -0.1798  0.2396 -0.0474
17396W        W33013   1.929  12.994   3.771 -0.3990 -0.0385  0.0328
17397W        W33014   5.759   5.080  10.582 -0.2253  0.0401  0.0642
17398W        W33015   0.180   6.146  11.801 -0.0786 -0.0358  0.0683
17399W        W33016  12.200  15.436   5.477  0.3614 -0.1480  0.1492
17400W        W33017  16.345   9.271   5.662 -0.2863 -0.1078  0.2807
17401W        W33018  15.259   2.569  11.993 -0.1262 -0.0367  0.0698
17402W        W33019   5.805   4.423   3.320 -0.1656  0.2788 -0.0985
17403W        W33020  11.323   5.303  14.348  0.0579  0.0404  0.0215
17404W        W33021   3.726   0.497  14.382 -0.0836  0.1063 -0.1189
17405W        W33022  16.272  16.419   1.554 -0.0603  0.1935  0.0991
17406W        W33023   1.080  15.377  12.317 -0.1218 -0.0857 -0.1065
17407W        W33024   2.168  18.261  13.198  0.0126  0.0628  0.0995
17408W        W33025  18.269  14.390   6.493  0.0978  0.0709  0.0833
17409W        W33026  17.132  15.086  12.086 -0.0046 -0.1921  0.2270
17410W        W33027   4.946   7.561   9.708 -0.0758  0.4288  0.0155
17411W        W33028   2.656  12.959  13.044 -0.3842  0.4616  0.0762
17412W        W33029   1.248   6.385   4.981 -0.1488  0.1268  0.4266
17413W        W33030   7.091   7.169   4.326 -0.1749  0.0989 -0.0537
17414W        W33031   4.102   1.264  15.432  0.0757 -0.2865  0.0619
17415W        W33032  13.830   8.934   0.989 -0.1235  0.0847  0.0646
17416W        W33033  11.985  16.615  13.872 -0.0065 -0.2565 -0.0539
17417W        W33034  11.362  13.760   1.450 -0.0621  0.0561 -0.4159
17418W        W33035  10.756   7.974  11.495  0.0670  0.0824 -0.0386
17419W        W33036   9.351  10.417  12.349 -0.2894 -0.1105 -0.0204
17420W        W33037  18.114   2.488  15.229  0.1295  0.4676  0.3214
17421W        W33038   8.885  15.672  15.693 -0.4081 -0.0355 -0.1332
17422W        W33039   0.355  17.729   1.310 -0.4408  0.0153 -0.1208
17423W        W33040  11.912   4.638   5.993 -0.2062 -0.0473 -0.2450
17424W        W33041  10.954   3.616  16.105 -0.0020  0.3020  0.2089
17425W        W33042  12.238   2.162  12.751  0.1140 -0.0279 -0.0465
17426W        W33043   8.211  16.274  15.840  0.2024 -0.0311  0.3362
17427W        W33044   9.350  16.596  11.680 -0.0010 -0.1267 -0.0411
17428W        W33045  16.743   7.019  11.560  0.1444 -0.1021  0.0086
17429W        W33046  18.022   0.560   1.583  0.0804  0.1556  0.0315
17430W        W33047   0.956  13.149   4.173 -0.1753  0.2852  0.2358
17431W        W33048   7.697   1.705  12.742  0.2489  0.0612 -0.2395
17432W        W33049  10.267  12.796   3.701  0.1228 -0.0338  0.1584
17433W        W33050   9.606  18.291  10.948 -0.3670  0.0622  0.2456
17434W        W33051  10.651   8.833   0.543  0.0041  0.0139 -0.0129
17435W        W33052  18.245   0.924   5.086  0.1926 -0.2013 -0.0587
17436W        W33053  11.711   7.862   4.852 -0.1054  0.2619  0.1607
17437W        W33054  11.865   2.463   2.998 -0.0754  0.0109  0.0624
17438W        W33055   5.635  11.003  12.104 -0.2128 -0.2979 -0.1887
17439W        W33056  18.037  16.528   1.751 -0.1170 -0.2048 -0.0080
17440W        W33057  11.114   0.896   5.477 -0.0283  0.0222 -0.1146
17441W        W33058  10.629   3.740  11.110 -0.3532 -0.2313 -0.1509
17442W        W33059  12.615   2.826  15.887 -0.0607  0.1232 -0.0549
17443W        W33060   8.238  11.120   2.863  0.0178  0.0639 -0.1984
17444W        W33061   0.211   1.308  14.362 -0.0113 -0.1254  0.2117
17445W        W33062   6.473   5.384   2.714 -0.4488 -0.0646 -0.1304
17446W        W33063  17.491   3.133  14.355 -0.1926  0.0910  0.2453
17447W        W33064  16.260  16.116  15.286 -0.2339  0.0412  0.1652
17448W        W33065  16.886  10.354   4.514  0.1253  0.0757 -0.2644
17449W        W33066  13.353   2.669  10.861 -0.0345  0.0922 -0.1056
17450W        W33067   2.517   7.060  14.213  0.0137  0.0030 -0.3266
17451W        W33068   5.533  15.534  15.180  0.1584 -0.1044  0.4652
17452W        W33069  10.745  14.461  14.431 -0.1623 -0.1280 -0.0033
17453W        W33070   1.952   8.076   0.096  0.1141  0.1950  0.0157
17454W        W33071  10.325   7.494  14.108 -0.1336  0.0138 -0.1086
17455W        W33072  12.389  11.385   2.875  0.0713 -0.6309  0.2193
17456W        W33073   9.330  17.458  11.798 -0.2378  0.2753  0.0837
17457W        W33074  14.769   0.279  11.477  0.3213 -0.1423 -0.2489
17458W        W33075   5.804   1.188   4.245  0.2565 -0.2069  0.1662
17459W        W33076   3.311   0.311  11.368 -0.1157  0.2472  0.0097
17460W        W33077  12.463   0.457   3.351  0.1527  0.1282  0.2392
17461W        W33078   6.283   8.112   4.782  0.1015 -0.1288 -0.0639
17462W        W33079   2.866  17.234   4.680  0.2089  0.0750  0.2221
17463W        W33080   6.461   7.907   5.493 -0.0014  0.2653  0.1907
17464W        W33081  16.795  18.251  13.424  0.0853 -0.0198 -0.0207
17465W        W33082   4.938   2.484  11.031 -0.0490  0.0150  0.0850
17466W        W33083  18.373  15.167   4.730 -0.0986  0.1068  0.0416
17467W        W33084  13.817  15.629  11.708  0.0232 -0.0556  0.0346
17468W        W33085  14.121   5.757   0.130  0.0424  0.0040  0.4008
17469W        W33086  12.576   4.643   3.648 -0.2127 -0.1661 -0.4047
17470W        W33087  12.397  10.074   1.342  0.1829 -0.2117 -0.1397
17471W        W33088  14.031  17.309   4.926  0.2090 -0.2182 -0.0899
17472W        W33089   0.638   9.380   3.347  0.3176  0.0152  0.2245
17473W        W33090   7.148  14.650   1.652 -0.1145  0.0380 -0.2998
17474W        W33091  14.197  13.023  12.148 -0.4585  0.0377 -0.2574
17475W        W33092   6.228  11.254   2.247 -0.1628 -0.3740 -0.1564
17476W        W33093  10.045   6.063  15.007  0.2032  0.2800 -0.0022
17477W        W33094   3.118  17.997  15.905 -0.2150  0.1936 -0.0669
17478W        W33095  12.227  13.037  13.286  0.2681  0.1646 -0.2000
17479W        W33096  14.858   9.423  14.595 -0.0650 -0.0048 -0.0091
17480W        W33097   4.177   1.505   0.197 -0.1513 -0.1161 -0.2420
17481W        W33098  15.274   9.424  13.645 -0.2401  0.1311  0.3589
17482W        W33099  15.342   3.428   1.310 -0.0117  0.0865  0.2479
17483W        W33100  15.013   5.648  15.515  0.0419  0.2095  0.2166
17484W        W33101  11.176   6.475  14.595  0.0329 -0.3150 -0.0874
17485W        W33102   6.563   6.848   1.550  0.3784  0.0449 -0.0169
17486W        W33103  11.267  17.590   2.466 -0.2689  0.2483 -0.1654
17487W        W33104  10.758  17.527   5.653  0.0357  0.1006  0.2772
17488W        W33105   9.671  16.225  10.488  0.1038  0.3141  0.3954
17489W        W33106  18.007  10.568   0.030  0.1490 -0.0502  0.0754
17490W        W33107  15.609  15.817   0.431 -0.0348  0.1605  0.1511
17491W        W33108   5.928  15.489   0.971  0.1259 -0.2983  0.2187
17492W        W33109   3.610  10.912   2.572  0.0225 -0.0411 -0.2707
17493W        W33110   1.803   5.454  10.599  0.0691  0.0144  0.3722
17494W        W33111   0.764  18.215  15.853 -0.0800  0.1225  0.0359
17495W        W33112  13.169   8.262   0.572  0.1677  0.3893  0.2019
17496W        W33113  12.979   8.709  13.807 -0.1805  0.0828  0.0290
17497W        W33114  17.102   5.203   2.937 -0.0393 -0.0900 -0.0961
17498W        W33115  13.028   0.221  11.787  0.2141 -0.3210 -0.0907
17499W        W33116   4.676  15.635   0.315 -0.1299 -0.3028 -0.0017
17500W        W33117   5.818   6.319  15.101  0.0733 -0.0132  0.1047
17501W        W33118  14.886  13.427   3.996 -0.1613 -0.2356  0.1835
17502W        W33119   0.572  12.507   1.232 -0.0348  0.3082  0.3207
17503W        W33120  14.396   2.708  14.102  0.0516  0.0466  0.0735
17504W        W33121   6.355   5.082  11.983 -0.2449  0.0173  0.0340
17505W        W33122   1.834   9.033  11.844  0.0774  0.1866  0.1236
17506W        W33123   1.435  10.517   1.833 -0.2263  0.3116  0.3179
17507W        W33124  13.305   5.661   2.924 -0.4034  0.1179 -0.1033
17508W        W33125  14.981  10.931   1.091 -0.0817 -0.1906  0.1044
17509W        W33126  18.284   6.751   4.127  0.3510 -0.2122  0.3428
17510W        W33127  10.409  15.738  13.753  0.0227 -0.2411 -0.0498
17511W        W33128   5.975   7.560  14.076 -0.0191  0.2263 -0.1455
17512W        W33129   7.389   1.237   0.746  0.1328  0.0809 -0.0067
17513W        W33130  13.151   5.583   2.005  0.0848  0.0498 -0.0071
17514W        W33131   7.935   8.983  15.184 -0.0505 -0.1815 -0.2226
17515W        W33132  16.051   7.025  14.735  0.0667 -0.0524 -0.0635
17516W        W33133   8.167  11.119   1.168  0.0566 -0.1019 -0.1407
17517W        W33134  11.566  13.981  13.980  0.3164 -0.3693 -0.2215
17518W        W33135   5.364  12.661  15.452 -0.1325  0.0853 -0.1181
17519W        W33136   7.992   4.094  14.213 -0.2624 -0.0426 -0.2316
17520W        W33137  12.739  10.082   0.391  0.4683 -0.1189  0.1265
17521W        W33138   4.622  10.610   4.476 -0.1120  0.4305 -0.0320
17522W        W33139  15.565  16.792   5.021  0.0611 -0.3222  0.0154
17523W        W33140   9.986  10.751   5.618  0.3663  0.1263 -0.0769
17524W        W33141  17.415   2.534   5.912 -0.0568 -0.0807  0.1241
17525W        W33142   4.737   6.059   1.645 -0.2530 -0.2841 -0.0125
17526W        W33143   9.674   2.373  10.352  0.1821  0.2231  0.1862
17527W        W33144   8.380  12.407  15.960  0.0257  0.4254  0.0205
17528W        W33145  12.033   5.272   4.548 -0.2678 -0.3135  0.2007
17529W        W33146   8.874  13.090   0.030 -0.2040 -0.1648 -0.0774
17530W        W33147   9.723   5.457  12.303  0.1620 -0.0238 -0.3358
17531W        W33148  17.505  13.719  13.353  0.2788  0.1324  0.1841
17532W        W33149   0.706  13.992  14.373  0.0903  0.0340  0.0210
17533W        W33150   5.958   8.740   5.226  0.4060  0.1379  0.3420
17534W        W33151  14.173   6.318   5.927  0.2523 -0.1270  0.1039
17535W        W33152  17.178  12.054   5.044  0.0494  0.1688 -0.4450
17536W        W33153   7.694  11.017  14.924 -0.2227  0.3980  0.2105
17537W        W33154  13.105   5.978   9.958  0.1143 -0.1711 -0.0181
17538W        W33155   4.889   3.402  13.597 -0.1960  0.5930  0.0408
17539W        W33156   0.714   8.112  10.712 -0.3133 -0.2900 -0.0367
17540W        W33157   6.212  16.205  11.018 -0.0180 -0.0769 -0.3247
17541W        W33158   2.380  12.415  15.468 -0.2214  0.2789  0.0666
17542W        W33159   5.658   8.111   2.390 -0.2968  0.2281  0.1140
17543W        W33160  17.833   3.557  11.798  0.0023  0.2306 -0.2340
17544W        W33161  14.327  10.906  12.145 -0.2547  0.2512  0.1466
17545W        W33162   5.630  11.852  12.038 -0.2574 -0.1703 -0.2608
17546W        W33163  17.292   1.972   1.803  0.1117 -0.2409 -0.1775
17547W        W33164   1.878  16.020   0.364  0.1631  0.1329 -0.0314
17548W        W33165  12.897   3.488   3.847  0.1815 -0.0351  0.2144
17549W        W33166   8.492   2.956  15.365 -0.0223  0.0818  0.1044
17550W        W33167  15.237  12.161  15.749 -0.0679  0.0764  0.1722
17551W        W33168  18.351   5.658   9.959  0.0356 -0.4037  0.2233
17552W        W33169   7.174   4.123  14.163  0.1482 -0.0637 -0.0884
17553W        W33170   3.898   3.599   5.488  0.1332 -0.0166  0.3184
17554W        W33171   5.671   6.756   3.646  0.1288  0.1128  0.0870
17555W        W33172   8.047   6.997   0.748 -0.4094  0.0504  0.0889
17556W        W33173   3.270   3.775   3.855 -0.1248  0.5108  0.0002
17557W        W33174  16.447   2.963   3.212 -0.1166  0.2802 -0.2819
17558W        W33175  17.010  13.722   5.510 -0.3692 -0.2489 -0.0294
17559W        W33176  15.048   1.175   1.508  0.0294  0.1929 -0.2095
17560W        W33177   9.337   8.326   0.928  0.0826 -0.2057 -0.1420
17561W        W33178  15.107   8.990   3.339  0.5074  0.0973  0.1107
17562W        W33179   5.011   0.863   0.720 -0.0933 -0.1694 -0.3372
17563W        W33180   2.398   7.845  14.907  0.0945  0.1123 -0.1941
17564W        W33181  17.912   6.250  13.987  0.0619  0.0002  0.0862
17565W        W33182   0.061   2.571  13.340  0.0380  0.0195 -0.3001
17566W        W33183  17.481   3.792  13.238  0.0305 -0.0417  0.0152
17567W        W33184  10.797   2.001  15.576 -0.2084  0.2600  0.2550
17568W        W33185   5.031   9.034   1.800  0.1356  0.0195 -0.3779
17569W        W33186  18.068  13.037  15.803  0.2621  0.0206  0.0604
17570W        W33187   1.023  17.209  15.961  0.0061  0.3540 -0.1910
17571W        W33188   8.549  10.999  15.094 -0.0933 -0.2277  0.1438
17572W        W33189  14.476   3.551  11.725  0.2743 -0.0882  0.0187
17573W        W33190   7.791   6.362   2.979 -0.2178 -0.2237  0.1054
17574W        W33191  16.574   4.223   2.898 -0.0440 -0.0777 -0.0713
17575W        W33192  11.588  10.597  15.031 -0.6277  0.2362 -0.0458
17576W        W33193   0.842  13.687   3.015 -0.0388 -0.0803 -0.1964
17577W        W33194   2.067   0.978   2.036  0.3069 -0.3011  0.0536
17578W        W33195  17.406  15.017  14.814  0.0023  0.1816  0.0501
17579W        W33196   5.183   8.181  12.393  0.1745 -0.1888 -0.0114
17580W        W33197  16.469  14.401  12.047  0.0188 -0.0637  0.0947
17581W        W33198  15.763   1.930   4.828 -0.2970 -0.0195  0.0533
17582W        W33199  13.027  17.972  13.832  0.0910 -0.2965  0.0565
17583W        W33200  17.070  10.764  14.725  0.0884  0.0570 -0.3411
17584W        W33201   1.661   7.875   2.366 -0.4892 -0.1367 -0.0063
17585W        W33202  10.426   9.628  15.991 -0.2229 -0.1088 -0.2069
17586W        W33203   9.360   9.907  12.469 -0.3182 -0.2852 -0.0260
17587W        W33204  11.380   6.868  13.841 -0.2178 -0.3430  0.1379
17588W        W33205   3.090   3.160  13.790  0.0112  0.1654 -0.0557
17589W        W33206   2.522   1.631  13.966 -0.2989  0.1235 -0.0979
17590W        W33207   9.779   2.166   4.691  0.2457 -0.1757 -0.0310
17591W        W33208   1.964   2.872  14.063  0.0675  0.0604 -0.1384
17592W        W33209   8.202  12.188   2.122 -0.1451  0.0483  0.2508
17593W        W33210  12.906  10.957  12.098  0.3176 -0.1043 -0.2307
17594W        W33211   9.035   3.072  11.470 -0.2549 -0.1989  0.1012
17595W        W33212   6.716  16.762  15.195 -0.2013 -0.0943 -0.1504
17596W        W33213   8.131  12.204   0.367 -0.3275  0.0488  0.0077
17597W        W33214  13.407  10.441   2.477 -0.0054 -0.1757 -0.0339
17598W        W33215  16.306   1.092  13.955 -0.4493 -0.1579 -0.0886
17599W        W33216  16.393   8.141   2.232  0.0002 -0.0474  0.0180
17600W        W33217   7.019   0.825  12.014  0.3717  0.2653 -0.1243
17601W        W33218  15.086   5.736   4.822  0.0762 -0.1966 -0.0479
17602W        W33219  14.448   7.650   2.078 -0.0187  0.1449 -0.1009
17603W        W33220   7.774   7.858   1.657 -0.0315 -0.3144 -0.1478
17604W        W33221  10.389  16.155   2.989 -0.1426 -0.1876  0.1207
17605W        W33222   7.501   6.691  15.803  0.0146 -0.2270  0.0092
17606W        W33223   0.358  10.529   4.417  0.1360  0.0340 -0.0765
17607W        W33224  12.377   5.801   0.084  0.2913  0.2587  0.0768
17608W        W33225  14.611  11.864  14.246  0.1484  0.0989  0.1740
17609W        W33226   7.434  16.656  11.230  0.2549  0.1757  0.4477
17610W        W33227  17.167   9.810   5.425 -0.1139  0.0515 -0.1890
17611W        W33228  14.740  17.127  15.145 -0.1175  0.1475 -0.2325
17612W        W33229   4.569  16.450   5.739  0.0223 -0.4310  0.1359
17613W        W33230   2.580  10.315   4.171 -0.1296  0.3735 -0.0634
17614W        W33231   3.358   2.247   3.666  0.0376  0.2830  0.0407
17615W        W33232  18.183   0.970  15.526  0.0399  0.2497  0.3375
17616W        W33233   4.314  10.801  16.044  0.3153 -0.1821  0.3996
17617W        W33234   3.485   5.881  13.815  0.0246 -0.0352 -0.1018
17618W        W33235  17.559   2.097  11.846  0.1062 -0.0398 -0.1958
17619W        W33236   4.429   5.231   1.607 -0.0868 -0.4103 -0.2575
17620W        W33237   8.960   1.795   4.044 -0.0160 -0.0807 -0.1192
17621W        W33238  10.529   7.739  15.971 -0.1114 -0.0894 -0.0275
17622W        W33239   5.316  14.802  13.220  0.0233  0.0387  0.1899
17623W        W33240  17.310   8.142   2.404 -0.0296  0.2959  0.1011
17624W        W33241  10.897  11.360  12.110 -0.1841  0.1411  0.0030
17625W        W33242  10.246   5.255   2.124  0.2276 -0.0730 -0.0683
17626W        W33243  14.528   3.747   4.120 -0.3262  0.2022  0.0289
17627W        W33244   1.116  15.760  13.152 -0.1171 -0.1146  0.2178
17628W        W33245   9.994  11.831   1.881 -0.4628 -0.1645  0.2286
17629W        W33246   8.409  13.244   0.159 -0.1723  0.3030 -0.2168
17630W        W33247   1.778  10.692  13.429 -0.0652 -0.4023  0.0755
17631W        W33248  17.906  16.566   3.336  0.1382  0.0550  0.1617
17632W        W33249  13.098   8.996   4.564  0.0891  0.0583  0.0831
17633W        W33250  18.319  11.121  15.490 -0.0609 -0.2837 -0.4541
17634W        W33251  12.168   9.073  12.877 -0.0470  0.0723 -0.1652
17635W        W33252   8.241  10.600  13.905 -0.1378  0.0223 -0.0661
17636W        W33253   0.538  16.802   4.149 -0.0628 -0.2936  0.4114
17637W        W33254   9.539  16.851   5.927 -0.2729 -0.1119  0.1090
17638W        W33255  14.985   2.283   4.808 -0.1828 -0.0934 -0.0919
17639W        W33256   6.860  17.917  14.313 -0.0496 -0.0512 -0.0678
17640W        W33257   8.294   5.396   0.230  0.2406 -0.0794  0.0731
17641W        W33258   0.567   1.696  13.030 -0.0493 -0.0625 -0.0245
17642W        W33259   0.757  11.875   4.597  0.1561  0.1000 -0.2278
17643W        W33260   5.729   4.506   0.129  0.1243  0.0605 -0.0151
17644W        W33261   6.684   1.319   1.936  0.1746 -0.1239  0.3529
17645W        W33262   5.295   5.650  13.638 -0.0896 -0.0235 -0.0053
17646W        W33263   7.390   0.685   0.072 -0.0847  0.0190 -0.2553
17647W        W33264   6.432   2.766  15.119 -0.0201  0.4068 -0.2085
17648W        W33265   3.150  13.478  14.546 -0.1104  0.3021  0.1344
17649W        W33266   6.872   4.187   3.068  0.1945 -0.1741 -0.0074
17650W        W33267   1.674   1.470   4.042  0.0068 -0.1123 -0.1648
17651W        W33268   6.506  13.400   3.797  0.1398  0.0857 -0.1195
17652W        W33269   8.265   0.494  15.440  0.1389  0.0729 -0.3624
17653W        W33270  10.019  15.614   5.153  0.0388  0.1592  0.2704
17654W        W33271   2.666   6.033   2.063  0.1442 -0.3169 -0.1508
17655W        W33272   4.178  13.966  16.007 -0.1960  0.0101 -0.0574
17656W        W33273   5.738  12.875   3.662 -0.0789  0.2107 -0.0332
17657W        W33274   7.262   8.314  14.766  0.0354  0.0494 -0.2292
17658W        W33275  15.946  12.039  15.563  0.2253  0.3592  0.0563
17659W        W33276   4.623   9.631   0.153  0.0395  0.0933 -0.1146
17660W        W33277  15.321  11.707  11.402 -0.0518  0.1725  0.0478
17661W        W33278  11.632  12.817  15.656  0.0863 -0.0876  0.0797
17662W        W33279  12.972  11.275   2.964  0.1992  0.1608 -0.0402
17663W        W33280  12.337  14.263  13.066 -0.1110 -0.1103  0.0708
17664W        W33281   5.745  15.811   5.034  0.2329  0.2999 -0.4016
17665W        W33282   9.525   8.167   1.716  0.0140  0.0709  0.0455
17666W        W33283   5.606   4.440  12.764  0.2007 -0.3283 -0.1987
17667W        W33284   0.382   2.613  15.805  0.2465 -0.0320  0.1930
17668W        W33285  15.069   3.449   4.096 -0.2461 -0.0114  0.0019
17669W        W33286   2.165  16.701  14.453 -0.1315  0.0541  0.2038
17670W        W33287   9.493  10.846  13.780 -0.3335 -0.1453 -0.1362
17671W        W33288  17.629  16.750   1.914  0.2035 -0.1263 -0.3742
17672W        W33289  17.657   3.149   3.457  0.3281  0.0958  0.2342
17673W        W33290  12.727  18.321  11.443 -0.4788  0.2476  0.1087
17674W        W33291  14.292  10.371   4.237  0.1615  0.0755 -0.0166
17675W        W33292  17.143   8.929   0.085 -0.0107 -0.1760  0.1103
17676W        W33293   0.630   6.537   5.558 -0.1009  0.1850  0.3973
17677W        W33294  15.762  15.549   3.430 -0.2103  0.3625 -0.1765
17678W        W33295   4.835   3.867   0.632  0.0804  0.1814  0.0934
17679W        W33296  17.524  10.186  11.390  0.0423  0.0194  0.1173
17680W        W33297  11.987  10.294  11.108  0.3448  0.0335 -0.0272
17681W        W33298   2.824   5.659  15.454  0.2927  0.0109  0.0281
17682W        W33299  13.022   7.677  10.249 -0.0748 -0.1303  0.0958
17683W        W33300  11.993   4.851   0.784 -0.1953  0.2802  0.1261
17684W        W33301  15.113  10.072   3.894  0.0697  0.3518  0.2054
17685W        W33302   7.796  11.794   0.648  0.4172 -0.2616 -0.3019
17686W        W33303   1.351   5.748  12.034 -0.2898  0.1456  0.0414
17687W        W33304   6.450   8.519   0.012  0.0669  0.1903 -0.1870
17688W        W33305   5.358  11.910  16.046  0.1006  0.2022  0.0251
17689W        W33306  14.373   4.422   2.810 -0.2208 -0.0603  0.0733
17690W        W33307   6.616   8.886   2.912 -0.2116 -0.4769  0.1133
17691W        W33308   1.335   9.872   5.366  0.1923  0.1637 -0.1454
17692W        W33309   2.811   7.496  14.970 -0.1447 -0.1522 -0.2173
17693W        W33310   9.812   8.408  13.283  0.2081  0.2799 -0.3147
17694W        W33311   4.811   2.381   4.658 -0.1049  0.2021 -0.0713
17695W        W33312   9.015  11.529   1.925  0.0134  0.1038 -0.0349
17696W        W33313  14.316  17.324   0.330  0.0592 -0.1274  0.1179
17697W        W33314  14.346   3.720  12.178 -0.1939 -0.0582 -0.2426
17698W        W33315   6.796   9.334   0.201  0.0425  0.1765 -0.0798
17699W        W33316  11.068   0.833  12.293 -0.2829  0.1413  0.3473
17700W        W33317   5.825  16.743   3.611  0.1445  0.1232  0.1907
17701W        W33318  12.562   1.327  11.885 -0.1005 -0.3225 -0.0636
17702W        W33319  16.327  14.055  11.099 -0.2236 -0.1152 -0.3553
17703W        W33320  11.067   4.592   3.858  0.0981 -0.0361 -0.1567
17704W        W33321  17.151   2.748   5.421 -0.1691  0.1626  0.2683
17705W        W33322   3.935   6.452  14.987  0.0936 -0.1331 -0.4167
17706W        W33323  13.266   9.931  15.143  0.0010  0.0952  0.4322
17707W        W33324  17.179  17.668   1.793  0.1170 -0.0310  0.2925
17708W        W33325  16.873  13.193   2.629 -0.1944 -0.4158  0.1218
17709W        W33326   7.110  17.700  15.611 -0.2384  0.0808  0.2629
17710W        W33327   1.911   5.447   0.978  0.2173 -0.1394  0.1409
17711W        W33328   8.322  15.681  15.635  0.2003  0.0942  0.0755
17712W        W33329   3.048   7.571  14.099 -0.3893 -0.2441  0.1550
17713W        W33330   5.305  14.100  15.920 -0.0976 -0.2789  0.2014
17714W        W33331   8.730   8.447   1.568  0.0963  0.0915 -0.0433
17715W        W33332   2.155   9.777   2.804 -0.1066 -0.0788 -0.1377
17716W        W33333   8.467  13.359  15.018  0.3037 -0.2892 -0.1423
17717W        W33334  12.813  14.860   2.437 -0.0695 -0.0709  0.0632
17718W        W33335   7.047   6.932   1.562 -0.0355  0.0002 -0.3795
17719W        W33336   9.721  12.970   0.271 -0.0686  0.1070  0.0726
17720W        W33337  15.194   7.048   3.563 -0.2913  0.1845  0.2782
17721W        W33338   4.929  12.115   5.723 -0.3047 -0.0022 -0.0442
17722W        W33339  14.630   3.836   2.715 -0.0836  0.2728 -0.1690
17723W        W33340  13.755  13.297  11.413 -0.3784 -0.2234  0.0300
17724W        W33341  16.494  12.368  12.019 -0.0441  0.1109  0.0292
17725W        W33342  13.899   7.739  11.149  0.2087  0.1460 -0.1623
17726W        W33343   1.838  11.348   2.642  0.0456  0.0110  0.2386
17727W        W33344   3.361  15.965   2.095 -0.1210  0.0598 -0.2004
17728W        W33345   5.762  14.952   0.568  0.1910 -0.1132  0.0086
17729W        W33346  11.115  17.005  15.411 -0.2715 -0.2494 -0.0581
17730W        W33347   0.050   3.620  15.418 -0.2842  0.1245 -0.0421
17731W        W33348   6.333   2.591   3.801 -0.2806 -0.0207 -0.2982
17732W        W33349   7.260  16.271  13.698 -0.0389 -0.0120  0.4027
17733W        W33350   1.151  17.762   2.596 -0.1365 -0.1562  0.1920
17734W        W33351  13.405  13.484  12.753  0.3139  0.4609  0.1691
17735W        W33352   6.008   7.714   0.675 -0.0896  0.1438  0.0340
17736W        W33353  14.955   0.725  11.889 -0.1193  0.2106 -0.0324
17737W        W33354  15.685  10.266  12.020  0.4077 -0.2472 -0.0242
17738W        W33355  12.804   4.210  11.835  0.1412  0.2323  0.1834
17739W        W33356   6.870  15.608  13.386  0.3649 -0.1532  0.0091
17740W        W33357  15.204  15.074  14.698  0.1346 -0.0828 -0.0973
17741W        W33358   8.081  14.446  12.142 -0.1967 -0.0602  0.0620
17742W        W33359  15.008  14.624  13.275 -0.1166  0.0593  0.1646
17743W        W33360  16.686  13.423   3.667  0.0389  0.0529 -0.1733
17744W        W33361  14.992  17.069   1.483 -0.2132  0.1096  0.0946
17745W        W33362  10.415   5.899  11.121 -0.1258  0.0681  0.0443
17746W        W33363  11.510   4.428   3.531  0.1907 -0.0222  0.0678
17747W        W33364   8.170   4.933   0.261  0.1294  0.0041 -0.0425
17748W        W33365  16.316   4.180  13.573 -0.0663 -0.1123 -0.1827
17749W        W33366  16.553   5.770  13.162  0.2381 -0.2589 -0.0461
17750W        W33367   9.599   4.424   3.098  0.2413  0.0914 -0.4069
17751W        W33368  10.283   1.220   3.885 -0.3772  0.2823  0.2523
17752W        W33369  14.910  13.929   4.132  0.1069 -0.0758 -0.3089
17753W        W33370  13.869  10.125   4.082 -0.1959 -0.0861 -0.0503
17754W        W33371  12.886   8.350   4.338  0.0177 -0.1769  0.0252
17755W        W33372   1.766  10.552   4.105 -0.2480 -0.1017 -0.0168
17756W        W33373  16.453   5.016  13.031 -0.2912 -0.2341  0.3450
17757W        W33374   0.754   0.946  15.003  0.1114 -0.2394 -0.1698
17758W        W33375  12.768   2.998   4.206  0.2361  0.0783  0.2520
17759W        W33376   4.145   4.573  14.557  0.1904 -0.4692  0.3859
17760W        W33377   6.981  12.673   3.351 -0.0662 -0.1490  0.1836
17761W        W33378  16.780  13.143   3.244  0.0093  0.0686  0.1566
17762W        W33379   5.793  13.536   5.620 -0.3671  0.0039 -0.1709
17763W        W33380   6.476   2.140  14.448  0.2435  0.0267 -0.0288
17764W        W33381  10.453  14.907   5.164  0.2267  0.2282 -0.1900
17765W        W33382   1.685   0.617   5.372  0.0437  0.2575  0.0145
17766W        W33383  12.307  15.483  13.719  0.1820  0.4184  0.0069
17767W        W33384   4.348  15.060   0.876 -0.2249 -0.2808 -0.0154
17768W        W33385   1.687   9.538   0.043  0.0631  0.1016  0.0273
17769W        W33386   0.758   8.921   2.565 -0.1794  0.1800 -0.3115
17770W        W33387   2.087  17.770  13.202  0.2615  0.1956 -0.1775
17771W        W33388  15.134   3.685   4.589 -0.1041 -0.1645 -0.1240
17772W        W33389   1.940   0.933  14.830 -0.0002 -0.2420  0.1776
17773W        W33390   6.770   2.589   2.832  0.2319  0.1336 -0.2800
17774W        W33391  13.796  13.156  15.074 -0.0240  0.0087  0.3263
17775W        W33392  14.003   3.356   2.082 -0.0334  0.0397  0.0149
17776W        W33393   3.917  12.830  12.275  0.2891  0.3619  0.3059
17777W        W33394   8.122   1.965   0.877  0.3133 -0.0881 -0.0763
17778W        W33395   3.311   9.385   0.539 -0.3604 -0.1468  0.2177
17779W        W33396  15.538  17.851  14.902  0.0523  0.0608 -0.3371
17780W        W33397   0.641   6.768   4.249  0.0720 -0.0684  0.0073
17781W        W33398  14.728   6.336   3.993 -0.0154 -0.1606 -0.1680
17782W        W33399   7.355   6.756   3.989 -0.3398 -0.0710 -0.0293
17783W        W33400  17.128  10.017   3.286 -0.1097  0.2201  0.0266
17784W        W33401   7.367  10.012  13.160 -0.0784 -0.1002  0.0784
17785W        W33402   1.018   8.172   5.223  0.2370  0.0044  0.2185
17786W        W33403   2.318   1.984  13.549  0.1847 -0.1646 -0.3358
17787W        W33404  13.293  17.795   1.640  0.1251 -0.0659  0.2093
17788W        W33405  17.491  16.908  14.092 -0.3236 -0.4128  0.2240
17789W        W33406   8.797   1.909   0.211  0.0194 -0.0941 -0.0984
17790W        W33407  13.952  13.128  13.544  0.2419  0.0690 -0.3102
17791W        W33408   0.690   3.678   1.322  0.1456  0.2162  0.0897
17792W        W33409   6.932   8.393   0.119  0.0851 -0.0893 -0.0322
17793W        W33410   4.222  13.709   3.052  0.0880  0.1866  0.2206
17794W        W33411   2.050   7.939  15.254 -0.2621  0.0906 -0.0555
17795W        W33412  12.578  17.661   1.067 -0.1307 -0.2687 -0.1959
17796W        W33413  15.142   0.320  14.717 -0.1035 -0.1870  0.0529
17797W        W33414   9.154   2.376  12.769  0.1931 -0.2756 -0.1875
17798W        W33415  15.090  17.999   1.584  0.1034 -0.2122  0.2154
17799W        W33416   7.705  11.962   0.214  0.3560 -0.0877  0.0542
17800W        W33417   9.494  12.642   1.115 -0.0099 -0.0478  0.0525
17801W        W33418  11.093   1.829  14.323 -0.1772 -0.2306 -0.2963
17802W        W33419  13.171   4.865   4.372  0.0542  0.0194  0.1661
17803W        W33420   3.843   0.428   2.836  0.0323  0.1351  0.0559
17804W        W33421   5.676  14.908  15.693  0.0057  0.0171 -0.0440
17805W        W33422   0.871   8.033   3.443 -0.2343 -0.0177 -0.1458
17806W        W33423  12.873   5.390  14.687  0.0002 -0.2159 -0.3502
17807W        W33424   3.897   3.082  15.096 -0.2742 -0.3327  0.1282
17808W        W33425  18.018  10.497  12.571  0.6697 -0.0972  0.1118
17809W        W33426   8.853   8.571   0.143 -0.2516 -0.3840 -0.0164
17810W        W33427   2.286  12.315   1.802  0.1514 -0.1088  0.1053
17811W        W33428   1.154  12.425   0.935 -0.3207  0.1282 -0.0821
17812W        W33429   0.198   5.720   1.331  0.1607 -0.0261  0.0939
17813W        W33430   9.563  18.330   2.945  0.0043 -0.1749  0.0528
17814W        W33431  16.558   5.166   1.237 -0.0186  0.0087  0.1351
17815W        W33432   7.170  17.175  13.418  0.2087 -0.2364 -0.0998
17816W        W33433  17.785   6.396   0.551  0.0470 -0.0571  0.1747
17817W        W33434  10.769  15.862   4.795  0.2631  0.2361  0.0453
17818W        W33435   3.757   5.806  12.312 -0.1660  0.3186  0.0084
17819W        W33436  12.211   1.253   1.284 -0.1095  0.1041  0.0480
17820W        W33437  14.132  18.197   5.660 -0.1566 -0.2050 -0.1505
17821W        W33438  11.506  16.150  14.984 -0.0476  0.0140  0.0203
17822W        W33439   0.473   1.367   1.247 -0.4754 -0.3203 -0.1827
17823W        W33440   3.331   1.370   1.326  0.4320  0.2554  0.0771
17824W        W33441  18.075  13.932  14.520  0.1647 -0.2879 -0.1070
17825W        W33442   0.502  15.353  14.776  0.0046  0.2783  0.0883
17826W        W33443   6.757   4.420  16.134  0.1797  0.1875 -0.0266
17827W        W33444   6.018   3.043  12.607 -0.0838  0.4812 -0.2177
17828W        W33445  12.996   8.880   5.078 -0.1861 -0.1177  0.2202
17829W        W33446   4.240  17.061   6.270  0.4156 -0.1794 -0.0580
17830W        W33447  11.847   7.418  15.737  0.0036 -0.0438  0.0261
17831W        W33448   2.089  16.210  16.097 -0.0079  0.0471  0.0720
17832W        W33449   6.144   7.534   3.156 -0.0475  0.0155  0.0894
17833W        W33450  16.666   0.780   3.147 -0.0008  0.0976 -0.0780
17834W        W33451   5.623   5.012   1.730  0.2377 -0.0020  0.0088
17835W        W33452  15.726  16.660   6.477 -0.0629 -0.1562 -0.3414
17836W        W33453   8.798   8.865  13.983  0.0949 -0.0488  0.1100
17837W        W33454  15.056   0.527  12.651  0.1821  0.2738 -0.1377
17838W        W33455   5.691  11.688   0.196  0.3229 -0.3369  0.2590
17839W        W33456  18.287  16.115  12.601 -0.4564 -0.0707  0.1836
17840W        W33457   7.954  17.649  16.020 -0.1487  0.0717 -0.2439
17841W        W33458   2.926   5.726   1.747  0.0661 -0.3256  0.0425
17842W        W33459  16.290  17.050  15.094  0.1506 -0.4221  0.0274
17843W        W33460   9.167  15.307   1.389  0.0221  0.1035 -0.3424
17844W        W33461   4.533   3.604   3.738 -0.3088  0.1188 -0.0943
17845W        W33462  12.421   6.356  16.028 -0.2343 -0.0733 -0.3173
17846W        W33463   9.551  11.049  14.365 -0.0983 -0.0070 -0.1592
17847W        W33464   4.018   2.608   1.230  0.0946 -0.0376 -0.1436
17848W        W33465  11.641   8.203   0.604 -0.0791 -0.1448 -0.1201
17849W        W33466   3.495   7.134  12.872  0.2101  0.0925 -0.2455
17850W        W33467  17.564  12.928  15.683  0.0450 -0.0054  0.1784
17851W        W33468   6.102  13.058   0.448 -0.0480 -0.1142  0.0593
17852W        W33469   7.942   8.737  13.235  0.1388  0.0808 -0.0530
17853W        W33470  11.113   5.770   0.902  0.1133  0.0675  0.0096
17854W        W33471   4.264  14.040  12.723  0.4038  0.0582 -0.2414
17855W        W33472   5.213  15.931   5.804 -0.1134  0.0414 -0.2323
17856W        W33473   8.217  16.391   1.737  0.1392  0.0058  0.0160
17857W        W33474   0.209  10.208  13.126 -0.0000  0.1352 -0.2276
17858W        W33475   6.758   9.976   0.224  0.0440 -0.1366 -0.2122
17859W        W33476  10.860  14.874   0.902  0.2140 -0.2830  0.0184
17860W        W33477  10.245   0.682   3.243  0.0363 -0.1766  0.1651
17861W        W33478   6.194  12.400   4.774 -0.2381 -0.1263 -0.2595
17862W        W33479   8.991  11.771   3.943 -0.0354 -0.0548 -0.1975
17863W        W33480   5.837  12.515  12.658 -0.1935  0.0699  0.2806
17864W        W33481  18.346  15.967  13.456 -0.1212  0.0910  0.0694
17865W        W33482   9.459   5.036  12.294 -0.2723 -0.0094 -0.0294
17866W        W33483  13.963  13.994  15.271  0.2125 -0.1823 -0.0329
17867W        W33484  18.230   7.072   4.650  0.1283  0.3704 -0.2376
17868W        W33485  12.687  14.403   0.388 -0.2143  0.0063  0.0490
17869W        W33486   3.827   7.646  12.648 -0.0603 -0.1872 -0.2603
17870W        W33487  16.660   2.422   4.864  0.0888  0.1582  0.1488
17871W        W33488  16.300  11.313  12.343 -0.2699 -0.1738  0.0261
17872W        W33489  17.533  12.204  15.150  0.0168  0.2214 -0.2083
17873W        W33490   7.159   3.206  14.692 -0.2561 -0.2928 -0.2126
17874W        W33491   9.236  11.347   5.386  0.1511 -0.1150 -0.4658
17875W        W33492   4.372   7.522  14.344 -0.0822  0.0132  0.0929
17876W        W33493   5.729  13.627  13.621 -0.0005  0.2104 -0.2740
17877W        W33494  16.050  18.150  10.747  0.1760 -0.2709 -0.0806
17878W        W33495   7.483  13.538   5.775  0.0195 -0.0700  0.1714
17879W        W33496   4.609   6.530  13.424 -0.0657  0.0284  0.2691
17880W        W33497   3.730   4.518  15.432  0.0133  0.2669  0.0118
17881W        W33498   0.158  18.094   0.565 -0.0214  0.1139 -0.1118
17882W        W33499   4.650   7.289  11.022 -0.0781  0.1637  0.2977
17883W        W33500  14.058  17.189  15.407  0.0072  0.3049  0.1827
17884W        W33501  10.075  17.349  14.986  0.4827 -0.1609  0.1210
17885W        W33502   6.571   4.371  12.488  0.2547 -0.0048  0.1065
17886W        W33503  16.602   5.036   0.291  0.4286  0.0791 -0.0567
17887W        W33504  14.802   9.152   5.556  0.4338 -0.0316 -0.0752
17888W        W33505   4.545  14.611   3.203  0.3290  0.0675  0.3264
17889W        W33506  14.109   0.051   2.612 -0.2957 -0.1974  0.3242
17890W        W33507  16.797  13.284  11.586 -0.0240 -0.0038 -0.1469
17891W        W33508   2.073  16.027   1.542 -0.0281  0.3231 -0.2282
17892W        W33509  18.314  12.609  15.852  0.1023 -0.2798 -0.2984
17893W        W33510   2.468  10.252   1.740  0.2160  0.0121 -0.0772
17894W        W33511  18.291   9.402   1.234  0.3692 -0.4338 -0.4596
17895W        W33512   3.089   2.373   0.792  0.0411  0.1703 -0.1312
17896W        W33513   6.575  12.889  12.105  0.0321 -0.0693 -0.1592
17897W        W33514   0.247  13.598  11.285  0.3173 -0.2044 -0.0416
17898W        W33515  12.436   7.310  12.849 -0.3833 -0.0661  0.0790
17899W        W33516   5.207  15.737  14.160  0.2221 -0.3344 -0.3080
17900W        W33517  10.822  14.853   1.734  0.0706 -0.0334  0.0485
17901W        W33518   4.706  11.496  13.834 -0.0068  0.0294 -0.1781
17902W        W33519   3.552   6.585  13.506  0.0801 -0.2996 -0.1166
17903W        W33520  10.789   2.760  13.163 -0.2778  0.2027  0.2172
17904W        W33521  17.547  15.668   1.664  0.3289  0.4005 -0.0002
17905W        W33522  13.802   3.658  13.352  0.0438  0.2180  0.1126
17906W        W33523   5.616   9.926   2.448 -0.0651  0.5380 -0.0040
17907W        W33524   4.504   9.189  11.861 -0.1237  0.2473  0.0132
17908W        W33525   8.503   2.809   1.500 -0.0103  0.0607  0.2896
17909W        W33526  14.680   4.979  14.589 -0.0142 -0.0423  0.4469
17910W        W33527   5.227  10.377  13.757  0.2608 -0.3428 -0.0782
17911W        W33528  10.722   6.416  12.532  0.1196  0.3843  0.1165
17912W        W33529  13.965   7.352  11.905  0.1800 -0.3629 -0.2987
17913W        W33530  17.156  12.329  15.497  0.0315  0.5675  0.1529
17914W        W33531  13.352   5.461  14.839 -0.0258  0.0892 -0.0340
17915W        W33532  12.682   6.623   3.973 -0.0500 -0.0499 -0.0622
17916W        W33533   0.106   1.708   4.752  0.1308  0.0269  0.0392
17917W        W33534  10.941   3.400   4.952 -0.4605  0.0378 -0.0564
17918W        W33535   8.510   4.648   4.838  0.2173 -0.2218  0.2092
17919W        W33536  13.646  17.925  14.463  0.0754  0.0838 -0.1378
17920W        W33537  13.668  15.931  13.331  0.3864  0.1044 -0.0606
17921W        W33538   5.344   7.868  15.341 -0.1640 -0.0767  0.0108
17922W        W33539   5.487  17.482   5.387  0.1960  0.1618 -0.1412
17923W        W33540  14.608   1.379  11.560  0.0203  0.1575  0.2170
17924W        W33541  12.681   8.427  11.401 -0.0097 -0.1780  0.0602
17925W        W33542   2.186  17.932   4.562 -0.0729 -0.0970  0.0832
17926W        W33543  11.769  11.495  15.208 -0.4057  0.0352 -0.1928
17927W        W33544  12.799  14.220   5.695 -0.2769  0.0312 -0.0569
17928W        W33545   0.320   3.020   5.007 -0.2377 -0.0227 -0.2723
17929W        W33546   7.317   9.558  11.690  0.1994 -0.0185  0.1734
17930W        W33547   3.346  10.015   1.980  0.0202 -0.2789  0.2400
17931W        W33548  12.318   2.314   1.867  0.1264 -0.2601 -0.0946
17932W        W33549  10.873   2.974   5.330  0.2780  0.3017 -0.1445
17933W        W33550   5.506   4.804  13.081  0.2463  0.3016  0.2297
17934W        W33551   4.408   7.804   5.290  0.2036 -0.1582  0.1927
17935W        W33552   2.139  13.804  11.519 -0.2078  0.2120 -0.0269
17936W        W33553  16.269   6.049  15.715 -0.1566  0.0800  0.0672
17937W        W33554   4.535  12.955   2.198  0.2074  0.3410  0.1252
17938W        W33555  10.113   2.181  14.017 -0.0407  0.0426  0.3349
17939W        W33556  12.129  11.654   1.859  0.0586 -0.4393 -0.0849
17940W        W33557   2.722   0.772  11.905 -0.0152 -0.4825  0.1285
17941W        W33558  17.796   7.921  12.225 -0.0655  0.1633 -0.1953
17942W        W33559   3.038   8.563   1.084  0.0004  0.0723 -0.0364
17943W        W33560   0.759   8.287  15.435 -0.2265 -0.1330 -0.2469
17944W        W33561  18.343  10.179   5.274 -0.1005  0.1738 -0.4514
17945W        W33562   6.020   3.550   4.561  0.2320 -0.2068 -0.0439
17946W        W33563  17.215  15.540  14.876  0.4369 -0.2283  0.0584
17947W        W33564  13.942   4.129  14.371 -0.3244  0.1007  0.3299
17948W        W33565  14.703  14.680   5.661 -0.0691 -0.0333  0.0866
17949W        W33566  11.682   0.040  13.042  0.3799 -0.0671  0.0273
17950W        W33567   6.285  17.735  11.826 -0.0377 -0.3450 -0.2267
17951W        W33568   5.145   0.572  11.967 -0.1217  0.1553 -0.1908
17952W        W33569  15.224   2.171   0.587 -0.1317  0.1450  0.0655
17953W        W33570   3.167   6.434   3.386 -0.2633 -0.2926  0.0056
17954W        W33571   4.497  15.945   6.522 -0.0938 -0.1582  0.1079
17955W        W33572  13.307   4.764  11.230  0.0189  0.1991  0.1660
17956W        W33573  16.357  17.244  13.260 -0.2744  0.0540 -0.1241
17957W        W33574  11.489  18.099  14.046  0.0843  0.4494  0.1110
17958W        W33575   4.115   9.971  12.328 -0.2327 -0.3327 -0.3296
17959W        W33576   4.383   9.767   2.973 -0.1586 -0.1085  0.0264
17960W        W33577   4.444   5.449  14.375 -0.4330  0.0869 -0.2451
17961W        W33578  15.920   0.151   0.803 -0.2094 -0.0371  0.0338
17962W        W33579   4.829  13.738  15.132 -0.2902  0.2021  0.0506
17963W        W33580  10.299  11.781  14.739  0.4216  0.0464 -0.1420
17964W        W33581  10.653   0.801  15.209 -0.0331 -0.1439 -0.1159
17965W        W33582   0.159   3.323  13.432 -0.2022  0.1851 -0.2636
17966W        W33583   1.864  15.229  14.379  0.1531 -0.2212  0.1838
17967W        W33584   7.344   6.828  11.415  0.0245  0.2717  0.1781
17968W        W33585  14.828   6.317  13.803  0.0960 -0.2380 -0.1687
17969W        W33586  11.958   6.732   4.542 -0.0403 -0.0270 -0.1861
17970W        W33587   6.930   8.679  14.912 -0.1793 -0.4620 -0.3513
17971W        W33588   7.463  16.289   0.365  0.1592 -0.3917  0.0397
17972W        W33589  12.485  14.224  15.191 -0.1402 -0.2273 -0.0263
17973W        W33590   6.124  12.652   3.997 -0.0140  0.3158 -0.2309
17974W        W33591   5.776  15.168   7.002 -0.2776 -0.3199 -0.0972
17975W        W33592   1.822   8.819  14.199 -0.0385  0.1392  0.0226
17976W        W33593   7.155  14.467  15.898  0.0806 -0.0865 -0.0309
17977W        W33594  11.445  14.849   3.215  0.3120 -0.0918  0.0501
17978W        W33595  16.097  12.586  15.755  0.2269  0.0914  0.2201
17979W        W33596  14.331   9.913   4.026  0.0530 -0.1231  0.0802
17980W        W33597   9.803   1.803   2.374  0.0417  0.2091  0.1206
17981W        W33598   9.560   5.237  15.636 -0.2229  0.3257  0.1498
17982W        W33599  10.919  14.411  15.726 -0.1044  0.1376  0.0556
17983W        W33600   9.430  10.087   1.211  0.1922  0.0212 -0.2825
17984W        W33601  12.090  12.049  11.620  0.1560 -0.1202 -0.2230
17985W        W33602  16.316  13.558   3.967 -0.3778 -0.1519 -0.1762
17986W        W33603  10.866   0.197  12.999  0.0167 -0.3592 -0.0135
17987W        W33604  17.897   9.572   3.625  0.1856  0.0977  0.1908
17988W        W33605  16.412  12.871  14.638  0.2521 -0.0133 -0.0060
17989W        W33606   8.828   0.083  15.485 -0.0413 -0.0439  0.2655
17990W        W33607  10.522   5.012  10.822 -0.0309  0.3952  0.1710
17991W        W33608   1.143   2.564  13.251  0.0919 -0.0646  0.2287
17992W        W33609   2.002   2.866   1.721  0.1398  0.4078 -0.0681
17993W        W33610  18.048  14.008   2.178  0.1788  0.0032  0.1804
17994W        W33611  15.967  17.947  15.162  0.1576 -0.1351 -0.1078
17995W        W33612   2.152  12.007   2.177  0.1097  0.0943  0.1994
17996W        W33613   9.665   4.461  14.280 -0.2149  0.0558  0.2367
17997W        W33614  17.473  18.010  15.684  0.0284  0.0170  0.5154
17998W        W33615   2.119  15.314   4.696  0.1300  0.2939 -0.1120
17999W        W33616  14.574   9.418  10.962  0.0708  0.1630 -0.2418
18000W        W33617  18.146   3.881   1.832 -0.1465 -0.1607  0.0669
18001W        W33618  12.518   9.833  11.098  0.2522 -0.0138 -0.1267
18002W        W33619   5.930  13.956  11.779  0.5051  0.0635 -0.2840
18003W        W33620   5.168   7.123   0.330 -0.1052 -0.2335  0.1560
18004W        W33621  17.712   1.237  13.558  0.1614  0.0995  0.0740
18005W        W33622  16.724   4.263   0.819 -0.1697  0.0243  0.0618
18006W        W33623   3.259  15.436  15.995  0.1464  0.0417  0.4519
18007W        W33624  10.764   3.844   2.759  0.3847  0.1285 -0.0494
18008W        W33625  15.760   3.432  13.834  0.3738 -0.0852 -0.1101
18009W        W33626   3.277   4.272  15.525 -0.1294  0.1500  0.3774
18010W        W33627  17.138   9.804  11.408  0.3383 -0.0735  0.1273
18011W        W33628   5.386   1.752   4.923  0.1692 -0.0561  0.0409
18012W        W33629   9.659   5.247   1.381 -0.0668 -0.3550  0.2620
18013W        W33630  12.186   4.536  14.829  0.2236 -0.4042  0.0483
18014W        W33631   2.502  12.535  12.179 -0.0366 -0.4082  0.1234
18015W        W33632   2.751   8.688  14.004 -0.3476  0.0806 -0.0032
18016W        W33633   0.466   2.465  12.933  0.0327 -0.1618 -0.0020
18017W        W33634   8.970  15.880  14.380  0.0971 -0.3176  0.0909
18018W        W33635  10.263  14.508   1.690 -0.0088 -0.0226 -0.2816
18019W        W33636   6.003   7.835   2.052  0.0030 -0.0680  0.1438
18020W        W33637  11.964   3.598   2.388  0.0937 -0.1709 -0.1987
18021W        W33638  13.846   1.700   3.498  0.0740  0.2058 -0.2316
18022W        W33639   2.689   7.678   0.846  0.0096  0.0578 -0.4978
18023W        W33640  14.241   5.547   2.217 -0.0768  0.1467  0.1687
18024W        W33641   8.499  16.174  12.349  0.5291 -0.2027 -0.0452
18025W        W33642  13.202   3.586  15.839  0.0190 -0.4155  0.2709
18026W        W33643   5.052   6.733   3.805 -0.3442  0.0398  0.0070
18027W        W33644   7.480   1.347  14.572 -0.3270  0.0396  0.4052
18028W        W33645   0.579  15.194  11.529  0.1666  0.0895 -0.1362
18029W        W33646   2.576   0.529   4.400 -0.2822  0.0614 -0.0684
18030W        W33647   5.423   9.024  13.588  0.1692 -0.0230 -0.3047
18031W        W33648   2.033  13.004   0.248  0.2128  0.1119 -0.1838
18032W        W33649  14.784   7.941   1.741  0.0102 -0.1350 -0.2252
18033W        W33650   8.840   7.015  11.877 -0.3435  0.0021 -0.0848
18034W        W33651   0.661   2.267   3.383 -0.1688  0.1288 -0.2483
18035W        W33652  13.889   2.953   0.446 -0.1807 -0.2559 -0.1678
18036W        W33653  16.782   6.481   2.992  0.0050  0.0628  0.5381
18037W        W33654   5.919  13.893  16.014 -0.1547 -0.0707  0.0970
18038W        W33655   7.364   0.045  15.298 -0.0728 -0.2473 -0.5958
18039W        W33656   9.759  11.484   2.880 -0.1509 -0.3688  0.0475
18040W        W33657  17.757   5.008  15.951 -0.0152  0.0226  0.0441
18041W        W33658  16.535   6.328   3.502 -0.0930 -0.0289  0.0734
18042W        W33659  11.239   8.474  12.266 -0.0433 -0.1810  0.0560
18043W        W33660  11.307   9.081   0.299  0.2570  0.1183 -0.1947
18044W        W33661   4.441   4.774   1.391  0.0525  0.1774  0.0010
18045W        W33662  15.039   0.694  11.399  0.1434  0.3711 -0.2334
18046W        W33663   7.686  14.462   3.322 -0.0233  0.3457 -0.1930
18047W        W33664  14.544  16.564  11.102 -0.0013  0.0243  0.0502
18048W        W33665  12.541   6.597   2.906 -0.0712  0.0592 -0.0201
18049W        W33666   2.770  16.902   1.754  0.2156  0.0697 -0.0262
18050W        W33667   0.457  15.567   3.176  0.0641  0.1107  0.1637
18051W        W33668  16.438  12.978  11.476  0.3166 -0.0387 -0.2268
18052W        W33669   5.355   3.932   3.127 -0.0218  0.1054  0.3491
18053W        W33670  15.468   7.791  15.061  0.0574 -0.1175  0.0747
18054W        W33671  10.901   2.534   4.299  0.0532 -0.1194  0.3499
18055W        W33672  11.585  12.242  12.469 -0.0722  0.1229 -0.0860
18056W        W33673  10.675  10.969  11.295 -0.1966  0.0154  0.1113
18057W        W33674  14.799  12.614  16.092  0.0696 -0.1335  0.1373
18058W        W33675   8.554  15.131   4.014  0.0459 -0.0367 -0.2173
18059W        W33676  17.588  14.396   0.713 -0.1323  0.2337  0.1817
18060W        W33677  13.205  14.955  14.782 -0.0695  0.1785 -0.0493
18061W        W33678   5.830   6.792   4.913  0.0674 -0.0212 -0.2830
18062W        W33679  11.623   2.129  15.940 -0.0780  0.0467  0.0482
18063W        W33680   3.179  16.707  14.641  0.1713  0.1833  0.1179
18064W        W33681   8.776  18.125   3.544  0.2570 -0.0355 -0.1319
18065W        W33682   1.061  13.066  11.061 -0.1931 -0.2600 -0.2450
18066W        W33683  10.896  10.414  13.365  0.1352 -0.0054 -0.1081
18067W        W33684   1.064   7.836  12.349 -0.0474  0.1965 -0.0616
18068W        W33685   4.935   4.271   1.027 -0.3194 -0.1036 -0.2928
18069W        W33686  16.628  11.486   1.420 -0.0538 -0.0939  0.0841
18070W        W33687  14.464  11.392  11.556  0.1079  0.0078 -0.0280
18071W        W33688   9.353   2.091   0.073  0.4603 -0.0891 -0.0792
18072W        W33689  13.525   7.714   5.668 -0.3874  0.1703 -0.2106
18073W        W33690   8.879  17.198  14.031  0.1981  0.2515  0.2406
18074W        W33691   5.865   9.853  11.336 -0.0490 -0.2755 -0.0795
18075W        W33692  15.559  15.822   6.137  0.0078  0.1301  0.0028
18076W        W33693  16.358   4.773   2.155  0.1446  0.1222 -0.1396
18077W        W33694   4.601   5.539  12.457 -0.1528  0.2359 -0.0897
18078W        W33695  16.157  17.040  15.663  0.1240  0.0880 -0.1303
18079W        W33696   3.840   2.227  11.363 -0.0732 -0.3214 -0.1047
18080W        W33697   1.016   3.821  13.185  0.0970 -0.0450  0.1104
18081W        W33698   4.998   4.678  15.663  0.1510 -0.4191 -0.1835
18082W        W33699   5.905   3.794  14.164 -0.0011 -0.0698  0.1517
18083W        W33700  12.180   7.561   0.774 -0.0398 -0.0564  0.2458
18084W        W33701   9.950   0.894  15.095  0.0986 -0.2523 -0.0011
18085W        W33702  16.409   6.771  12.120 -0.2722 -0.0978  0.0856
18086W        W33703  14.673  16.652   3.763  0.0126 -0.2153  0.0607
18087W        W33704   3.592   3.799   3.479 -0.0977  0.1229  0.0109
18088W        W33705  14.223   8.979   3.151  0.2263 -0.1212  0.0610
18089W        W33706   9.430   2.703   2.665  0.1778  0.3808  0.2701
18090W        W33707   4.415  13.863  13.756  0.1794  0.0706  0.2042
18091W        W33708   4.353   2.047   3.719 -0.0309 -0.1258  0.2072
18092W        W33709   2.597  11.889  13.235  0.0483  0.1137 -0.0889
18093W        W33710   6.073   2.371   2.112 -0.0155 -0.0103 -0.2789
18094W        W33711  15.400   3.547   9.951 -0.0149 -0.0149  0.0423
18095W        W33712  15.053  15.629   1.092  0.2577 -0.3782  0.0965
18096W        W33713   0.015   0.700   4.297  0.2492 -0.1236  0.1256
18097W        W33714   0.915   5.634   2.112  0.0758  0.1808 -0.1094
18098W        W33715   2.639   5.284   3.358 -0.0338 -0.1980  0.1946
18099W        W33716   1.521   2.623  14.009  0.1714 -0.0268 -0.0901
18100W        W33717   1.179   9.826   1.451  0.4347  0.0601 -0.0954
18101W        W33718  16.429   5.450  15.102 -0.0693  0.1161 -0.0651
18102W        W33719   3.973  18.160  12.597  0.0520 -0.0725 -0.0772
18103W        W33720   4.852  14.758  11.173 -0.2166 -0.1110 -0.3792
18104W        W33721   0.626   7.319  16.031  0.0144 -0.1712 -0.2161
18105W        W33722   3.377   3.904  10.676 -0.1337 -0.0502  0.0801
18106W        W33723  17.556  10.467   3.807 -0.4496 -0.1122  0.2301
18107W        W33724  11.541  10.003   2.898  0.0037  0.2224  0.2543
18108W        W33725  11.592  17.867   2.750  0.0060  0.0527  0.0406
18109W        W33726   1.969   2.863  12.689  0.1920  0.0444 -0.1068
18110W        W33727  10.044  11.700   5.563  0.0762 -0.2195 -0.0937
18111W        W33728   3.985   9.940   0.156 -0.0706  0.1995  0.1023
18112W        W33729   0.204   5.310  11.007 -0.3121  0.0434 -0.2555
18113W        W33730   0.164  10.170  15.673  0.1816 -0.1534  0.1205
18114W        W33731   0.515   1.396  12.591 -0.0025 -0.3587  0.3370
18115W        W33732  16.578  11.007   5.034 -0.0707  0.1722  0.1590
18116W        W33733  16.430   7.592   1.688  0.1168 -0.0142  0.0675
18117W        W33734   8.060  11.798  15.254 -0.0840  0.0397 -0.0051
18118W        W33735   1.353   4.362  16.140  0.0457  0.2232  0.0510
18119W        W33736  16.696   4.303  11.483  0.0072  0.0312  0.2756
18120W        W33737  12.598  12.823   5.841  0.0884  0.0727  0.1237
18121W        W33738   0.292   9.352  12.657  0.1756  0.3264 -0.1768
18122W        W33739   7.803  10.243   5.115 -0.1937  0.0162  0.2040
18123W        W33740   3.234   9.865  13.126 -0.5402 -0.1913 -0.0572
18124W        W33741  11.416   0.228  14.844 -0.3395 -0.2453 -0.0717
18125W        W33742  16.483  17.553  12.843 -0.1009  0.2944  0.0327
18126W        W33743   4.871   7.751  10.882  0.0326 -0.0966 -0.2651
18127W        W33744   7.023   8.475   0.691  0.0032 -0.0531 -0.0574
18128W        W33745   2.476   2.864  14.401  0.0604 -0.0715 -0.0787
18129W        W33746   2.564   2.294  12.359 -0.1716 -0.5356 -0.0819
18130W        W33747   3.980  11.429  12.421 -0.0711  0.0560 -0.0958
18131W        W33748  16.626  16.363  12.834 -0.1462 -0.4560 -0.0298
18132W        W33749   6.287   4.200   1.713 -0.1067  0.1482  0.0506
18133W        W33750   4.186  10.715  11.403  0.0026 -0.1384 -0.2842
18134W        W33751   3.418   5.333   2.978 -0.0891  0.0510 -0.0412
18135W        W33752   1.093  14.799   4.428 -0.0141 -0.1029 -0.0585
18136W        W33753  16.686   0.955   1.595  0.0748  0.2023  0.1342
18137W        W33754  15.763   0.127  13.377  0.0599 -0.3611  0.3792
18138W        W33755   9.265  12.052  12.252  0.1128  0.1845 -0.0560
18139W        W33756  11.811  14.267  15.816 -0.1387 -0.0728  0.0394
18140W        W33757  12.312   4.530   4.485 -0.4727 -0.1084  0.0649
18141W        W33758   1.682   5.205   4.780  0.1870 -0.0390 -0.0918
18142W        W33759  10.493   1.006  10.740 -0.1776 -0.0068  0.0256
18143W        W33760   3.995   4.634  15.854  0.1217 -0.3666 -0.0744
18144W        W33761   6.106   8.125   3.867  0.1372  0.0640  0.1917
18145W        W33762   5.472   9.713  14.285 -0.2044 -0.2048  0.1886
18146W        W33763  10.256  14.602  12.934  0.0559  0.4260  0.0595
18147W        W33764  13.209   0.297  14.401 -0.3262 -0.2569  0.3367
18148W        W33765   2.470  15.661   1.858  0.0781 -0.1387 -0.0409
18149W        W33766  13.851   1.743   5.164 -0.2718  0.0031  0.0016
18150W        W33767   5.641  12.390  13.109 -0.0690 -0.0407  0.1779
18151W        W33768   9.779  13.181  12.315 -0.0767 -0.0702  0.0371
18152W        W33769  12.265  13.515   2.105 -0.1963  0.1213  0.2423
18153W        W33770  10.588  17.081   3.533  0.0738 -0.1423 -0.2255
18154W        W33771  14.427  13.010  13.513  0.1581  0.0137  0.0394
18155W        W33772  13.401  13.699  13.816  0.1542 -0.1564 -0.0734
18156W        W33773   6.407  11.628  15.133 -0.0180  0.1867 -0.0227
18157W        W33774   4.427   2.333   5.793 -0.1629  0.2871  0.0388
18158W        W33775  16.887  10.398  15.062 -0.0787  0.0216  0.0916
18159W        W33776  10.451   7.590   9.667 -0.1035  0.2651 -0.0787
18160W        W33777   3.097  10.409   2.464  0.0006  0.0060  0.0842
18161W        W33778  12.290   1.249  12.334  0.1755  0.1690 -0.1053
18162W        W33779  17.538   6.946   1.077 -0.1524 -0.0349  0.1143
18163W        W33780  12.380  18.029   3.985 -0.2784 -0.1468 -0.1693
18164W        W33781  18.331  12.451  15.207  0.0169 -0.0647 -0.1354
18165W        W33782  12.727   6.347  14.197  0.1733 -0.0154  0.2924
18166W        W33783   2.975   7.759   2.798 -0.0976 -0.1838 -0.1016
18167W        W33784  13.900  16.710   5.490  0.2595  0.1651  0.1544
18168W        W33785   6.946  13.475   1.169  0.0932  0.1294  0.0593
18169W        W33786  15.639   5.314   0.149 -0.2402 -0.0134  0.1056
18170W        W33787   7.143   7.683  12.832  0.0639  0.0136 -0.0453
18171W        W33788   1.485   8.865   0.746 -0.0588 -0.2616  0.0634
18172W        W33789  17.606  16.650  13.651 -0.2207 -0.0999  0.0473
18173W        W33790   9.106   9.795  14.049  0.1690 -0.0223 -0.0653
18174W        W33791   4.012  10.626  13.549  0.2291 -0.0080 -0.2381
18175W        W33792  10.767  15.514   5.832  0.0342 -0.1412 -0.2538
18176W        W33793   6.133   0.649   2.453  0.1980  0.1687 -0.1702
18177W        W33794   9.856  11.254  12.318  0.3266  0.2734  0.1875
18178W        W33795   4.994   5.630   1.654  0.0506  0.0657 -0.3080
18179W        W33796   1.163  13.835  13.222  0.0831  0.2437  0.2523
18180W        W33797   9.968   4.110   2.909 -0.0869  0.2911 -0.0321
18181W        W33798   0.384   2.857  13.792  0.0856  0.0040 -0.0633
18182W        W33799   9.182   4.643  12.703  0.1678 -0.1571 -0.0316
18183W        W33800   2.300  15.003   5.763  0.2132  0.0481  0.0451
18184W        W33801   7.720   7.769   3.135  0.2431  0.3440 -0.2594
18185W        W33802   9.893   1.087   0.767  0.5094 -0.1983 -0.2472
18186W        W33803  10.723   3.299  15.774  0.0942  0.0193 -0.2757
18187W        W33804  14.513   1.897  13.031  0.3479  0.1348 -0.0580
18188W        W33805  14.728   6.312   2.164  0.2544  0.1804  0.1303
18189W        W33806  15.666  17.785   1.877 -0.1483  0.0188  0.1606
18190W        W33807   3.274  14.355   0.236  0.4543 -0.1506 -0.0616
18191W        W33808   8.628  16.906  11.753 -0.3286  0.2354 -0.2033
18192W        W33809  17.758   0.328   5.174 -0.2240 -0.0131 -0.0835
18193W        W33810   5.499  17.658   1.004  0.4324  0.1542  0.1190
18194W        W33811  13.967   2.496  15.986  0.2520  0.0086 -0.1189
18195W        W33812   7.843  16.478  15.502 -0.0240  0.1431  0.1118
18196W        W33813  16.060   0.004  13.873  0.0783  0.1637 -0.0417
18197W        W33814   3.520  14.359   5.229 -0.0001  0.3501 -0.2584
18198W        W33815  14.274   2.781  15.677 -0.0777  0.2026  0.0215
18199W        W33816  15.082   9.635   1.642 -0.2026 -0.3622 -0.2191
18200W        W33817   9.404   9.343   0.738 -0.0139 -0.0060 -0.0251
18201W        W33818   5.590   0.542  13.704 -0.0305 -0.2782 -0.0743
18202W        W33819  13.965  17.519   2.616 -0.4480  0.0817  0.1069
18203W        W33820  14.107   0.710   0.836  0.2693  0.4374 -0.1447
18204W        W33821   8.216  12.627   2.480  0.0396 -0.0425 -0.2205
18205W        W33822   9.542  10.717   3.609  0.1485 -0.2048  0.0317
18206W        W33823  14.259  16.939  11.648 -0.2730  0.2726 -0.5344
18207W        W33824   6.733   5.791  13.597  0.4501  0.2799  0.1969
18208W        W33825   4.516   2.279   5.098  0.0972  0.3937  0.1994
18209W        W33826   2.522   8.897   1.753 -0.0695  0.4361  0.1228
18210W        W33827  12.807   0.564   1.422 -0.0899  0.1067 -0.1153
18211W        W33828   6.169   3.368   2.056 -0.2558  0.0763  0.3101
18212W        W33829  15.764   6.822   5.325 -0.0000 -0.1355 -0.0287
18213W        W33830   9.491  16.024   2.513 -0.1985  0.0714 -0.0334
18214W        W33831  14.055  13.713   4.996 -0.1085 -0.2006 -0.1362
18215W        W33832  11.269   5.529   3.132 -0.0449  0.0055 -0.4363
18216W        W33833  12.014   6.864   1.890  0.2442 -0.1282 -0.3634
18217W        W33834   6.957   6.891  13.573 -0.0003  0.0870  0.2063
18218W        W33835   7.811  12.127  14.876 -0.2698  0.2278  0.0447
18219W        W33836   9.641   0.275  10.792 -0.2211 -0.1980 -0.0455
18220W        W33837   1.873   7.174  15.079  0.4109  0.2581  0.0482
18221W        W33838   4.559  11.497  15.992 -0.1100 -0.0898 -0.1100
18222W        W33839   1.670  14.949   6.208  0.1551  0.2248  0.1319
18223W        W33840  16.137   7.867   5.627  0.0097  0.1735 -0.1626
18224W        W33841   3.399   4.649  11.639  0.4109 -0.0428 -0.0576
18225W        W33842  13.260   1.406  14.506  0.1890  0.0297 -0.3194
18226W        W33843   6.950   7.145  12.975 -0.0457 -0.1361  0.3879
18227W        W33844   5.554  15.070   5.687 -0.0281  0.1221  0.0099
18228W        W33845   6.784  10.962   0.960  0.3496  0.0128 -0.1371
18229W        W33846   7.603  14.377  12.249 -0.1258 -0.2464 -0.1896
18230W        W33847   9.286   2.273  10.723  0.0049 -0.0145 -0.0361
18231W        W33848  11.427   2.032  13.535 -0.0346 -0.1565  0.0906
18232W        W33849   8.512   8.084   2.770 -0.1002 -0.0643 -0.0747
18233W        W33850   4.996   4.948  12.440 -0.0163  0.0658  0.3182
18234W        W33851  15.853  13.321   1.145 -0.0747  0.0002  0.1777
18235W        W33852   2.769  11.964  15.657  0.2246  0.0227  0.0065
18236W        W33853   2.188   1.382   4.751  0.1203 -0.1574 -0.1140
18237W        W33854   1.637   8.673  13.724  0.2435 -0.1115  0.0609
18238W        W33855   2.583  11.896  13.721 -0.0983 -0.0181 -0.1110
18239W        W33856  10.351  18.276  16.015 -0.1292 -0.0634  0.1630
18240W        W33857  14.668  14.459   4.041  0.0231 -0.0612 -0.1740
18241W        W33858   3.784   2.367   2.147  0.1463  0.0874 -0.0648
18242W        W33859   9.597   5.842  15.486  0.0420  0.3184 -0.4038
18243W        W33860   9.431   4.799  11.797 -0.4599  0.0640 -0.1772
18244W        W33861  12.474   6.236   0.895  0.0204 -0.2888 -0.0156
18245W        W33862  10.973  15.603   3.469 -0.4171 -0.3071 -0.2645
18246W        W33863  12.720  12.464  12.063 -0.0081 -0.0506 -0.1686
18247W        W33864  17.266   0.462   2.023 -0.1126  0.0351 -0.0041
18248W        W33865  12.910   0.605  13.203 -0.0500  0.0981  0.0556
18249W        W33866   7.140   4.930   0.834 -0.3049 -0.4388 -0.0159
18250W        W33867  14.789   9.720   4.091 -0.2780  0.0331  0.1223
18251W        W33868   2.843  18.393  15.792  0.1935  0.4954 -0.2143
18252W        W33869   2.805   9.556   3.829  0.0428 -0.0241 -0.2014
18253W        W33870   7.912   9.641  13.036  0.0474  0.2065 -0.0190
18254W        W33871  14.160   3.347   0.201  0.1534  0.5100  0.0941
18255W        W33872   2.992  16.944   5.639  0.1757 -0.0395  0.0112
18256W        W33873  10.144   7.983   4.903  0.4353 -0.1176  0.2166
18257W        W33874   2.329   3.098  11.264 -0.0726 -0.1003 -0.0122
18258W        W33875  12.412   6.502  15.564  0.2290  0.0364 -0.1836
18259W        W33876   7.584   4.489  14.847  0.0844  0.5160 -0.0264
18260W        W33877   8.629   3.658   0.331 -0.2072 -0.1693  0.0713
18261W        W33878   5.605   8.345  15.846  0.0188  0.0460  0.2518
18262W        W33879  11.079  11.850  11.941 -0.0519  0.2296  0.0153
18263W        W33880   2.710   4.172   1.255 -0.1865 -0.0095  0.1395
18264W        W33881  15.614  13.505  14.347 -0.0954 -0.0360  0.1925
18265W        W33882   1.325   2.417   0.109 -0.2387 -0.0168  0.1790
18266W        W33883  12.718  17.285   4.775 -0.2084  0.1398 -0.0191
18267W        W33884  13.615  18.162   5.151 -0.3777  0.1862 -0.0243
18268W        W33885   9.365  17.085  11.507  0.0983  0.3966 -0.3526
18269W        W33886  11.925  10.057   2.502 -0.2494 -0.3523  0.0095
18270W        W33887  16.575  10.189   3.398  0.0989 -0.1027 -0.1464
18271W        W33888   3.088   7.113   3.818  0.0787 -0.1191  0.0427
18272W        W33889   7.904   2.413   3.081 -0.0402  0.1258  0.0695
18273W        W33890  10.088  17.655  11.455  0.3210  0.0871  0.0617
18274W        W33891   2.436   6.745  12.910 -0.0485 -0.0346  0.0204
18275W        W33892  17.502   2.683   1.080 -0.1609  0.2681 -0.0018
18276W        W33893   0.819  16.715  13.367 -0.0565  0.5633  0.0165
18277W        W33894   1.341  17.847  11.603  0.1500  0.0693  0.2253
18278W        W33895   2.488   5.507   5.125  0.0848 -0.4521  0.1329
18279W        W33896   5.884  13.181   3.267  0.1656 -0.1591 -0.1089
18280W        W33897  14.543  13.613   4.883  0.2805  0.1572 -0.0147
18281W        W33898   2.395   4.034   3.056 -0.0709 -0.1960 -0.0918
18282W        W33899  12.039  16.628  11.221  0.1216  0.1508  0.3080
18283W        W33900  15.607   7.448  11.280  0.1218  0.1850 -0.0666
18284W        W33901   4.908  14.798  14.503  0.2537 -0.0829 -0.0239
18285W        W33902  10.744   2.114   2.119 -0.0559 -0.0238 -0.2079
18286W        W33903  11.099   8.892  11.956  0.0177  0.2365 -0.2128
18287W        W33904   8.042   9.300   0.855  0.0798  0.1732 -0.4746
18288W        W33905   7.209   6.167   1.563  0.1129  0.2579 -0.1044
18289W        W33906  11.302  16.843   5.604 -0.0675 -0.0368  0.1165
18290W        W33907  11.795   2.605   0.580  0.1456 -0.1698 -0.1774
18291W        W33908  10.772   9.347   4.007 -0.1945 -0.0338 -0.1219
18292W        W33909  11.016   1.909   0.832  0.3405  0.0807 -0.1464
18293W        W33910   2.969   5.648   5.003 -0.0685 -0.0625 -0.0509
18294W        W33911  10.105   6.661   0.437  0.0990 -0.3019  0.1816
18295W        W33912   2.133  11.790  13.359 -0.2219 -0.0558 -0.1149
18296W        W33913  17.137  16.244   3.962  0.0744  0.1832  0.0291
18297W        W33914  15.482   6.095  12.469  0.0174 -0.1264  0.2881
18298W        W33915   2.682   4.871  15.523 -0.1993  0.2639  0.0026
18299W        W33916  15.769   1.875   1.794  0.1474 -0.0040  0.0006
18300W        W33917   8.257   4.571  16.022 -0.2833  0.2013 -0.1035
18301W        W33918   6.222  11.989  14.738 -0.2693 -0.2239 -0.0358
18302W        W33919  13.396  15.368   6.070 -0.0684  0.1709  0.2355
18303W        W33920  11.616   1.012   4.914  0.1524 -0.1410  0.0394
18304W        W33921  15.195   0.635  10.936  0.1118 -0.2444 -0.2476
18305W        W33922   9.303   0.742  14.674  0.0908 -0.1172 -0.2205
18306W        W33923   8.163   9.400   9.838  0.5181 -0.2358  0.2041
18307W        W33924   4.557  17.217   3.901  0.0421 -0.0752  0.1472
18308W        W33925   9.579  17.726   4.060 -0.1407  0.2362  0.0767
18309W        W33926  14.755   0.369   2.493  0.0668 -0.0071  0.0636
18310W        W33927  12.363   0.199   1.571 -0.0984 -0.1990  0.2856
18311W        W33928   6.871  10.700  15.175  0.0493  0.0428 -0.0350
18312W        W33929   3.183   1.267   2.992 -0.3231  0.3395  0.1292
18313W        W33930  18.001   7.810   4.022 -0.1005 -0.0140  0.2259
18314W        W33931  17.798   0.252   2.015 -0.1062  0.2253 -0.1160
18315W        W33932  14.946   0.756   1.700  0.0580  0.1805 -0.2307
18316W        W33933  16.373  15.951   4.454  0.1724 -0.1338  0.0646
18317W        W33934  10.657   0.064   1.328 -0.1437  0.0808  0.0686
18318W        W33935  12.609   5.605   3.203 -0.0166 -0.0938 -0.0938
18319W        W33936  16.891   4.198   5.936  0.3094  0.1820  0.1349
18320W        W33937  11.711   4.449  14.248 -0.3501  0.2632 -0.0950
18321W        W33938   3.649   8.575  12.047  0.3096 -0.2453  0.1654
18322W        W33939  11.564  11.564  11.812  0.2029  0.2593  0.0441
18323W        W33940   5.832   7.586  11.386 -0.0531  0.2417 -0.1974
18324W        W33941  11.678  15.363  15.244 -0.1743  0.0176  0.2135
18325W        W33942  14.843   7.409   2.262 -0.0934  0.0308 -0.1815
18326W        W33943   9.299   7.549  14.132 -0.3043 -0.1108  0.2698
18327W        W33944  16.185   8.434   1.452 -0.0623 -0.1541 -0.2163
18328W        W33945   8.886   5.654   3.626  0.0506  0.2770 -0.0286
18329W        W33946   9.707   1.414  12.551  0.0365 -0.0879 -0.0438
18330W        W33947   7.143   2.890  14.191  0.1035 -0.1725  0.1994
18331W        W33948   0.954  10.355   3.187 -0.2748 -0.4560  0.0819
18332W        W33949   0.778  15.063  13.229 -0.3783 -0.1216 -0.0224
18333W        W33950   8.867  15.481  11.585  0.1697 -0.2104  0.1648
18334W        W33951   8.590   6.502  10.518  0.1136 -0.2227  0.0075
18335W        W33952  12.333  17.774   1.497  0.0200 -0.0454  0.0925
18336W        W33953  15.936  12.699   3.350 -0.2104 -0.0292 -0.2700
18337W        W33954   6.622  15.860   5.559  0.2657  0.0099 -0.2258
18338W        W33955  10.073  13.870  14.215  0.2381 -0.0626  0.0501
18339W        W33956   6.415  14.753  12.146  0.2163  0.1123  0.0702
18340W        W33957  12.679  15.232   1.282  0.1352 -0.2230 -0.0602
18341W        W33958   1.301   0.150  12.793 -0.0902 -0.2096  0.1040
18342W        W33959   2.250  15.706  12.642 -0.1780  0.1306  0.1177
18343W        W33960   3.424  16.947   5.308  0.1899  0.1030  0.4133
18344W        W33961   1.613  15.119   4.822 -0.0911  0.1276 -0.1415
18345W        W33962   3.024   0.777  13.367 -0.2778 -0.3551  0.2751
18346W        W33963   0.180   6.512   2.949  0.4034  0.1816  0.2439
18347W        W33964  11.258  16.357   5.482 -0.0194 -0.0243  0.1937
18348W        W33965  16.577  17.520  11.271  0.2685 -0.0163  0.0206
18349W        W33966   0.319   6.246   0.683  0.2326  0.1978  0.1633
18350W        W33967  12.127  17.708  14.086  0.2209 -0.1213 -0.0953
18351W        W33968   6.050   6.673   1.484 -0.2725  0.1390  0.1146
18352W        W33969   6.922   7.521   0.315  0.1459 -0.1347  0.0781
18353W        W33970  15.823   4.969  14.118 -0.1638 -0.2819 -0.0557
18354W        W33971  11.241  17.154  16.066  0.0673  0.1116  0.0206
18355W        W33972  13.380  14.125   3.441 -0.3488  0.2998 -0.4098
18356W        W33973   7.838   8.225   3.322  0.2933  0.1346  0.0889
18357W        W33974  13.521   1.011   4.603 -0.3278  0.2560  0.0380
18358W        W33975   2.781   2.344   2.071 -0.1073  0.3092  0.2418
18359W        W33976   4.014  10.212  11.370  0.2818 -0.0013  0.1110
18360W        W33977   6.510  14.065   0.152  0.3022  0.2618 -0.0231
18361W        W33978  11.128  12.743   3.001  0.0935  0.0031  0.0685
18362W        W33979   6.287  13.637   5.437  0.1392 -0.0962 -0.1056
18363W        W33980   8.565   7.138  16.138 -0.0186 -0.0444  0.3235
18364W        W33981  13.886  12.934   0.490 -0.2488  0.1564 -0.0294
18365W        W33982  10.606   9.206  10.133 -0.1530  0.1220  0.3035
18366W        W33983  12.748   4.132   0.607  0.0013  0.2427 -0.0258
18367W        W33984  17.049   5.779  11.368 -0.3072 -0.1244  0.0004
18368W        W33985   8.563  15.129  15.759 -0.0258  0.0114 -0.0253
18369W        W33986   8.951  14.722  13.499  0.1807 -0.0454 -0.0335
18370W        W33987   2.819   0.035   3.383  0.0175 -0.3325  0.1754
18371W        W33988   6.641  17.332  15.957 -0.4320  0.0145 -0.0106
18372W        W33989   6.535  16.824  12.998 -0.1144 -0.0717 -0.3763
18373W        W33990  16.374  18.385  12.671  0.0058 -0.4162  0.2383
18374W        W33991  15.744  13.158   4.696 -0.1551  0.3018 -0.0723
18375W        W33992  15.437  12.121   4.003 -0.1287 -0.0750  0.1767
18376W        W33993   5.922   5.336   0.348  0.2465  0.1718 -0.0221
18377W        W33994   8.179  11.684  15.847 -0.2178 -0.0073 -0.0342
18378W        W33995  14.521   7.319  10.959  0.3664  0.1422 -0.0389
18379W        W33996   3.597  15.122  15.139 -0.2642  0.1412 -0.2524
18380W        W33997   2.185   3.606   2.840 -0.1833  0.1176 -0.0556
18381W        W33998   1.465  12.279  11.856 -0.0793 -0.1732  0.0993
18382W        W33999  17.168   9.133  13.867  0.2139  0.3778 -0.1702
18383W        W34000   5.155   4.293  12.440 -0.2585 -0.3250 -0.2441
18384W        W34001   5.505   5.144   4.005  0.2419  0.4657  0.0918
18385W        W34002   9.021   1.598  13.049 -0.3543  0.0601 -0.0312
18386W        W34003  12.697  15.438   3.108  0.1463  0.0587  0.0303
18387W        W34004  15.756   2.553   1.359 -0.0490 -0.2510  0.1283
18388W        W34005  12.978   5.313   4.568  0.3205 -0.1959 -0.2521
18389W        W34006  10.280  15.550  13.269  0.0768 -0.1780 -0.0578
18390W        W34007   5.914  12.266   5.151 -0.2758 -0.0869  0.1139
18391W        W34008  11.906  12.428  15.697 -0.1143 -0.3719  0.2595
18392W        W34009   7.306   6.368   0.649  0.0877  0.2322  0.1860
18393W        W34010   3.702   7.168   3.449  0.2112 -0.1072  0.0742
18394W        W34011   7.276  12.749  16.015  0.1736 -0.2000  0.0647
18395W        W34012  10.344   6.377   0.127  0.0053  0.0600 -0.1991
18396W        W34013   5.009  10.957   4.076 -0.3614 -0.1213  0.2349
18397W        W34014   2.844   3.137   3.440 -0.0655 -0.0646 -0.0010
18398W        W34015   1.199   0.166  15.797  0.3433  0.0686  0.3601
18399W        W34016  14.780  10.977  11.966  0.1236  0.1151  0.0444
18400W        W34017  18.391   3.476   3.946  0.2247 -0.0716 -0.1652
18401W        W34018  17.687  13.228  13.435  0.1279  0.2077 -0.1787
18402W        W34019   9.073   0.871   2.031 -0.2005 -0.0014  0.0647
18403W        W34020   0.333  13.900  12.740 -0.2220  0.2444  0.0458
18404W        W34021   0.064   5.869   0.393  0.0155 -0.1921 -0.0381
18405W        W34022   5.858   3.181   4.264  0.2615  0.1473  0.4322
18406W        W34023  11.971   3.492   1.411  0.0578 -0.2683  0.4573
18407W        W34024   9.045  15.559   4.684  0.1895 -0.4186  0.1066
18408W        W34025   5.536  12.162   2.616 -0.2210  0.2121 -0.1013
18409W        W34026   0.654   9.783   1.397 -0.0934 -0.1214 -0.2352
18410W        W34027   9.602  10.561  13.306 -0.2269  0.2209  0.0643
18411W        W34028   1.702  18.354   0.494  0.1562 -0.1957  0.0786
18412W        W34029   9.944  17.475  15.729  0.2053  0.2650 -0.1401
18413W        W34030   0.388  16.911  14.672  0.1540 -0.0989 -0.2335
18414W        W34031  15.306  11.800   4.749  0.4644  0.1715  0.0545
18415W        W34032  15.161   0.323  14.178  0.1889 -0.2457  0.2515
18416W        W34033   1.268   2.186   0.752  0.1141 -0.0228 -0.1195
18417W        W34034  10.331  13.790   5.977 -0.4935  0.2614  0.1752
18418W        W34035  16.724   3.826  13.221  0.0642 -0.0668  0.2557
18419W        W34036  13.873   7.595   3.415 -0.1078  0.0368  0.2376
18420W        W34037   2.474   1.615  15.106 -0.2859  0.0967  0.1275
18421W        W34038  11.068   9.795   3.827 -0.1355  0.0502 -0.2413
18422W        W34039  11.965   1.870   0.689  0.1524  0.0534 -0.2736
18423W        W34040   0.786  18.191   1.690  0.0585 -0.0295 -0.0959
18424W        W34041  10.563   0.151   4.930  0.2214  0.1300  0.1597
18425W        W34042  14.474  14.348  12.850  0.0423 -0.2882  0.2312
18426W        W34043  14.362  12.303   4.153  0.1339  0.2343 -0.1261
18427W        W34044   9.537   4.781  13.039  0.1228 -0.1972  0.0414
18428W        W34045   5.170   0.300   1.915 -0.2653  0.3060 -0.1702
18429W        W34046   1.837   5.980  15.771  0.1932  0.1141 -0.0649
18430W        W34047   4.630   3.096  12.775 -0.0871  0.3560 -0.1068
18431W        W34048   7.578   1.370  12.071  0.1220  0.1958 -0.1830
18432W        W34049  10.844   1.353   1.775 -0.3516 -0.4200 -0.2393
18433W        W34050  11.049   7.112   3.985 -0.0830  0.3696 -0.1262
18434W        W34051   6.506   6.672   3.133 -0.0193 -0.0978  0.1452
18435W        W34052  13.058   5.548  11.207  0.1824  0.0733 -0.0937
18436W        W34053   8.425   3.575   5.147  0.1334 -0.2690  0.3570
18437W        W34054   3.084  11.426  14.436 -0.0523  0.2365  0.2878
18438W        W34055  17.919   2.079   0.393 -0.1807  0.2701 -0.2576
18439W        W34056   2.198   9.309   0.179  0.2402 -0.3450 -0.1080
18440W        W34057   2.719   0.990   5.473  0.0952  0.2159 -0.2426
18441W        W34058  16.970  18.034  15.743  0.0949  0.0922  0.1032
18442W        W34059  12.673   5.620   4.250  0.1654  0.1237 -0.2921
18443W        W34060  18.436  14.270  14.387 -0.0412  0.1186  0.0856
18444W        W34061  18.258   0.596  15.823  0.0105  0.4749 -0.0523
18445W        W34062  17.289  10.423  15.419  0.4342  0.0841  0.0515
18446W        W34063   8.027   2.692  15.288  0.1672 -0.0924 -0.1275
18447W        W34064  13.766  12.311  13.008  0.2967  0.1398 -0.0616
18448W        W34065  12.180   5.892   3.347  0.0039  0.2872 -0.0629
18449W        W34066   6.707  13.740  12.502 -0.1281 -0.2924  0.0385
18450W        W34067   7.523   8.408  12.108  0.3490  0.2275  0.2476
18451W        W34068  17.299   2.118   1.034 -0.1623 -0.0131  0.0623
18452W        W34069   4.437   9.366  15.643 -0.0586 -0.2628 -0.2272
18453W        W34070   2.985   8.717  13.579  0.1866  0.1295 -0.0830
18454W        W34071   3.309  17.531   4.837 -0.0440  0.3524  0.2172
18455W        W34072   5.082   9.570   0.351  0.1015  0.0436 -0.0182
18456W        W34073  10.178  16.043   4.911 -0.4252  0.1227  0.0923
18457W        W34074  17.174   5.384   3.460 -0.1613 -0.0755 -0.0409
18458W        W34075  12.499   7.842  14.035 -0.0579 -0.1034  0.0578
18459W        W34076  13.880   6.770   2.250 -0.0502  0.2640  0.0126
18460W        W34077   7.432  10.871  14.450  0.1944  0.0480  0.3240
18461W        W34078  14.444  17.817   4.232 -0.2141  0.1533  0.0046
18462W        W34079   2.562   7.345   3.818 -0.2689  0.2887 -0.0930
18463W        W34080  11.969  16.198   4.898 -0.4119 -0.1529  0.1825
18464W        W34081  13.288  12.935   1.082  0.0030 -0.1706 -0.1800
18465W        W34082  10.431   6.863  14.879  0.1524 -0.0009 -0.0781
18466W        W34083   8.133   4.708  11.002  0.2200  0.0841  0.1910
18467W        W34084   5.461  12.044   4.119  0.1333 -0.0460  0.2802
18468W        W34085  16.058  15.954  12.143 -0.0176 -0.0985 -0.2234
18469W        W34086  17.931   0.978   1.323 -0.1232 -0.3042 -0.0889
18470W        W34087   5.394  13.766   2.827 -0.1820  0.0475  0.2049
18471W        W34088  14.684  13.340   1.947 -0.0497  0.0240 -0.1563
18472W        W34089   7.465   6.723   0.978 -0.2172 -0.1113 -0.0362
18473W        W34090   9.003   8.884  14.749 -0.2368 -0.3341 -0.0209
18474W        W34091   0.975  16.930  12.066  0.0308  0.0320  0.0856
18475W        W34092  18.085   6.060  13.428 -0.0215  0.1721 -0.2420
18476W        W34093  11.322   0.463  13.064  0.0081  0.0191 -0.0870
18477W        W34094   9.902  16.926  14.056  0.3275  0.0781  0.3771
18478W        W34095   6.387  15.205   4.607  0.2412  0.2647 -0.0790
18479W        W34096   8.577  12.593   3.189  0.1276  0.1385  0.1432
18480W        W34097   3.376  13.805   0.345 -0.0334  0.0441 -0.1801
18481W        W34098  17.331   0.924  14.562  0.1706 -0.0086 -0.1310
18482W        W34099   2.023  12.861   2.015 -0.1024  0.0529  0.0675
18483W        W34100   2.480   9.898   5.522 -0.1195  0.0440 -0.2576
18484W        W34101   0.951   5.573  15.828 -0.0981  0.0309  0.0289
18485W        W34102  18.246   3.245  14.327 -0.1314 -0.2601 -0.1518
18486W        W34103   3.978   8.932  15.643 -0.0454  0.1575 -0.0227
18487W        W34104   7.365  10.439   4.955 -0.2634 -0.0675  0.1558
18488W        W34105   0.110  12.898   1.001  0.0520 -0.2467  0.1586
18489W        W34106   5.453   0.211  12.763  0.0603  0.0107 -0.0927
18490W        W34107  13.482   3.960  12.449 -0.0161  0.0869  0.2668
18491W        W34108   6.168  13.902   3.955  0.0336 -0.1290 -0.2110
18492W        W34109   1.852   4.784   2.737 -0.1026  0.1484 -0.0745
18493W        W34110   5.136  14.740  12.021  0.0525 -0.1390 -0.0262
18494W        W34111  13.557   0.747   5.016 -0.2832 -0.2078 -0.0998
18495W        W34112   7.198  12.867  12.704  0.0559  0.1065 -0.2548
18496W        W34113   2.094  17.846   5.065 -0.2907  0.0711  0.3192
18497W        W34114  13.421  12.970  12.611  0.1587  0.1245  0.0973
18498W        W34115   6.961   9.397   5.212  0.0547 -0.1940  0.2597
18499W        W34116   8.863   6.542  15.535  0.0417  0.2337 -0.1229
18500W        W34117  11.768  14.207  13.187  0.3151  0.3041  0.1341
18501W        W34118  12.165   3.377  13.892 -0.1730  0.1181 -0.0619
18502W        W34119   9.925  12.179  14.667  0.0620  0.1579 -0.3251
18503W        W34120  16.487   7.006   4.507 -0.0370 -0.4213 -0.0041
18504W        W34121   3.425   8.792   2.662  0.4023 -0.4578  0.0457
18505W        W34122  14.795   8.696   1.210 -0.0205 -0.0036  0.0735
18506W        W34123   7.873   3.744  15.736 -0.3391  0.1867 -0.0770
18507W        W34124  17.338   3.742   3.424  0.2726  0.2046  0.1385
18508W        W34125   1.413   6.488  11.268 -0.2069  0.2895  0.2790
18509W        W34126  11.814   1.274   2.074  0.0901 -0.0529 -0.2314
18510W        W34127  12.248   5.510  11.493  0.4586  0.1018 -0.0349
18511W        W34128   3.623   8.518  12.858 -0.2016  0.0032  0.0773
18512W        W34129  13.691  16.136   0.844  0.3294 -0.1127 -0.0179
18513W        W34130  12.848   4.078   1.508 -0.0348  0.1292 -0.0548
18514W        W34131  15.162   3.981   1.625 -0.3234  0.0404  0.0477
18515W        W34132   6.097  14.299  13.459  0.0742  0.0858  0.1144
18516W        W34133  14.105   6.878  12.037 -0.0385 -0.1655  0.0140
18517W        W34134   1.623   8.554  16.001 -0.0381 -0.0019 -0.0855
18518W        W34135  17.414   1.695  15.227  0.3085 -0.0874  0.3830
18519W        W34136  15.183  15.914  14.493  0.3559 -0.2069 -0.2388
18520W        W34137   7.858  12.857   4.838  0.4247 -0.1704  0.0586
18521W        W34138  10.644  13.913   1.020  0.0783 -0.1828  0.0428
18522W        W34139  13.624   8.884   3.886  0.2263  0.2003  0.1649
18523W        W34140  11.009   9.767  12.937 -0.2563  0.2702 -0.1901
18524W        W34141  10.445   9.004   3.165  0.2878 -0.1305  0.2730
18525W        W34142  15.072  10.606   0.482 -0.1810 -0.1409  0.2574
18526W        W34143   7.911   2.524  14.862 -0.0515  0.1865 -0.1355
18527W        W34144   6.528   6.816  11.699 -0.0192  0.2055  0.2848
18528W        W34145   5.058   5.230  12.000  0.4272 -0.1511  0.2262
18529W        W34146   7.350  16.822   1.477 -0.1010 -0.0036  0.1534
18530W        W34147   9.747   3.298  10.665  0.0678  0.1511  0.2986
18531W        W34148   3.510   3.795   0.695  0.2260  0.1708 -0.1979
18532W        W34149  13.501  10.484   0.584  0.1130 -0.3015 -0.2627
18533W        W34150   4.869   9.351   4.190 -0.1653  0.0543 -0.1490
18534W        W34151  12.630  15.904   2.955  0.1837 -0.1728 -0.1405
18535W        W34152  12.251   4.751  10.852  0.0126  0.1887  0.1552
18536W        W34153   7.273  13.239   0.111 -0.1395  0.0529  0.0556
18537W        W34154   0.695   0.230  15.815  0.2428  0.2861  0.0991
18538W        W34155  11.707  12.279   4.298 -0.0449 -0.0863 -0.0478
18539W        W34156  14.381  11.024  13.530 -0.0261 -0.3120 -0.1609
18540W        W34157  18.004   9.795   2.257 -0.1691  0.2540 -0.0030
18541W        W34158  14.737   0.027  11.888  0.2386 -0.0021 -0.1728
18542W        W34159  15.598  14.309  14.838 -0.1193  0.0036 -0.0838
18543W        W34160  14.201   6.705  15.202  0.0872  0.1950 -0.0139
18544W        W34161  14.310  17.883   2.715  0.2115 -0.0744 -0.1138
18545W        W34162   4.081   0.831  12.992  0.1630  0.0836 -0.2376
18546W        W34163  12.525  15.027   1.908 -0.3717  0.1529  0.0920
18547W        W34164   4.996   0.463   0.992 -0.1951  0.1415  0.1219
18548W        W34165  11.060   0.708   2.629  0.2364  0.3280  0.3131
18549W        W34166   2.776   6.499   1.283  0.1505 -0.1270  0.0619
18550W        W34167  11.317  17.687   1.062  0.1867  0.2197 -0.3271
18551W        W34168   5.169   0.344  15.386  0.0855 -0.1446 -0.0380
18552W        W34169   2.251  16.276  12.473 -0.0419  0.1488  0.2168
18553W        W34170  12.355   8.461  15.506 -0.0190  0.2303  0.0984
18554W        W34171   6.578   2.323   4.159  0.2502  0.3185  0.1412
18555W        W34172  17.212  14.122   0.784 -0.0819  0.0256  0.0153
18556W        W34173   3.591  13.285  13.232 -0.0434 -0.0603  0.0475
18557W        W34174   7.278  12.158   4.719  0.1445  0.0432 -0.0767
18558W        W34175   1.145   8.019  14.104  0.0262  0.1436  0.1452
18559W        W34176  13.364   9.532   1.507  0.0622  0.3154  0.2648
18560W        W34177   9.521   0.896   5.258 -0.0586 -0.1114 -0.0195
18561W        W34178   7.221   2.693  14.816 -0.1563  0.2012  0.1709
18562W        W34179  15.796   8.306   1.091  0.0889 -0.0146 -0.1656
18563W        W34180  13.498  13.772   3.780  0.2486  0.0010  0.1122
18564W        W34181  12.327   8.323  13.755 -0.0498 -0.0201 -0.0149
18565W        W34182  18.308   9.565  12.742 -0.4028 -0.0086  0.0231
18566W        W34183   5.356   6.251  15.349 -0.0797 -0.0515  0.2126
18567W        W34184  10.614   2.036   2.556 -0.1852 -0.0399 -0.4360
18568W        W34185   2.543   6.833   0.419  0.0185  0.2214  0.0309
18569W        W34186   1.275  18.160   4.486 -0.3075 -0.0214 -0.3024
18570W        W34187  13.267  11.611   6.054 -0.0393  0.0758  0.0418
18571W        W34188  13.825   0.420  11.799 -0.1435  0.0048  0.2806
18572W        W34189  15.742  16.254   0.617  0.2450 -0.2989  0.1322
18573W        W34190  12.543   4.484  15.185  0.0322 -0.0502  0.0732
18574W        W34191   7.350  16.591  15.127 -0.0365  0.0353  0.0443
18575W        W34192  13.545  13.806  15.714  0.0077 -0.0584  0.0797
18576W        W34193  18.025  17.952  14.933  0.1552 -0.1375  0.0399
18577W        W34194   2.480  10.552  12.119  0.3302  0.5265  0.1149
18578W        W34195   6.243  13.056  16.089  0.0704  0.2309 -0.1253
18579W        W34196   1.362   4.637   2.671 -0.1233 -0.0351  0.0698
18580W        W34197   9.212   0.318   4.601  0.1051 -0.1553  0.0388
18581W        W34198   8.485   0.824  12.329 -0.2272  0.1354  0.0326
18582W        W34199   5.139  17.261   4.042 -0.2068 -0.0286 -0.0474
18583W        W34200  13.444   1.450  11.649 -0.0615 -0.0541 -0.3509
18584W        W34201  10.973  16.514  15.654 -0.0582  0.1701 -0.1945
18585W        W34202  11.901  14.806   3.868 -0.0758  0.2106 -0.1877
18586W        W34203   3.143  12.897   4.906 -0.1022 -0.1654 -0.0835
18587W        W34204  11.594  17.320   0.239 -0.0879 -0.0390 -0.0271
18588W        W34205  12.785   5.350   0.747 -0.0963 -0.0680 -0.1642
18589W        W34206  10.400   8.335   1.929 -0.1451 -0.0892  0.1809
18590W        W34207   8.663  14.754   2.485  0.1505 -0.0643  0.1455
18591W        W34208  17.303  12.226   1.584  0.1044  0.1623 -0.0456
18592W        W34209   7.105  15.446   0.013 -0.0712  0.2580 -0.1464
18593W        W34210  18.368  10.854   1.273  0.1062 -0.1070  0.0046
18594W        W34211  13.734   1.281   5.449  0.0220  0.1537 -0.1801
18595W        W34212   2.001  10.019  12.745 -0.2226  0.0068 -0.0310
18596W        W34213  15.539   7.539   5.849 -0.1595  0.2091 -0.2066
18597W        W34214  10.300  17.111   1.280  0.0113  0.1453  0.0647
18598W        W34215  15.187   4.826   0.653  0.0800  0.0663  0.2199
18599W        W34216  12.842   9.271   2.314  0.2031  0.1755  0.0659
18600W        W34217  11.056   1.757   1.968  0.0498 -0.1299  0.3245
18601W        W34218   2.268  10.505  11.046 -0.0530 -0.1030 -0.0285
18602W        W34219  16.993  11.121  15.924  0.0674 -0.0322 -0.2043
18603W        W34220   0.143   2.291  14.910 -0.2333  0.3670 -0.0608
18604W        W34221  16.306   6.244  11.005  0.1028  0.2617  0.1568
18605W        W34222  14.216   4.733  10.855  0.1983 -0.0886  0.0783
18606W        W34223  17.183  15.543  13.070  0.2820  0.1356 -0.4697
18607W        W34224   0.542   2.035   2.930 -0.1379 -0.1236  0.1272
18608W        W34225  16.046  11.330   0.328 -0.1289  0.2608  0.2005
18609W        W34226  16.445   2.508  11.824  0.0984 -0.2330 -0.0868
18610W        W34227   3.148   0.971  12.889 -0.0438  0.2085  0.1361
18611W        W34228  14.080   1.912  13.670 -0.0994 -0.1738 -0.1184
18612W        W34229  15.133  15.756  15.673  0.2720 -0.0334  0.0312
18613W        W34230   1.901   0.025   3.819 -0.0160 -0.1374  0.0304
18614W        W34231   6.254   1.601   3.989  0.0221  0.1760 -0.1615
18615W        W34232  11.969  16.356  12.532  0.3358  0.1110 -0.0770
18616W        W34233  13.555  17.387   4.759 -0.2764  0.0574 -0.3227
18617W        W34234   3.129   8.284  14.424  0.1704 -0.0718  0.2428
18618W        W34235   5.690  14.061   5.784 -0.0923  0.3734  0.2001
18619W        W34236   8.234  15.577   4.059 -0.3955  0.0574 -0.0644
18620W        W34237   8.329  18.441  15.310  0.2183 -0.1097  0.2190
18621W        W34238   3.576   1.628  14.600 -0.1993 -0.0555  0.2365
18622W        W34239   9.719   2.988  12.022  0.0938  0.0510 -0.0977
18623W        W34240   3.594   3.058  12.182 -0.2791 -0.2197  0.0487
18624W        W34241   8.688  12.894   2.791  0.3493 -0.1074 -0.1236
18625W        W34242   2.900   1.272  15.157 -0.0106 -0.0498 -0.2545
18626W        W34243  13.385   3.536   3.748  0.0930  0.1410  0.0184
18627W        W34244  11.080   6.769   4.438 -0.2392  0.4156 -0.0139
18628W        W34245   0.616   3.028   2.605  0.0330  0.1275  0.1680
18629W        W34246  13.786  15.318   0.940 -0.2102  0.0060 -0.0478
18630W        W34247   0.895   5.509  11.818  0.2150  0.2086 -0.1396
18631W        W34248  16.276   4.869   3.786 -0.2282  0.0750  0.6093
18632W        W34249   2.307   0.916   4.696  0.1395  0.0057  0.2764
18633W        W34250   6.200  13.821  14.684  0.2845  0.1115  0.2115
18634W        W34251   8.976   2.596   5.172  0.2174  0.1012 -0.2274
18635W        W34252  17.062   8.866   5.516  0.1592  0.1218  0.1621
18636W        W34253   8.260  13.686  14.699  0.1401 -0.2985  0.2363
18637W        W34254  14.316   3.973  11.438  0.2594 -0.1144 -0.3174
18638W        W34255   9.592  11.549   5.706  0.0706  0.0455 -0.3101
18639W        W34256   6.289  11.239  14.820  0.0116 -0.0219  0.0238
18640W        W34257  11.109  13.642   0.125 -0.1716  0.0407  0.0828
18641W        W34258   8.229  12.400  14.617 -0.2368  0.4376 -0.2015
18642W        W34259   3.569   0.848  13.390  0.0322 -0.0340  0.4266
18643W        W34260   2.123   4.621   2.226  0.0626  0.0009 -0.3061
18644W        W34261   9.274  14.083  15.459  0.1814  0.3635 -0.0542
18645W        W34262   1.453  15.422   6.158 -0.1158 -0.2199  0.0415
18646W        W34263  10.256  17.052   4.201  0.0418  0.0451 -0.1107
18647W        W34264   9.759  15.318  14.291 -0.5197  0.0608  0.4001
18648W        W34265   0.347   6.609   3.405 -0.0956  0.2600 -0.3653
18649W        W34266  16.582  16.043   0.530 -0.1830 -0.1353  0.1281
18650W        W34267   6.019  14.437   5.644 -0.1595  0.2924 -0.1264
18651W        W34268   2.807   0.959  15.650 -0.2579  0.1747 -0.1304
18652W        W34269  13.936  13.914   4.522  0.1703  0.0093  0.3146
18653W        W34270   4.498  14.693  11.599 -0.4181  0.0687  0.1330
18654W        W34271   9.154   1.935   1.103 -0.2101 -0.2295 -0.1566
18655W        W34272  12.400   8.627  12.856 -0.1622 -0.2771 -0.0137
18656W        W34273   9.601  10.701   2.623  0.1212 -0.5955  0.2210
18657W        W34274  10.483   3.880   3.342 -0.0176 -0.1484  0.0768
18658W        W34275   3.162   1.608  14.297 -0.0386 -0.1565  0.0062
18659W        W34276   7.454   2.903   2.142  0.2741  0.4640  0.1189
18660W        W34277  15.345   0.040  10.724  0.3284 -0.3172  0.1961
18661W        W34278  16.960  14.178  15.974  0.2135 -0.3988 -0.1873
18662W        W34279   4.349  13.939  13.241  0.1751 -0.2101 -0.1418
18663W        W34280   6.448   8.304  10.704 -0.2331 -0.1143  0.2985
18664W        W34281  17.952   7.053  10.940  0.1681  0.1095 -0.2656
18665W        W34282   8.022  16.232   4.980 -0.1208  0.3967 -0.6217
18666W        W34283  15.600  10.511   0.660 -0.3161 -0.0990  0.1185
18667W        W34284   0.537   3.013   4.557  0.1559 -0.0469  0.3280
18668W        W34285   6.699   6.910   4.068  0.0426 -0.0507  0.1173
18669W        W34286   4.878   1.479   2.580  0.2762  0.0038 -0.0022
18670W        W34287   8.047   9.528  15.380  0.3598 -0.1105  0.2379
18671W        W34288  15.140   4.262   0.351  0.0412 -0.1143 -0.1330
18672W        W34289  11.126   0.737  10.822  0.4222  0.2220  0.3036
18673W        W34290  11.155   5.371   4.696 -0.1511  0.0604  0.1806
18674W        W34291  15.396  18.098   2.782 -0.3025  0.1995 -0.0455
18675W        W34292   5.150   3.621  14.881  0.0606  0.0590  0.1106
18676W        W34293   8.583  15.809   5.055 -0.3308  0.1960 -0.1518
18677W        W34294  14.848   3.230   4.740  0.3671 -0.0403 -0.0497
18678W        W34295  15.088  14.893  10.735  0.2157 -0.2033 -0.1049
18679W        W34296   2.009  16.549   0.340  0.1930 -0.2960  0.1003
18680W        W34297   2.120   5.033  11.303 -0.0086  0.1492  0.1773
18681W        W34298   3.218   6.513  11.875  0.2441  0.0825  0.0456
18682W        W34299  12.081   1.001  15.585 -0.0997  0.1723 -0.0950
18683W        W34300  10.264  15.276  14.289  0.1313 -0.1096 -0.2167
18684W        W34301   2.129  10.324   0.376 -0.1167 -0.0817  0.0450
18685W        W34302   5.588   1.158   3.173 -0.1474  0.0849 -0.0636
18686W        W34303   9.686   5.272  14.321  0.2836 -0.0108 -0.0546
18687W        W34304   5.253   1.776  10.226 -0.0965 -0.3947  0.1904
18688W        W34305  10.349   7.920   3.574 -0.0653  0.0061  0.1546
18689W        W34306  14.144   6.716  13.876 -0.2329 -0.1756  0.1890
18690W        W34307  11.319   1.737  10.793  0.0680 -0.2193  0.3585
18691W        W34308   6.024  17.825  12.976  0.0240 -0.1095 -0.2912
18692W        W34309   4.567   3.113   3.479  0.0620  0.0058 -0.1815
18693W        W34310   9.479  11.959  14.507  0.1180  0.0489  0.2028
18694W        W34311   9.802  13.750   2.120 -0.3086 -0.1995 -0.1775
18695W        W34312   7.516   0.524   3.796  0.5096  0.1191 -0.0570
18696W        W34313  11.996  18.238  13.920  0.0906 -0.0172  0.0313
18697W        W34314  10.570  10.476   0.828  0.3206  0.0065  0.2030
18698W        W34315  13.225  16.434  12.015  0.2939 -0.1134 -0.2372
18699W        W34316  11.045  13.952   1.833 -0.1349 -0.2888  0.1588
18700W        W34317   1.807   8.862  15.605  0.0770 -0.1343 -0.1900
18701W        W34318  11.268  17.495   1.562  0.0162 -0.0398 -0.2341
18702W        W34319  11.854  13.819   1.538 -0.2667  0.1660  0.1962
18703W        W34320  13.430  11.656   2.836  0.3573 -0.1103 -0.0462
18704W        W34321  11.411  10.480   3.151 -0.3219  0.1226  0.1544
18705W        W34322   9.425   4.130  11.018 -0.0161  0.0399  0.1549
18706W        W34323   2.134  14.641   5.445  0.1257 -0.1831  0.0732
18707W        W34324   7.817  13.784  10.574 -0.0754 -0.1333  0.1888
18708W        W34325  16.917  15.350   0.495  0.2520  0.1362  0.4136
18709W        W34326  16.667  14.520   1.285  0.1036 -0.2066  0.1897
18710W        W34327  11.339   6.112   4.189 -0.3440 -0.0014  0.2691
18711W        W34328   3.130  16.041  15.110  0.0366  0.1421  0.0192
18712W        W34329   7.795  12.436   2.519  0.1366  0.2586  0.2443
18713W        W34330   7.923   4.207   1.692 -0.0975  0.2607 -0.0477
18714W        W34331   6.148   2.938  16.041 -0.3944 -0.1570 -0.0438
18715W        W34332   4.310  15.968   5.435  0.3069  0.0164 -0.3005
18716W        W34333  15.282   3.265  10.934 -0.2419  0.0695  0.1349
18717W        W34334   8.223   6.259   4.719 -0.0731  0.0756  0.0831
18718W        W34335  12.097  13.519   1.108  0.0938 -0.1204  0.1293
18719W        W34336  12.264   0.698  16.056  0.3209 -0.3694 -0.2830
18720W        W34337  11.588   3.791   1.201  0.1185  0.3791  0.0451
18721W        W34338  14.418  12.539   2.940  0.1181  0.1390  0.1588
18722W        W34339   2.106   8.239  13.101 -0.0576  0.1359 -0.2664
18723W        W34340   9.674  17.238   0.548  0.0567  0.0208  0.0978
18724W        W34341  12.217   3.504   1.879  0.1271 -0.3370 -0.0807
18725W        W34342  16.984   8.034   0.288  0.0705 -0.0693  0.1397
18726W        W34343  15.985  14.052   3.322 -0.0840 -0.0359 -0.3532
18727W        W34344   2.719   4.732  15.048  0.4593 -0.2974  0.0206
18728W        W34345  16.923  17.906  13.823 -0.0406  0.1314  0.1991
18729W        W34346   4.447   0.031   1.474  0.0176 -0.0475  0.1837
18730W        W34347   3.888   5.789   3.154 -0.0625  0.1921  0.0845
18731W        W34348   4.394   8.457   1.953 -0.0033  0.0307 -0.2015
18732W        W34349   1.674  10.220   5.992 -0.3164 -0.3559  0.2725
18733W        W34350  16.986   6.058  13.311 -0.1728 -0.1013  0.4062
18734W        W34351   6.542  10.025   3.672 -0.1205 -0.2303  0.0005
18735W        W34352   5.897   6.555  11.003 -0.3280 -0.0653 -0.2375
18736W        W34353   3.143   8.044  13.004 -0.0142  0.0017  0.0337
18737W        W34354   0.986  11.726  11.441  0.1214 -0.3131  0.0151
18738W        W34355   4.442   6.204   3.075 -0.4179  0.0818  0.2281
18739W        W34356  12.574  13.484  12.362  0.0438 -0.0519 -0.2472
18740W        W34357  13.683  14.565   5.382  0.0704  0.0511  0.0147
18741W        W34358   9.687  16.070   0.797  0.2148 -0.0943  0.6685
18742W        W34359   1.222  17.841  15.975 -0.0913 -0.1347  0.2486
18743W        W34360  16.053  15.336  11.197 -0.1472  0.1121  0.1403
18744W        W34361   1.390  13.870   1.892  0.0232 -0.1875  0.3557
18745W        W34362  13.480   0.948  12.936 -0.0006  0.0774  0.0379
18746W        W34363   0.980   6.938  15.448  0.1603 -0.1472 -0.2373
18747W        W34364   9.166   2.410  13.612 -0.0139 -0.0905 -0.2735
18748W        W34365   6.254  17.077  15.716  0.2899 -0.0307 -0.0631
18749W        W34366   5.968   9.507   2.386  0.1715  0.2654  0.2656
18750W        W34367  16.047  14.358   5.233 -0.0755 -0.0020 -0.1154
18751W        W34368   8.458   5.635   1.623  0.0939 -0.1679  0.0661
18752W        W34369  18.288  13.714   3.483  0.0241  0.2364 -0.2818
18753W        W34370  14.719  12.768  13.929 -0.2577 -0.0547  0.1435
18754W        W34371   0.938  11.191   1.578 -0.0981  0.1890  0.0968
18755W        W34372   1.552  11.397   0.092  0.0266  0.0714 -0.3947
18756W        W34373  13.340   5.486   4.865  0.0374 -0.3110  0.1542
18757W        W34374  11.153   7.968  11.927  0.0493  0.1356  0.0229
18758W        W34375  14.135   6.750   0.048  0.2197  0.2862  0.4972
18759W        W34376  15.989   1.190   5.238  0.2186  0.0426  0.2683
18760W        W34377  11.975  15.524  10.372 -0.0568 -0.0112 -0.0824
18761W        W34378   2.437   9.930  15.085  0.0796 -0.0138  0.0468
18762W        W34379   0.348   0.628   5.639 -0.5634  0.1968  0.1109
18763W        W34380   4.363   6.847  12.917 -0.0810  0.3945 -0.1989
18764W        W34381  10.513  12.850  12.923 -0.3567  0.1567  0.0492
18765W        W34382  15.029  18.276  11.415 -0.1692  0.0491 -0.4263
18766W        W34383   5.741   3.371   4.976 -0.1352 -0.0676 -0.1402
18767W        W34384  13.132  15.615  13.615  0.0666 -0.0425 -0.2087
18768W        W34385  13.150  13.439   0.325 -0.0874  0.0284  0.2616
18769W        W34386   4.390  14.940   3.867 -0.3852  0.0812  0.3772
18770W        W34387   5.932  18.328   3.668 -0.2773 -0.0990 -0.1146
18771W        W34388  11.780   7.931   0.959  0.0122 -0.0324 -0.1639
18772W        W34389  12.864   9.232   1.555  0.0726 -0.0068 -0.2662
18773W        W34390  17.346   2.684   0.136  0.1607 -0.0881  0.2253
18774W        W34391   4.633  18.056   0.816 -0.0092  0.0428 -0.0522
18775W        W34392   4.496   7.253  10.162  0.3297  0.1249 -0.0069
18776W        W34393   3.145  11.052  15.521  0.0757 -0.0237  0.0875
18777W        W34394   0.710   3.507   4.741  0.1961  0.0545 -0.1797
18778W        W34395   1.033  10.300  13.491 -0.0962 -0.1239  0.0500
18779W        W34396   0.025   1.647   1.201  0.0309 -0.0093  0.2648
18780W        W34397  13.766   3.097  13.425  0.0398 -0.3427  0.1000
18781W        W34398   6.308   0.652  16.030 -0.0412  0.1879 -0.0061
18782W        W34399  11.321  13.549   1.958 -0.0167 -0.3475 -0.1010
18783W        W34400   1.685   7.169  13.993  0.0311 -0.0511 -0.2990
18784W        W34401  13.978  13.631  12.848  0.5422  0.0237 -0.4261
18785W        W34402  10.134   0.289   4.505  0.0816 -0.0564  0.1637
18786W        W34403   0.308   6.572  14.553 -0.1496  0.0777 -0.0026
18787W        W34404   4.708  11.805  14.865 -0.1762  0.1123  0.2373
18788W        W34405   8.542  17.778  11.836 -0.1225  0.1965  0.0539
18789W        W34406  13.684  18.433  15.942 -0.1454  0.1433  0.1984
18790W        W34407   6.724  12.500   6.259 -0.0599  0.0542  0.2606
18791W        W34408   7.761   5.040   2.103  0.0764  0.1116  0.2545
18792W        W34409   7.961   3.173  15.194 -0.1153  0.0413 -0.0466
18793W        W34410  17.226  16.853   4.702  0.2414  0.0703 -0.0202
18794W        W34411  17.179  17.177  12.681 -0.1566 -0.1671 -0.0012
18795W        W34412  14.515   1.840  12.527 -0.2196 -0.1611 -0.0124
18796W        W34413   0.672  16.178  10.450 -0.0873  0.0614 -0.0251
18797W        W34414  15.430   9.118   2.357  0.1117 -0.1396 -0.0284
18798W        W34415   5.309   2.854  13.609  0.3049 -0.0538  0.0452
18799W        W34416  17.902  18.432  11.929 -0.1667 -0.3818  0.2951
18800W        W34417   0.425   3.277   2.062  0.1517 -0.1531  0.0074
18801W        W34418  12.121   4.567  12.866 -0.3553  0.1251  0.0195
18802W        W34419  12.945  12.505  11.235  0.6483 -0.1162  0.1669
18803W        W34420  14.848   8.373   2.662 -0.1625  0.3086 -0.0101
18804W        W34421  15.596  16.948  14.713 -0.1619 -0.0458  0.1979
18805W        W34422  16.508   7.524  11.707  0.1329 -0.2080  0.0817
18806W        W34423   7.367  12.117  13.707 -0.0581 -0.3692 -0.0816
18807W        W34424   6.569  10.176  11.938 -0.2761  0.1099  0.3222
18808W        W34425  17.892  17.504   1.372 -0.0551  0.0937 -0.3001
18809W        W34426   0.225  18.302  13.242  0.0584  0.1805  0.0336
18810W        W34427   0.479  10.490   3.560 -0.0168  0.0016  0.2749
18811W        W34428   9.041  14.383   3.336  0.0240  0.1539 -0.1054
18812W        W34429   3.170  10.201  16.030  0.0943  0.2912  0.0033
18813W        W34430   9.882   5.015  15.990 -0.1170  0.1089 -0.1615
18814W        W34431   7.154  10.889   5.117 -0.0059  0.0474  0.0669
18815W        W34432   6.946   4.139   4.905 -0.0373  0.1068 -0.0467
18816W        W34433  10.727   6.263   4.912 -0.0453  0.0613  0.2070
18817W        W34434   5.733   5.852  14.335 -0.2581 -0.0318  0.0959
18818W        W34435   2.216   7.987   2.083 -0.1336  0.2573 -0.1165
18819W        W34436  11.202   6.451   0.596 -0.3384 -0.4189  0.3291
18820W        W34437  15.800   3.900   5.335 -0.1789  0.0807 -0.2390
18821W        W34438   9.443   9.227   1.817  0.0010  0.0846 -0.0106
18822W        W34439   1.723  14.760   3.412  0.2631  0.1194 -0.0674
18823W        W34440   2.933  14.492  14.609  0.1027  0.1720  0.0310
18824W        W34441  11.900   0.952   1.601  0.2080  0.1590 -0.2298
18825W        W34442  13.162  11.933   1.132 -0.2486 -0.0374  0.1522
18826W        W34443   0.551  13.527   2.156 -0.1632 -0.2224  0.0971
18827W        W34444  10.323  17.976   0.300  0.0497 -0.2601  0.0486
18828W        W34445   4.216   1.895   0.826 -0.1371  0.1075  0.0469
18829W        W34446  16.979  10.613  15.846  0.2346  0.2008  0.1847
18830W        W34447   7.017   8.839   2.605  0.0595 -0.2356  0.0462
18831W        W34448   1.803  14.391   5.948  0.4066  0.0497  0.4137
18832W        W34449  13.903   5.175  13.006 -0.1954 -0.1776  0.2220
18833W        W34450  15.513  13.010  13.543 -0.1021 -0.0971  0.2309
18834W        W34451  16.247   1.578   4.849  0.0125 -0.0934 -0.1259
18835W        W34452   2.906  14.918   5.780 -0.2331  0.2583  0.0975
18836W        W34453  14.901   9.265  15.501 -0.0600 -0.3764 -0.1844
18837W        W34454   9.183  12.623  15.640 -0.2299  0.0399 -0.3911
18838W        W34455   8.233  18.305   1.749  0.3318 -0.0358  0.0076
18839W        W34456   9.442   8.861   1.075  0.0128  0.1680  0.2681
18840W        W34457  14.604   1.547   0.503  0.0831 -0.1912 -0.2472
18841W        W34458   5.066   1.332  11.253 -0.1101  0.0652  0.1133
18842W        W34459  13.659   4.726   2.532 -0.0788 -0.1394  0.0609
18843W        W34460   6.237  12.525   5.417  0.0712 -0.3059 -0.2009
18844W        W34461  17.370   3.390   2.442 -0.2198  0.4868  0.0803
18845W        W34462   4.058   2.625  11.171  0.1722 -0.2166  0.4569
18846W        W34463   5.830   7.941  10.987 -0.1810 -0.0965  0.0595
18847W        W34464  15.789   9.989  14.464 -0.5083 -0.1853  0.1767
18848W        W34465   6.141   4.791  16.128  0.1441 -0.0602  0.1065
18849W        W34466  11.101   3.595   0.959  0.3176 -0.0261  0.1267
18850W        W34467   7.533  11.078   4.850  0.0850 -0.0861  0.2486
18851W        W34468   7.212  13.603  11.682  0.1285  0.3444 -0.1870
18852W        W34469  12.661  12.169   3.375 -0.3677  0.3467  0.2634
18853W        W34470   6.160   0.134  11.512 -0.1367 -0.1428 -0.2708
18854W        W34471   5.313  12.156  15.477 -0.2358 -0.1193 -0.1275
18855W        W34472  14.661   3.151  11.332 -0.0570  0.5424  0.0693
18856W        W34473  17.722   5.764  14.320  0.1408 -0.0129  0.0785
18857W        W34474   4.857   9.196   0.879  0.0799 -0.0588 -0.0565
18858W        W34475   6.513   9.887  14.809  0.0142 -0.1378  0.2385
18859W        W34476   7.922   4.979  11.756  0.4322  0.0138  0.0772
18860W        W34477  10.291  15.148   4.558  0.1009 -0.0197  0.2348
18861W        W34478   7.582  16.396   0.954  0.3401 -0.2010 -0.2815
18862W        W34479  16.747   6.042   1.780  0.0690 -0.2673  0.0625
18863W        W34480  13.023  13.195  12.429 -0.0632  0.0012  0.1794
18864W        W34481   2.074  11.699  14.791 -0.4676  0.1955 -0.0328
18865W        W34482  10.920   4.405   4.886  0.1269  0.1633  0.0101
18866W        W34483   0.179   4.842   4.867  0.0612  0.2794 -0.5070
18867W        W34484  15.515   0.988  14.543 -0.2778  0.2419 -0.1825
18868W        W34485  14.318   5.540   3.141  0.0648 -0.0238  0.0799
18869W        W34486   6.035   8.623  15.211  0.1606 -0.0326  0.2813
18870W        W34487   6.064  10.271  14.896 -0.0960  0.0013 -0.2101
18871W        W34488  11.233  16.869   0.790 -0.0642 -0.0737 -0.1574
18872W        W34489  18.126  15.718   4.848 -0.2223 -0.0895  0.0576
18873W        W34490   1.694  12.003   1.082  0.2412 -0.4450 -0.2667
18874W        W34491  11.386   1.661  13.922 -0.0168 -0.2684  0.3540
18875W        W34492  13.314  14.676  15.702 -0.0413 -0.0616  0.2650
18876W        W34493  12.399  15.580  13.211 -0.1274 -0.0400  0.0032
18877W        W34494   8.733  11.265  12.623  0.1707 -0.3442 -0.1074
18878W        W34495  10.718  11.422  12.681  0.1480 -0.0103 -0.0491
18879W        W34496  13.467   4.199  14.207  0.0040 -0.0881  0.1340
18880W        W34497  15.822  10.025   1.497 -0.4918  0.0917  0.0291
18881W        W34498  12.446  17.163   3.806 -0.0128  0.0777  0.1565
18882W        W34499  11.306   0.525   2.256 -0.2561  0.1164 -0.0279
18883W        W34500   6.253   9.701  11.685  0.1391  0.1821 -0.3730
18884W        W34501  15.234   0.168   4.085  0.2732  0.0954  0.3941
18885W        W34502   2.378  11.630   0.372 -0.1671 -0.1547  0.0578
18886W        W34503   1.122   6.688   0.768 -0.1620  0.1211 -0.3525
18887W        W34504  10.780  14.044   4.132 -0.2244  0.1223  0.1588
18888W        W34505  12.640   7.887  15.444  0.0315  0.0591  0.1893
18889W        W34506   5.691  15.810  14.627  0.1939 -0.2133  0.0063
18890W        W34507   8.105   2.324   3.829 -0.0480 -0.0892 -0.0556
18891W        W34508   2.988  11.061   4.470 -0.0960  0.1897  0.2379
18892W        W34509   4.976   3.300   0.802 -0.3079 -0.0277  0.2198
18893W        W34510   5.237  15.637  12.413 -0.0168 -0.0547 -0.0609
18894W        W34511   0.514  11.456  14.111  0.1725 -0.0062  0.0677
18895W        W34512   1.298   3.346   3.109 -0.1618  0.2704  0.2252
18896W        W34513   3.480  14.050  14.828 -0.1802  0.1067  0.1248
18897W        W34514   3.607  16.574  16.136  0.0137 -0.0220 -0.1097
18898W        W34515   4.962   5.748  14.625 -0.2365 -0.1534 -0.0463
18899W        W34516   9.668  16.658  11.338 -0.0832  0.0349  0.0631
18900W        W34517   5.191   4.961  16.014 -0.1605 -0.4320 -0.1751
18901W        W34518   8.897   5.130  12.229 -0.1769  0.4271 -0.2145
18902W        W34519  11.609   0.634   0.609  0.1045  0.2904  0.0750
18903W        W34520  10.435   0.093  12.350  0.3022  0.4427  0.1518
18904W        W34521   0.714  14.228  11.654  0.2077  0.0378  0.0518
18905W        W34522  11.802  13.122  14.126  0.1326 -0.0219 -0.2259
18906W        W34523  10.593  10.073  11.648  0.3811  0.1016  0.0601
18907W        W34524  13.058  12.127  12.464 -0.0886 -0.1322 -0.1083
18908W        W34525   5.612  14.630   4.041  0.0210  0.3741 -0.3284
18909W        W34526  12.196   4.422  15.888 -0.2088 -0.1756  0.2512
18910W        W34527   1.836  12.707  15.558  0.1114 -0.1334 -0.1036
18911W        W34528   5.277   1.793  16.120  0.0283  0.0031  0.0728
18912W        W34529  13.631  15.565  13.701 -0.0191 -0.1222  0.4111
18913W        W34530   8.038   3.134  13.826  0.0197  0.1033 -0.1112
18914W        W34531   4.665  15.268  14.639  0.1402  0.0564  0.6382
18915W        W34532   4.899  15.933   1.163 -0.3172 -0.2052  0.0597
18916W        W34533   6.989  17.435   0.254 -0.1122  0.3096  0.1976
18917W        W34534   6.849  12.760  15.129  0.4365  0.1542 -0.0008
18918W        W34535   3.779   7.482   1.758 -0.1265  0.1759  0.3057
18919W        W34536   0.786  17.006   2.929 -0.0279  0.3096  0.2122
18920W        W34537  18.162   2.897   0.788  0.0144 -0.0989  0.4164
18921W        W34538  11.539  15.201   4.757 -0.0966 -0.4118 -0.0731
18922W        W34539  11.785   0.691   4.543  0.4071  0.2324 -0.3014
18923W        W34540  16.123  12.125   0.283  0.0152 -0.0575 -0.1924
18924W        W34541   3.875   2.365  15.839 -0.1778  0.0300 -0.2310
18925W        W34542   3.827  11.752  15.151 -0.5052  0.2306  0.0138
18926W        W34543  12.411  12.567  13.800 -0.0763 -0.1327  0.0351
18927W        W34544   6.792   4.930   3.170  0.0055  0.1319  0.0531
18928W        W34545  17.661  15.341  15.653 -0.0728 -0.2385  0.1609
18929W        W34546   0.674   4.806   5.230 -0.2206 -0.1357  0.2172
18930W        W34547  15.853   8.616  11.654  0.0982  0.1975 -0.2377
18931W        W34548  16.584   9.687  15.717  0.1211  0.1559  0.2424
18932W        W34549   0.988   9.949   6.281  0.1261 -0.2294 -0.1278
18933W        W34550  14.431  10.854   3.017 -0.0482 -0.0723 -0.2088
18934W        W34551   5.720   4.585   3.825 -0.1279  0.1232  0.0414
18935W        W34552   5.092   5.680  14.057  0.1931  0.3478  0.0198
18936W        W34553  11.687   8.490  11.388  0.0205  0.0214  0.2527
18937W        W34554   6.504   7.082  11.124 -0.1988 -0.1257  0.0329
18938W        W34555   2.528   2.285  11.839  0.2425 -0.0190 -0.4056
18939W        W34556  17.714   7.342   1.362 -0.2623 -0.2087  0.0636
18940W        W34557  12.036   1.448  11.461 -0.0188 -0.1574 -0.0055
18941W        W34558   9.252  14.620  13.863 -0.0266  0.2219  0.0219
18942W        W34559   5.193   4.221   4.478  0.0658 -0.1263 -0.2194
18943W        W34560   1.737   3.618  11.692  0.0683  0.1596 -0.3497
18944W        W34561   4.796  14.041   0.469  0.3812  0.0192 -0.0696
18945W        W34562  13.790   8.517  13.702 -0.0875  0.1209 -0.0798
18946W        W34563  16.981   3.751   0.463 -0.1321  0.2991 -0.2263
18947W        W34564   8.313  17.830  12.360  0.0815  0.2614 -0.1102
18948W        W34565  11.063   8.674   1.124  0.1996 -0.1059  0.0016
18949W        W34566  13.074  12.387   0.245  0.2045 -0.1551 -0.3185
18950W        W34567   5.293  18.122  13.037  0.2633 -0.0171 -0.2637
18951W        W34568  10.927  17.423   3.390 -0.2435 -0.1155 -0.2002
18952W        W34569   0.676   4.837   1.473  0.3211 -0.0318  0.1972
18953W        W34570   8.451   0.892   4.622 -0.3564 -0.2128  0.0786
18954W        W34571   9.776   5.899   5.312 -0.0526  0.3052  0.0839
18955W        W34572  14.534   4.378   4.890  0.0395  0.0948 -0.1832
18956W        W34573  17.273  11.018   5.127 -0.3295  0.2711  0.0113
18957W        W34574  15.880   4.107  11.703  0.0098  0.2846 -0.0083
18958W        W34575  10.838  15.187  12.982  0.0591  0.0602 -0.1770
18959W        W34576   5.999   8.674  11.770 -0.2981 -0.2766 -0.0739
18960W        W34577  15.890   6.476   0.349 -0.1119  0.0013 -0.0120
18961W        W34578  16.403   7.205   3.545  0.1282 -0.0498  0.2747
18962W        W34579  11.986   0.589   3.132  0.0080  0.1495  0.3400
18963W        W34580  15.233  11.521  16.125  0.0770 -0.1814 -0.3522
18964W        W34581  12.957  12.017   2.725 -0.0240 -0.2680  0.0151
18965W        W34582  14.158   5.661  15.212  0.1136  0.0257  0.1267
18966W        W34583  13.068   1.707  13.505  0.0879  0.2561  0.0986
18967W        W34584   9.942   8.428   1.735  0.0301  0.2615 -0.1732
18968W        W34585  16.495  13.346   4.889 -0.0253 -0.2043  0.1373
18969W        W34586   2.116   4.999   0.921  0.2054 -0.2728  0.0170
18970W        W34587   9.046  17.613   6.353 -0.1664 -0.0366  0.1782
18971W        W34588  16.180  14.172   1.836  0.0256 -0.1137 -0.1759
18972W        W34589   8.592  11.311   1.415  0.0000 -0.1619 -0.3212
18973W        W34590  12.793   3.214   1.187 -0.1475 -0.0118  0.1122
18974W        W34591  13.873   8.359   4.511  0.1122 -0.0508 -0.0389
18975W        W34592   3.459   7.307  11.508  0.2436  0.0689 -0.2714
18976W        W34593   7.783  15.870   0.457  0.1773  0.1920  0.1412
18977W        W34594   0.094  11.406   5.024  0.1209 -0.1184  0.1711
18978W        W34595   8.450   2.726   4.919  0.1403 -0.4922  0.0001
18979W        W34596   9.782   5.780   4.806  0.3090 -0.0912 -0.0502
18980W        W34597   2.694  18.066   4.317 -0.0045 -0.1493  0.1563
18981W        W34598   3.876  16.002  14.500  0.0978  0.1637  0.2222
18982W        W34599  13.205   4.686  11.891 -0.1673 -0.1833 -0.0971
18983W        W34600   4.760  15.288   2.959 -0.1502  0.1363 -0.2454
18984W        W34601   1.050   7.637   1.871 -0.3235  0.0541  0.3201
18985W        W34602   1.447  16.287   2.638 -0.0025  0.0031  0.0888
18986W        W34603   6.387  16.758   4.331 -0.2570 -0.0334  0.0331
18987W        W34604   2.356  13.890  16.103  0.0196 -0.2100  0.1196
18988W        W34605   8.050   5.382  14.880 -0.2697  0.3471 -0.1584
18989W        W34606   4.271   8.667  12.377  0.1784 -0.0856 -0.2039
18990W        W34607   4.998  14.437   0.175 -0.0925 -0.0532 -0.0007
18991W        W34608   5.098  10.580   0.584  0.0292  0.3828  0.1811
18992W        W34609   2.929  17.891   6.562  0.1440 -0.1154  0.4242
18993W        W34610  10.322  15.796  15.703 -0.0513 -0.0864  0.0296
18994W        W34611   1.007   4.656   2.336 -0.1018 -0.1726  0.1049
18995W        W34612   8.283   2.595   2.569  0.0417 -0.0618  0.1757
18996W        W34613   2.018   1.953   5.554 -0.1119 -0.0898 -0.0356
18997W        W34614   1.464  13.518  14.480 -0.1383 -0.0051 -0.1635
18998W        W34615   6.624   1.770   0.380  0.0136  0.0795 -0.1939
18999W        W34616   6.530  13.418  15.816 -0.0446 -0.0729  0.2867
19000W        W34617  14.589  16.187   4.723 -0.1538  0.1567  0.2646
19001W        W34618   9.328   9.772  13.521  0.0996 -0.3404 -0.1376
19002W        W34619   2.855   0.489  15.330  0.2621 -0.2547 -0.3685
19003W        W34620  16.912  17.544   4.224 -0.1646 -0.1387 -0.1068
19004W        W34621  14.311  10.951  15.490  0.0779  0.3757 -0.2245
19005W        W34622   0.857  10.732  12.105  0.1935 -0.0492  0.1603
19006W        W34623  18.003  13.768   3.968 -0.1710 -0.2119 -0.2536
19007W        W34624  16.503  16.460   4.304  0.2875 -0.0331  0.3694
19008W        W34625  15.174   4.703  14.723  0.1612 -0.0343  0.1491
19009W        W34626   0.367  17.719  12.543 -0.1742 -0.2885 -0.0445
19010W        W34627   4.364   4.916   2.954  0.1344 -0.1897  0.3447
19011W        W34628  17.101  13.648  15.954 -0.0823 -0.0549 -0.0113
19012W        W34629  14.378   7.214  15.886 -0.0321 -0.1422  0.1147
19013W        W34630  13.138   4.035  14.557  0.0946  0.0899 -0.0211
19014W        W34631   1.362   0.963   3.793  0.2201 -0.1112 -0.0782
19015W        W34632  15.921  17.330   4.090  0.0064 -0.0432 -0.5589
19016W        W34633  12.271   0.649   4.463 -0.3076 -0.5561 -0.2444
19017W        W34634   6.992  14.023   0.004 -0.0892 -0.2780  0.1340
19018W        W34635   6.899  13.054  13.071 -0.2008 -0.0952 -0.1090
19019W        W34636   5.594   2.919  13.996  0.1504 -0.1853 -0.4417
19020W        W34637  13.740  10.549  10.925 -0.1467  0.1395  0.0418
19021W        W34638  10.185   7.309   4.287  0.3116  0.0899 -0.0508
19022W        W34639  14.734   3.757   1.896 -0.1843  0.0248 -0.2918
19023W        W34640  10.735  14.368   1.054  0.2541 -0.3654  0.0882
19024W        W34641   8.835   9.347  13.165  0.1025  0.2007 -0.2668
19025W        W34642   2.281  16.240  13.555  0.4372  0.0227 -0.0645
19026W        W34643  15.797  14.806  11.327  0.3527 -0.1155  0.0071
19027W        W34644  15.695   7.656  13.608 -0.0104 -0.1584  0.1357
19028W        W34645  16.375   9.402   3.391 -0.0079 -0.1422 -0.0358
19029W        W34646  11.989  11.895   3.446 -0.2224  0.1330  0.2425
19030W        W34647   1.219  10.402  12.156 -0.0257 -0.1008 -0.2412
19031W        W34648   3.491   7.411   2.201  0.0858  0.0489  0.2610
19032W        W34649   4.875  18.307  13.941 -0.3641 -0.2652  0.3802
19033W        W34650   9.186   7.577  11.640  0.1516 -0.1171  0.2373
19034W        W34651   4.356   0.625  11.417 -0.1367  0.1197  0.2573
19035W        W34652  16.539  13.873  15.850  0.1013  0.2632  0.2073
19036W        W34653  17.596   3.168   0.243  0.2487  0.1276 -0.0998
19037W        W34654  16.748   5.904  11.956 -0.1472  0.0971  0.2503
19038W        W34655   4.308  12.843  11.809  0.1628 -0.1433 -0.0623
19039W        W34656   6.368   0.430  12.670 -0.2287  0.0332 -0.0752
19040W        W34657   3.049   6.558  15.208  0.1215 -0.0716 -0.2074
19041W        W34658   3.463   2.998  14.686 -0.0748 -0.0371 -0.2011
19042W        W34659  16.186   1.104   1.761 -0.0941 -0.1094 -0.0126
19043W        W34660  10.920  17.808   1.780  0.3269  0.0170 -0.0365
19044W        W34661  11.457  14.744   2.647  0.4331 -0.0739  0.2160
19045W        W34662   2.701   5.531   3.968  0.2346 -0.3643  0.0413
19046W        W34663   1.488   3.606  14.988 -0.2649 -0.3434  0.5488
19047W        W34664  10.471  13.716   2.346 -0.1110  0.0232 -0.1697
19048W        W34665   9.070   4.883  14.916 -0.4315  0.0159 -0.1531
19049W        W34666   0.259  15.236   1.382  0.1329 -0.0879 -0.3371
19050W        W34667  15.296  18.061   0.337 -0.0781  0.2996  0.0446
19051W        W34668   2.186   7.902  14.035  0.0496 -0.2778  0.0555
19052W        W34669  17.459  15.116   3.276  0.1221 -0.1975  0.0327
19053W        W34670   7.370   4.642   3.890 -0.0417 -0.1408  0.1930
19054W        W34671  16.222   3.616  13.561  0.0225 -0.1250  0.0184
19055W        W34672   4.819  14.659   2.251  0.1328 -0.1902 -0.2275
19056W        W34673  13.041   8.406   1.081 -0.2500  0.0129 -0.0316
19057W        W34674  16.735   4.578  12.907  0.0354 -0.0611  0.1244
19058W        W34675  10.473  10.751  14.507  0.3054 -0.0762  0.1132
19059W        W34676  17.311  15.713  14.057 -0.1838 -0.2965  0.0165
19060W        W34677  11.391  15.480   5.122 -0.0228  0.0625 -0.0152
19061W        W34678   2.143  14.756  15.591  0.0186  0.1213 -0.2360
19062W        W34679   9.625   7.636  11.920  0.1460  0.0080  0.1430
19063W        W34680  14.881   5.612   3.455  0.1344  0.2966 -0.0880
19064W        W34681   4.798   0.949  13.831  0.0611  0.1384 -0.2476
19065W        W34682   9.528   8.135  13.791 -0.3983 -0.1351  0.2485
19066W        W34683   2.581  14.512  12.184  0.4500 -0.1029  0.2471
19067W        W34684  15.822   2.587   5.395 -0.3226  0.1005  0.0917
19068W        W34685   3.711  14.138   0.518 -0.0990 -0.2074  0.0115
19069W        W34686  11.793  17.120  12.974  0.0232  0.0975 -0.1551
19070W        W34687   1.820   3.123   1.017 -0.0699  0.1336 -0.0341
19071W        W34688   0.774  10.281   2.469 -0.0125 -0.1130  0.1294
19072W        W34689  12.719   0.121   1.183 -0.1929 -0.2517  0.1233
19073W        W34690   3.039  16.562   5.311  0.0401  0.1131  0.4011
19074W        W34691   0.022  17.046   0.825  0.2216  0.1710  0.0998
19075W        W34692   7.576  17.932  14.480 -0.2809 -0.3144  0.0326
19076W        W34693   4.026   7.548   2.257 -0.2437  0.2761 -0.0061
19077W        W34694   6.897  10.443  13.765  0.3399 -0.0722 -0.0363
19078W        W34695   8.855  14.206   1.029 -0.2902  0.1703 -0.0847
19079W        W34696   8.787  17.476  10.988  0.1719 -0.0164 -0.3355
19080W        W34697   7.173   3.267  11.497  0.2255 -0.1400  0.0071
19081W        W34698   7.016   0.720   2.459  0.0688  0.0623 -0.0393
19082W        W34699  12.599  10.278   3.767  0.0281  0.1891 -0.0272
19083W        W34700   4.602  16.543   0.345 -0.0593  0.2106  0.1824
19084W        W34701  10.769  12.960  11.086  0.1100  0.1145 -0.3591
19085W        W34702   7.216  17.176  15.807 -0.2148 -0.0467  0.1442
19086W        W34703   6.971   0.319  12.678  0.0354 -0.1281 -0.0335
19087W        W34704  15.523  16.807   0.812 -0.2858  0.0056 -0.2187
19088W        W34705  11.304   2.819   3.647 -0.1266 -0.0973 -0.0542
19089W        W34706   0.599   6.538  10.998  0.0338 -0.0136  0.2279
19090W        W34707  10.175   8.413   0.541  0.3226 -0.0586  0.0834
19091W        W34708  11.933   8.802   4.007 -0.2471  0.2698  0.3710
19092W        W34709  12.697   5.323  11.559 -0.0631  0.0420 -0.1275
19093W        W34710  13.766  14.723  15.885  0.0056  0.4385  0.1243
19094W        W34711  15.539  16.349   3.712 -0.0206 -0.1202 -0.3560
19095W        W34712   2.038  16.288  11.944 -0.0226 -0.1115  0.0418
19096W        W34713   4.545   6.758   9.968  0.0914 -0.2688 -0.0235
19097W        W34714   1.224  17.813   4.961 -0.0259 -0.1729 -0.1666
19098W        W34715  13.314  14.646   4.301  0.2828 -0.1899 -0.1244
19099W        W34716  14.011   1.518   4.771  0.0485  0.0711  0.0208
19100W        W34717   2.832  18.079   1.037  0.1001  0.1338  0.1201
19101W        W34718   9.812   8.450   3.141  0.1322  0.2100 -0.1839
19102W        W34719  10.516   3.659  13.428  0.1831  0.0547  0.0456
19103W        W34720   2.272   6.758  14.574 -0.1124  0.1700  0.2648
19104W        W34721   3.397  12.051  11.517  0.3351  0.1654 -0.2261
19105W        W34722   6.801  16.757   1.434  0.1989  0.0294 -0.1033
19106W        W34723   3.319  13.203  13.645 -0.0696  0.1620 -0.0996
19107W        W34724  15.816  12.108  10.848  0.1173  0.0675  0.2390
19108W        W34725  14.052  13.498   5.940  0.0733  0.0414 -0.2072
19109W        W34726  15.564   4.324   5.155 -0.0252  0.0574  0.0086
19110W        W34727   4.814   7.400  12.429  0.0198  0.1812 -0.0207
19111W        W34728   6.659   9.840   2.764 -0.1106  0.2932 -0.3564
19112W        W34729   9.826   1.085   3.124  0.1462 -0.1173 -0.0759
19113W        W34730   2.275  17.344  12.363  0.0480 -0.0122  0.2756
19114W        W34731   5.709   4.232   2.323  0.1230  0.0996  0.0439
19115W        W34732  14.105  15.712   2.737 -0.2920  0.0609  0.2082
19116W        W34733   3.748   8.064  11.892 -0.3070 -0.1838  0.1535
19117W        W34734  13.203   0.400  12.230  0.2328 -0.1930  0.0443
19118W        W34735  16.020   9.890  12.094 -0.0427  0.2387 -0.1707
19119W        W34736   7.910   1.098   0.858 -0.0695 -0.1394  0.2226
19120W        W34737  14.875  11.538   4.440 -0.1217 -0.0397  0.0346
19121W        W34738   7.846   8.333  10.751  0.2513  0.1763  0.0085
19122W        W34739  11.413   3.814  13.576  0.0211  0.0157  0.1048
19123W        W34740  18.008   1.291   3.636 -0.0161 -0.1901  0.0864
19124W        W34741  11.668  15.396   4.187 -0.1548 -0.3104  0.1236
19125W        W34742  16.729  12.926   4.777  0.2321  0.1228  0.1945
19126W        W34743  16.565   6.119  11.429  0.0888 -0.0107 -0.2505
19127W        W34744   1.839  14.860   5.782 -0.0173 -0.1459  0.1761
19128W        W34745   8.914   4.579  12.237 -0.3281  0.0160 -0.4887
19129W        W34746   9.686   7.561   1.976  0.0611 -0.1802  0.1275
19130W        W34747   9.830   7.602   0.445  0.0566 -0.1532 -0.0665
19131W        W34748   9.865  12.300   3.838  0.3731 -0.1557  0.0859
19132W        W34749   3.384  11.480   1.682  0.0133  0.1110 -0.2943
19133W        W34750   6.674   8.883   3.419 -0.0557 -0.2207  0.1095
19134W        W34751   4.920  11.973   4.187  0.2038  0.0615 -0.1489
19135W        W34752   2.180  10.433   2.633 -0.0273  0.0350  0.2632
19136W        W34753   4.973  10.023  12.106 -0.3674  0.2427  0.1390
19137W        W34754  17.110   0.751   2.368 -0.2769 -0.0814  0.0100
19138W        W34755  17.444   1.744  13.997  0.6244  0.0366  0.1207
19139W        W34756   3.898  17.165  14.100  0.0260 -0.0788  0.0006
19140W        W34757   7.947   6.990   1.258  0.1320  0.0124 -0.0208
19141W        W34758  16.607  17.165  14.633 -0.3689 -0.2652  0.2305
19142W        W34759  17.278  12.140  12.905 -0.0039  0.2538  0.1634
19143W        W34760   6.944  15.755   2.436  0.1589  0.1960  0.1241
19144W        W34761  10.842  15.790  13.071 -0.1008 -0.1156 -0.1279
19145W        W34762  10.187  15.303   5.513  0.0044 -0.0911  0.0629
19146W        W34763  15.295  16.547  14.468 -0.1177  0.2402  0.0558
19147W        W34764  17.260  14.772   3.528  0.2891  0.2119  0.0635
19148W        W34765  10.904  15.458  13.448 -0.0552 -0.2632  0.2278
19149W        W34766  13.571  15.565   2.102  0.4034  0.0207 -0.4418
19150W        W34767   2.719  12.528   3.676  0.0399 -0.0356  0.0192
19151W        W34768   8.551   3.021  10.579  0.0313 -0.1441 -0.2315
19152W        W34769   6.976   5.721  12.120 -0.1350 -0.0439  0.1645
19153W        W34770  18.260   3.952  11.987  0.1001 -0.0759  0.0302
19154W        W34771  11.305  10.224  13.592 -0.1128 -0.2395  0.3707
19155W        W34772   6.780  17.495  14.058 -0.0207  0.4658  0.0879
19156W        W34773   1.194  14.543  15.057 -0.1492  0.0187  0.2846
19157W        W34774   9.780   7.184  12.148 -0.2886  0.2786  0.0486
19158W        W34775  14.041  14.996  13.036  0.0376 -0.0839  0.0194
19159W        W34776   3.562   8.092   1.621  0.1140 -0.0656 -0.0161
19160W        W34777  16.548  16.973   2.819 -0.2869  0.0359 -0.1021
19161W        W34778   3.565  11.496  11.762  0.1978 -0.0150 -0.0024
19162W        W34779   0.607   7.940   0.652  0.1530 -0.0139  0.4811
19163W        W34780   2.238   7.857   1.594 -0.0066 -0.0122 -0.0062
19164W        W34781  16.041   5.676   5.259  0.2140  0.4029  0.3183
19165W        W34782   2.962   2.792   2.975  0.2068 -0.0003 -0.0062
19166W        W34783  14.187  15.456   4.942  0.0328  0.0525 -0.0458
19167W        W34784  14.115   9.301   1.219  0.0744  0.0346 -0.0634
19168W        W34785   6.019  18.251   2.640  0.0887  0.0443  0.0218
19169W        W34786  15.377   8.078  12.164 -0.1023  0.0316  0.0813
19170W        W34787  11.374   8.872   3.866 -0.3865  0.0158  0.0554
19171W        W34788   1.415  14.664   1.912  0.0771  0.3127 -0.2764
19172W        W34789  17.122  10.911   4.636 -0.4353 -0.1335 -0.0693
19173W        W34790   4.670  12.867  11.437  0.0374  0.2100  0.0558
19174W        W34791   5.609   3.442  14.944 -0.0895 -0.0010  0.0645
19175W        W34792   5.352  12.506   5.819 -0.0620  0.0009  0.2228
19176W        W34793  14.915   8.068   0.703  0.0716  0.1500 -0.1348
19177W        W34794  15.088  14.249   3.689  0.2230 -0.0716  0.0319
19178W        W34795   1.610   7.497   3.479 -0.0821 -0.0218  0.0051
19179W        W34796   1.324   9.375   1.615 -0.0262  0.0195 -0.2524
19180W        W34797  17.790   6.510  12.253  0.2346 -0.1132  0.0227
19181W        W34798  18.258   4.023  15.319 -0.0368 -0.1987  0.1065
19182W        W34799   8.831  13.404   5.604 -0.1760 -0.0669 -0.3439
19183W        W34800  10.096  15.046   6.291 -0.1704  0.1693  0.0544
19184W        W34801   2.829   9.973   4.461 -0.1713 -0.0838 -0.2584
19185W        W34802  17.966   2.025  15.161  0.0689  0.0845 -0.0878
19186W        W34803   9.813  16.133  13.205  0.2705  0.2388 -0.1695
19187W        W34804   8.729   0.227  11.880 -0.1511 -0.1208  0.0553
19188W        W34805  11.220   0.741  11.792 -0.0934 -0.0595 -0.1308
19189W        W34806  18.264   8.091  13.887  0.0757  0.3160  0.1246
19190W        W34807  15.479  14.474  13.318 -0.1286  0.0812  0.2051
19191W        W34808   3.783   0.571   1.254 -0.0607 -0.2195  0.0695
19192W        W34809   4.907  17.175   5.355  0.1447 -0.2452 -0.1387
19193W        W34810   3.352   0.083  15.768 -0.3574 -0.0711  0.0097
19194W        W34811   0.318   1.412   1.764  0.1341  0.0910 -0.3533
19195W        W34812   7.550   4.097  14.478  0.1300 -0.0821  0.4103
19196W        W34813  16.577   7.855  12.900 -0.2370  0.0781 -0.0778
19197W        W34814   9.769   8.921  14.476 -0.3672 -0.0754 -0.0578
19198W        W34815   9.158  11.309   0.748  0.2676  0.2066  0.2544
19199W        W34816  16.766   3.550   3.577  0.1765 -0.0490  0.0056
19200W        W34817   3.772  11.756  12.712 -0.0707  0.0263  0.1483
19201W        W34818   9.193   0.245  14.680 -0.3033  0.0091 -0.1690
19202W        W34819  14.319  14.163   4.876  0.1442  0.1045 -0.3146
19203W        W34820   3.081  17.844  11.830 -0.1615  0.0469  0.0418
19204W        W34821  14.182   2.888   3.978  0.1956  0.1280 -0.1187
19205W        W34822   5.002   3.858  12.307 -0.5672  0.2405 -0.3357
19206W        W34823   9.377  16.762   3.226 -0.1922  0.0919  0.0712
19207W        W34824   4.484  17.283  15.688 -0.0832 -0.0164  0.0022
19208W        W34825  17.608   7.087  12.941 -0.2140 -0.1024  0.0021
19209W        W34826  13.008  14.598  16.125 -0.1375  0.1284 -0.1637
19210W        W34827   2.218   9.073  13.271 -0.0057 -0.1317  0.2200
19211W        W34828   5.114   2.439  15.266  0.1035 -0.0353  0.2621
19212W        W34829  10.888   8.126   1.044 -0.1669  0.1814 -0.0565
19213W        W34830   9.769  16.193  11.137  0.0879  0.1399  0.0164
19214W        W34831  11.743  17.550   2.322 -0.6064 -0.5235 -0.0548
19215W        W34832   3.555   6.005   4.210  0.0334  0.1101  0.0341
19216W        W34833   2.569  11.374  16.106 -0.2163  0.3731  0.0775
19217W        W34834   4.497   8.146   4.296 -0.3396 -0.0527  0.1476
19218W        W34835   9.547   5.744   3.396 -0.1228 -0.0551  0.1124
19219W        W34836   5.344  10.937  14.962  0.0031  0.1723  0.0349
19220W        W34837   0.172   3.792   1.883 -0.1858 -0.0118  0.0613
19221W        W34838   4.124  15.701   1.004  0.2043 -0.2600  0.1088
19222W        W34839   3.918   6.899   1.022 -0.0231 -0.0864  0.1794
19223W        W34840   1.751  11.374  15.594  0.0798 -0.2969  0.1690
19224W        W34841  15.186   7.456   0.284  0.1969  0.0679 -0.0126
19225W        W34842   1.605  16.479   3.106 -0.1635  0.1236 -0.0298
19226W        W34843   0.580   8.800  14.392 -0.0422  0.0478  0.3350
19227W        W34844   8.481   4.650   2.757 -0.1228 -0.0019 -0.1197
19228W        W34845  12.898  13.776   0.601 -0.2651 -0.1226  0.2749
19229W        W34846  11.842  11.316   0.544 -0.1685 -0.2926  0.2222
19230W        W34847   5.899  12.022  15.836  0.0963 -0.3961 -0.0458
19231W        W34848  13.634   3.434   5.786 -0.0110 -0.0716  0.1413
19232W        W34849   4.422   2.326   9.900  0.1628  0.0443 -0.1006
19233W        W34850   3.865  16.817   5.096 -0.2293  0.2962  0.0451
19234W        W34851  15.966   0.818  10.402  0.1372 -0.2630 -0.2741
19235W        W34852  16.145   6.968   0.593 -0.1422  0.0682  0.2418
19236W        W34853   4.822  17.888  16.115  0.1070  0.0095 -0.1585
19237W        W34854  16.066   8.716  15.107 -0.1241 -0.1113  0.0476
19238W        W34855  14.175   3.401   4.322  0.1840 -0.1196 -0.0497
19239W        W34856  13.190  12.440   1.075 -0.0333 -0.3823 -0.0384
19240W        W34857   1.213   9.195   2.095  0.3568  0.1140 -0.2322
19241W        W34858   5.712   1.703   0.959  0.0406  0.2134 -0.1787
19242W        W34859  15.330  10.353  14.586  0.3186  0.0155 -0.0326
19243W        W34860   6.915  10.086   3.118 -0.0711  0.0081  0.0521
19244W        W34861   8.987   7.549  15.221 -0.1308  0.1039 -0.2765
19245W        W34862   7.613   9.915   1.001 -0.0510 -0.1843  0.0785
19246W        W34863   9.634  11.372   4.319 -0.1342 -0.0552 -0.2125
19247W        W34864  10.763  17.033   4.084  0.1421  0.0441 -0.2637
19248W        W34865   6.649  16.947   2.257 -0.1166  0.0538 -0.0687
19249W        W34866   8.387  16.590   1.249  0.0425  0.1479  0.1407
19250W        W34867  14.925  17.517   1.794 -0.0514  0.0583  0.0851
19251W        W34868   9.268   7.287   1.285  0.2737  0.0256 -0.2264
19252W        W34869   3.505  17.148   2.442  0.1705 -0.0651 -0.0656
19253W        W34870  10.037   4.647   0.646 -0.3706  0.0776 -0.2016
19254W        W34871   1.334   9.345   6.019 -0.2021  0.1523 -0.3426
19255W        W34872  12.830  14.249   4.989 -0.1821 -0.2838 -0.0181
19256W        W34873  17.526  11.810   3.489 -0.2811  0.0155 -0.3337
19257W        W34874   7.030   1.345   4.851 -0.1009 -0.3393 -0.2740
19258W        W34875   2.947   5.513  12.611  0.4879 -0.2047  0.4912
19259W        W34876   7.790  17.066  11.074  0.0356 -0.1582 -0.1071
19260W        W34877   9.222  10.406   4.048 -0.1282 -0.0808 -0.1184
19261W        W34878   9.003  12.514   2.086  0.1927 -0.2038 -0.1398
19262W        W34879   6.380  12.904  15.066  0.0658 -0.0324 -0.0176
19263W        W34880  10.990   4.618   3.381 -0.0157 -0.0974 -0.0002
19264W        W34881  16.782   5.539  14.703 -0.1672 -0.0221  0.3040
19265W        W34882   3.793   1.138   3.943  0.2117 -0.0334  0.2399
19266W        W34883  11.586  12.270   0.405  0.1218 -0.0971  0.1164
19267W        W34884  12.381  15.256  12.350  0.0110  0.1936 -0.2128
19268W        W34885  16.280  15.055  13.601 -0.0243 -0.1274 -0.0821
19269W        W34886  18.419   2.162   2.378 -0.1139  0.2094 -0.2508
19270W        W34887  15.316  17.053  13.941  0.1307  0.1781 -0.0735
19271W        W34888   3.706  17.612  13.812 -0.0625 -0.0574  0.2541
19272W        W34889  16.021   7.167   5.061  0.0107 -0.1080  0.0037
19273W        W34890   8.035   4.608  12.130  0.0260  0.1775 -0.2061
19274W        W34891  11.716   4.569   5.205 -0.0571  0.2483 -0.0221
19275W        W34892   4.220   5.785   2.761 -0.1461  0.2350  0.0453
19276W        W34893   6.464  16.478  13.321 -0.0050 -0.0168 -0.0907
19277W        W34894   9.101  16.421   3.999 -0.1015 -0.2644 -0.0526
19278W        W34895  11.390   4.602   3.068  0.1023 -0.1418 -0.0741
19279W        W34896   1.279  11.326  11.584  0.2948  0.1775 -0.0755
19280W        W34897  12.201  16.051  15.476  0.4306  0.0881 -0.2260
19281W        W34898   2.482  16.162   1.899  0.0181 -0.1912 -0.1279
19282W        W34899   7.892   8.127  13.757  0.0726 -0.0884  0.0858
19283W        W34900   5.539  13.742   4.534  0.0463 -0.0873 -0.0666
19284W        W34901   4.877   1.895   4.472  0.0386  0.1295  0.0188
19285W        W34902   8.446  11.040  14.587 -0.0352 -0.1274 -0.1858
19286W        W34903   4.114   1.990   2.426 -0.1261 -0.0125  0.1296
19287W        W34904   3.278  14.501   1.203  0.0477 -0.0543 -0.0626
19288W        W34905  16.355   9.823   4.573  0.0112 -0.1729 -0.0188
19289W        W34906  14.358  12.096  12.989  0.2329 -0.0191  0.1121
19290W        W34907   8.784   7.802  10.898  0.1818 -0.0756  0.2166
19291W        W34908  15.273  11.158  15.725 -0.1894 -0.1064  0.0216
19292W        W34909  12.458   7.780   1.685  0.2546  0.0542  0.0057
19293W        W34910  17.387   9.218  12.567  0.4170  0.0188 -0.1082
19294W        W34911  12.742   7.290   0.042 -0.1350 -0.2148  0.1384
19295W        W34912   0.342  14.227   1.192 -0.1419 -0.1196 -0.0035
19296W        W34913   5.090   7.511   3.112 -0.2219 -0.2780  0.0592
19297W        W34914   3.207   3.531  11.110  0.0096 -0.3525  0.0338
19298W        W34915  17.019   7.595  13.793 -0.1139 -0.0956  0.2254
19299W        W34916   9.317   5.720   4.629  0.0807  0.3517  0.1554
19300W        W34917  11.801   8.627   5.429 -0.2274  0.1110  0.2121
19301W        W34918  14.190   2.509   0.598  0.1216 -0.0763  0.1561
19302W        W34919   4.866   9.141   3.096 -0.1496  0.0161  0.1759
19303W        W34920   9.443   4.917  15.239  0.1145 -0.0844 -0.0491
19304W        W34921   4.824   9.907   1.133 -0.1325  0.0735  0.1065
19305W        W34922  12.433   6.910   0.160  0.0858  0.0892  0.0037
19306W        W34923   0.612   4.857   3.070 -0.2384 -0.3071 -0.1238
19307W        W34924  16.476  11.435   3.226  0.1337 -0.2150  0.1525
19308W        W34925  12.029   7.215   3.594 -0.3793 -0.1974  0.2280
19309W        W34926   0.441   6.446  13.879  0.2301  0.3178 -0.1302
19310W        W34927   3.702   1.025   1.493  0.4749  0.1592  0.4666
19311W        W34928   7.028   9.216   1.392 -0.0263  0.2316  0.1432
19312W        W34929  11.979   2.734  11.648  0.1649 -0.2343 -0.1212
19313W        W34930  16.033   3.900  14.954 -0.1592 -0.2863  0.3025
19314W        W34931  16.296  13.815   6.472  0.1049 -0.0031  0.1748
19315W        W34932   6.651  15.649  12.279  0.1600  0.3346  0.1626
19316W        W34933  10.890   8.107  12.365 -0.0207  0.1108  0.3019
19317W        W34934  10.474  12.451  15.300 -0.2500  0.1751  0.1269
19318W        W34935   9.072   6.475   5.005  0.0027  0.2165  0.2508
19319W        W34936  16.590   2.411   0.743  0.3520 -0.1318  0.1860
19320W        W34937   2.611   2.537  15.974  0.5038 -0.0529  0.0758
19321W        W34938  13.777   1.782  11.826  0.1805  0.0798 -0.2026
19322W        W34939   2.601  14.655   1.662  0.2350 -0.2796 -0.2452
19323W        W34940   4.953  15.341   1.729 -0.0970  0.0841  0.1790
19324W        W34941   2.945   8.969  12.142 -0.1657  0.2112  0.0998
19325W        W34942  12.828   2.474   1.623 -0.0077 -0.0038 -0.0963
19326W        W34943  11.759   0.466  12.227 -0.2963 -0.2879 -0.2173
19327W        W34944  15.501  16.971   1.309 -0.0423  0.0297 -0.0487
19328W        W34945   0.537  16.627   0.504 -0.1130  0.3908 -0.3704
19329W        W34946   1.528   4.001  15.420  0.0549 -0.0126 -0.2900
19330W        W34947   5.272   2.100   0.585  0.0014 -0.1138  0.1352
19331W        W34948   3.788   6.487   4.325 -0.0652 -0.2223  0.2852
19332W        W34949  10.555  15.036  13.445  0.1147  0.1743 -0.1024
19333W        W34950   7.746  11.779   1.865 -0.1028 -0.0110  0.0419
19334W        W34951   3.321  10.866  10.842 -0.3032  0.0737  0.0646
19335W        W34952  16.278  14.078   1.020  0.0702  0.1787 -0.0724
19336W        W34953  15.672  15.581  10.941  0.0112 -0.1847 -0.0713
19337W        W34954  14.271  16.145   1.634  0.2697  0.1017  0.0736
19338W        W34955   1.476  15.575  12.700  0.0185 -0.0775 -0.0004
19339W        W34956  17.597  10.333  11.875  0.3639  0.2472 -0.0733
19340W        W34957  16.242   3.454  12.469 -0.0054 -0.2795  0.1264
19341W        W34958   3.195  18.244   4.968  0.0616  0.3362 -0.0748
19342W        W34959  11.303  15.816  13.203 -0.3280  0.0899 -0.2786
19343W        W34960  12.005  12.397  13.422 -0.3399 -0.1309  0.0815
19344W        W34961   4.628  10.365   5.484 -0.0130  0.0794  0.2325
19345W        W34962  11.768  17.669   3.223  0.1349  0.0357 -0.3792
19346W        W34963   6.753   8.775   0.356 -0.1904  0.0617 -0.3390
19347W        W34964   7.931  15.368  14.722 -0.0739 -0.2619  0.4881
19348W        W34965   4.410  17.731   4.031  0.1744  0.3641  0.1376
19349W        W34966   5.626  15.441  14.226 -0.0528 -0.4548 -0.1683
19350W        W34967   4.095   9.759  15.516  0.1263  0.1351 -0.0904
19351W        W34968  16.796   7.724   2.042 -0.0918 -0.0011 -0.3994
19352W        W34969   2.390   0.070   5.352  0.0644 -0.5115 -0.1308
19353W        W34970  10.518   5.215  14.095  0.3170  0.2200  0.0996
19354W        W34971  14.352   0.997  13.703  0.2263  0.0170  0.0019
19355W        W34972  14.722  13.843  14.910  0.2409  0.1628 -0.1665
19356W        W34973  12.535  12.399  12.731  0.0485 -0.2022 -0.0931
19357W        W34974  10.230   1.652  14.261  0.1149  0.4405 -0.0584
19358W        W34975   6.115  15.824   5.612  0.0648  0.0239  0.0306
19359W        W34976   3.559   8.417  11.488  0.2067 -0.3335 -0.0888
19360W        W34977  16.409   4.212  13.008  0.1828  0.0394 -0.0107
19361W        W34978   1.781   9.391   3.699 -0.0447  0.2129 -0.0110
19362W        W34979   6.958   9.560  11.270  0.1638 -0.0209 -0.0281
19363W        W34980  12.238   8.155   3.115 -0.0383 -0.0487 -0.0024
19364W        W34981  17.306   9.022   0.995 -0.3008  0.2519 -0.1351
19365W        W34982   9.003  12.382  11.723  0.4581 -0.2021 -0.4497
19366W        W34983  12.085  18.412   2.567  0.3118  0.0237  0.1704
19367W        W34984   6.656   9.210  15.709 -0.2167  0.1460 -0.0219
19368W        W34985   8.406   3.645   2.372 -0.0142 -0.2402 -0.0305
19369W        W34986   9.814   8.538   0.940 -0.2053 -0.2121 -0.1597
19370W        W34987   7.469   9.144   3.821 -0.3361 -0.2143  0.1573
19371W        W34988   2.328   3.989   1.726 -0.3142  0.1614  0.1888
19372W        W34989   3.291  12.291  13.434  0.1513 -0.0010  0.0230
19373W        W34990   3.492  15.552  12.206  0.0136 -0.0621 -0.1110
19374W        W34991   6.760  12.934   2.839  0.1729 -0.3621 -0.1149
19375W        W34992  14.712  16.021  15.558 -0.0435 -0.0765  0.2605
19376W        W34993  10.210   3.193   4.293 -0.0168  0.0439 -0.1698
19377W        W34994  12.463  15.750   1.281 -0.3242  0.1296  0.0540
19378W        W34995  18.270   0.539  13.621 -0.0231 -0.0606 -0.2699
19379W        W34996  17.135  17.981   1.022  0.1756  0.0593 -0.0388
19380W        W34997   4.345   6.928   4.876 -0.0767 -0.1577  0.2289
19381W        W34998   0.016   6.787  12.558  0.1991  0.1115 -0.1536
19382W        W34999  13.063   8.771  10.933 -0.1466  0.2080  0.2905
19383W        W35000  15.728   2.332   3.004  0.0585  0.1135 -0.1354
19384W        W35001   5.183   8.511  13.556 -0.0063  0.1482  0.2119
19385W        W35002   1.060  12.277  14.042 -0.0314 -0.1596  0.0823
19386W        W35003   5.199   8.693  10.640 -0.0735 -0.0327  0.3729
19387W        W35004  12.065   5.676  13.539  0.0076  0.0756 -0.0244
19388W        W35005   6.836  11.548   0.894 -0.0493 -0.1369 -0.0924
19389W        W35006  12.322  17.525   0.703  0.2107  0.0986 -0.1230
19390W        W35007  15.479   4.420   1.343 -0.0777  0.2512  0.0133
19391W        W35008  11.846   0.854   1.116 -0.0364  0.0147 -0.0287
19392W        W35009   0.226  13.203   5.312  0.0165 -0.0230  0.3467
19393W        W35010   1.319   8.649   4.284 -0.2875  0.0434  0.1042
19394W        W35011   4.890  15.645  12.032 -0.1212  0.0284 -0.1985
19395W        W35012  18.362  14.028   0.235  0.0738  0.0276  0.1996
19396W        W35013  17.268   7.155   3.805 -0.0653  0.0131 -0.0630
19397W        W35014  13.009   6.862   0.915  0.1496 -0.0580  0.2786
19398W        W35015   7.233   6.948   3.532 -0.3870  0.0628  0.1402
19399W        W35016  17.739   1.111   4.985 -0.1201 -0.2665 -0.1718
19400W        W35017   0.257  11.392   3.928  0.0304 -0.0681  0.1808
19401W        W35018  16.282  14.255   4.787  0.0470  0.0534 -0.0441
19402W        W35019  13.612   6.329   0.619 -0.0620  0.1867  0.1823
19403W        W35020  12.344   5.042   0.412 -0.1644  0.3966  0.0982
19404W        W35021   0.324  11.480  11.233 -0.0844 -0.0235  0.0892
19405W        W35022  16.791  18.040  10.907 -0.0609 -0.0872  0.5262
19406W        W35023   7.376   6.153  10.919 -0.1474 -0.4122  0.0591
19407W        W35024  13.003  11.402  15.540 -0.3801 -0.1713 -0.0038
19408W        W35025   0.209  13.999  11.554 -0.1703 -0.1347 -0.2857
19409W        W35026   8.797  16.938   3.062  0.0033 -0.2248  0.1111
19410W        W35027  13.145  10.954  15.239 -0.1545  0.1205 -0.0883
19411W        W35028   7.533   0.090   4.536 -0.1670  0.3305 -0.1739
19412W        W35029   9.793  12.251  13.881  0.0859  0.2528 -0.1076
19413W        W35030   3.169   6.615  11.059  0.0451 -0.6022  0.2458
19414W        W35031   7.584  12.571  12.421 -0.3069 -0.2341  0.0626
19415W        W35032  17.952   8.922   5.002 -0.3245 -0.3715  0.0702
19416W        W35033  18.445   6.017  13.879  0.2412  0.0595  0.1511
19417W        W35034   8.691  14.357   0.425  0.1631  0.0517 -0.0698
19418W        W35035  17.046   6.984   3.119  0.1016  0.3286 -0.0672
19419W        W35036  11.627   4.589   0.505  0.0849 -0.0655 -0.0414
19420W        W35037   3.926   4.536  13.636  0.5083  0.1396  0.0318
19421W        W35038  14.798   4.026   0.701 -0.0102  0.3173 -0.0559
19422W        W35039   5.476   2.435  11.936 -0.2524 -0.2198  0.0332
19423W        W35040  15.341   1.829  13.967 -0.4205 -0.1659  0.1986
19424W        W35041   3.538  13.598   4.493  0.0631  0.0576 -0.1268
19425W        W35042  16.856  15.735   0.786  0.0863  0.1445  0.1813
19426W        W35043  13.297  13.178  10.704  0.0206  0.1425 -0.1527
19427W        W35044   7.216  17.676  14.853 -0.1900  0.1421 -0.0500
19428W        W35045  13.989  12.379  14.254 -0.1039 -0.3485 -0.0231
19429W        W35046   2.086  15.127  15.288  0.3062  0.3997 -0.0208
19430W        W35047  16.368   8.982   1.443 -0.1819 -0.1385  0.4371
19431W        W35048   6.030  12.033  12.865  0.2063  0.0279  0.0489
19432W        W35049   0.209  16.365   3.333 -0.1039  0.0722  0.0187
19433W        W35050  16.568   0.852   2.141 -0.1523 -0.1531 -0.1367
19434W        W35051   3.842   6.292   3.856 -0.2981 -0.0227  0.4221
19435W        W35052  15.025   4.234   2.097 -0.1460  0.1638 -0.0606
19436W        W35053  15.794   2.072  15.983  0.2492 -0.0350  0.0773
19437W        W35054   5.689   6.878  14.430 -0.2085 -0.2692 -0.1948
19438W        W35055  14.415   8.256  14.701 -0.1159  0.3090 -0.2184
19439W        W35056   9.694   7.568  10.699 -0.2353 -0.1432 -0.3197
19440W        W35057  17.230   6.445  15.814 -0.1826  0.0277  0.0893
19441W        W35058   1.023  11.188  13.909 -0.0157 -0.1725 -0.2430
19442W        W35059  12.510   9.374   1.934 -0.0080 -0.1985  0.1320
19443W        W35060   1.736  14.676  14.212  0.2936  0.3288  0.2182
19444W        W35061   6.366   0.024   3.245 -0.0655  0.0783 -0.1164
19445W        W35062  10.554   7.470  15.522  0.2900 -0.0773  0.0778
19446W        W35063   2.781   0.698   1.278 -0.2035 -0.0799 -0.0225
19447W        W35064   2.011   8.259  10.190 -0.4321  0.0487 -0.0095
19448W        W35065  12.554   3.487   1.515 -0.3226 -0.2874 -0.0289
19449W        W35066   6.625   3.024  14.181 -0.0040 -0.2225 -0.1353
19450W        W35067   5.650  13.173   4.367 -0.1793 -0.0981  0.0758
19451W        W35068  16.234  14.480   1.441  0.1755  0.1231 -0.2040
19452W        W35069  16.936   7.933  14.882 -0.0722 -0.1924 -0.1244
19453W        W35070  17.644  16.407  14.654  0.0329 -0.1036 -0.1783
19454W        W35071  17.946   1.276  13.032  0.2462 -0.4140  0.0313
19455W        W35072  16.220   9.355   3.956 -0.2935 -0.0237  0.1783
19456W        W35073   0.619   4.442  14.494 -0.1466 -0.0429 -0.1018
19457W        W35074   1.127  18.129   3.529 -0.2627 -0.1307  0.2729
19458W        W35075   1.462   9.154  15.358 -0.2122  0.0215  0.0178
19459W        W35076   0.837  16.313   0.734  0.0434 -0.1585  0.1589
19460W        W35077  17.678  12.093   5.770  0.3465 -0.3229  0.1394
19461W        W35078  16.894  10.407  12.104 -0.2673  0.0232  0.0496
19462W        W35079   1.310   1.299   2.584  0.0745 -0.0224 -0.0272
19463W        W35080  13.099   0.874   1.079  0.1306 -0.2971  0.2312
19464W        W35081  11.566  10.547   1.221 -0.2119  0.0316  0.0637
19465W        W35082   5.183   7.574  14.807 -0.0459  0.1808  0.0536
19466W        W35083   2.659   0.232  11.970 -0.0836 -0.2907  0.0499
19467W        W35084   3.779   2.784   2.520 -0.0704  0.3087 -0.1309
19468W        W35085   2.160  18.097   3.960 -0.2815 -0.2184  0.1191
19469W        W35086   2.722   8.219   0.849  0.1849 -0.1855 -0.0909
19470W        W35087  15.887  11.499  12.581  0.0485 -0.0221  0.1591
19471W        W35088  13.652  15.683   3.869  0.1852  0.2102 -0.1859
19472W        W35089  15.276  16.431   3.320  0.1547 -0.0556  0.1379
19473W        W35090  10.263   3.283  15.962  0.2837 -0.0847 -0.0297
19474W        W35091  10.506  12.536  11.639 -0.1426 -0.3466  0.1610
19475W        W35092   9.103   4.393   3.940 -0.0401 -0.0899  0.1638
19476W        W35093   0.052   8.574  13.784 -0.1410 -0.1041  0.0541
19477W        W35094  16.521   0.868   4.392  0.1110  0.2467  0.2978
19478W        W35095   7.385  13.711   4.251  0.0560 -0.0252  0.3309
19479W        W35096   6.683   2.065  11.657 -0.0429 -0.0546  0.1071
19480W        W35097   4.908   6.504   4.241  0.1109 -0.2950  0.0579
19481W        W35098  16.197   5.783  11.203  0.0296 -0.0650 -0.0360
19482W        W35099  11.933  15.606   5.103 -0.0073 -0.4770  0.1472
19483W        W35100  11.380  12.105   3.248  0.0935 -0.1925 -0.2209
19484W        W35101  16.500  11.511  14.578 -0.0087  0.3112 -0.0788
19485W        W35102  11.088  10.866   3.261 -0.0560 -0.0274 -0.0294
19486W        W35103   5.196   2.025  11.729 -0.2012 -0.3077 -0.3894
19487W        W35104  17.735   1.592  15.817  0.1261 -0.0735 -0.1742
19488W        W35105   7.313  14.249  11.820  0.0061 -0.1225 -0.0486
19489W        W35106   2.743   3.768  11.774  0.3625  0.3084  0.0497
19490W        W35107   2.657   6.359  13.423 -0.0341  0.1070 -0.0992
19491W        W35108  17.213  14.637   5.044  0.0753 -0.2973 -0.0743
19492W        W35109  14.794   3.081   0.909 -0.2707 -0.0529  0.1076
19493W        W35110  14.000   9.418   3.029 -0.0708 -0.3939  0.0909
19494W        W35111   3.851   4.540   2.161  0.1808 -0.0205  0.1976
19495W        W35112  17.724   5.446   1.126  0.0140 -0.0800  0.2072
19496W        W35113  10.024   4.184  12.639 -0.2620 -0.0652  0.1148
19497W        W35114  12.153  12.748  12.869  0.0133  0.2847 -0.1618
19498W        W35115  18.231  14.833  11.049  0.0223 -0.1210  0.0672
19499W        W35116  17.581  17.814  11.007 -0.1952  0.1949  0.0490
19500W        W35117  13.039  12.069  15.902 -0.2630 -0.0963  0.0717
19501W        W35118  11.066   0.794   3.765  0.0723 -0.0069 -0.0303
19502W        W35119  11.430  13.184   5.841  0.1034 -0.0166 -0.3413
19503W        W35120   0.623  10.969   1.924  0.3170 -0.0377  0.2873
19504W        W35121   1.693  16.983  14.673  0.0327  0.2248  0.1586
19505W        W35122   5.542   7.202   4.437  0.1060 -0.3344 -0.3620
19506W        W35123  13.705  10.717  14.477 -0.0892  0.0532 -0.2020
19507W        W35124   8.104   3.707   3.345  0.3436 -0.0257  0.0217
19508W        W35125   0.217  16.934   0.211  0.0648 -0.3823 -0.0182
19509W        W35126  11.713   2.140   0.316  0.0072  0.0499 -0.2661
19510W        W35127   6.347   0.121   3.786 -0.0025 -0.3235  0.2422
19511W        W35128   7.601   5.341  10.876 -0.0348 -0.0929 -0.1613
19512W        W35129   3.945  13.115   5.367 -0.1809 -0.3121 -0.0658
19513W        W35130  16.578   2.739  12.697 -0.2040 -0.0716 -0.3550
19514W        W35131   4.722  12.835  10.510 -0.0174 -0.3846  0.2435
19515W        W35132   6.959  14.886  13.040  0.0004 -0.3582  0.3625
19516W        W35133  10.384  11.905  13.342  0.1336  0.1644  0.3290
19517W        W35134   3.023   8.131  15.983 -0.1475 -0.0541  0.1388
19518W        W35135   5.828  10.083  11.839 -0.0412  0.2406 -0.1463
19519W        W35136  10.562  12.796  14.478  0.1239  0.1955 -0.4128
19520W        W35137   0.854  12.687  12.409  0.1481  0.0593 -0.1894
19521W        W35138  16.112  13.127  10.896 -0.4554  0.1511 -0.0691
19522W        W35139  12.544  18.028   3.510 -0.3777  0.1404 -0.1356
19523W        W35140  16.269  16.820   4.629  0.0113  0.1180 -0.0551
19524W        W35141  15.170   2.069  11.243  0.1245 -0.1241  0.0724
19525W        W35142   0.842   8.184  11.312 -0.3821  0.0439 -0.0953
19526W        W35143  18.361  11.124  14.917 -0.0895 -0.1736  0.2385
19527W        W35144   1.969  11.819   6.179  0.0642  0.1589 -0.3845
19528W        W35145   7.135   4.598   1.717 -0.0016  0.3519  0.0135
19529W        W35146  16.352   4.259   1.160  0.1968  0.0856  0.3374
19530W        W35147   3.638  12.740   5.038  0.1789  0.1530  0.1461
19531W        W35148   8.572   6.988  10.539 -0.0127 -0.3083  0.2340
19532W        W35149   6.437   2.827  12.348 -0.0959  0.2597  0.2346
19533W        W35150  15.775   3.180   0.665 -0.1748  0.0457  0.1736
19534W        W35151   8.741   9.367   4.296 -0.0207 -0.1304  0.3265
19535W        W35152   6.269   3.636   1.688 -0.1622 -0.1933  0.3378
19536W        W35153  13.157   5.649  14.351 -0.0019 -0.0496 -0.3601
19537W        W35154   6.580  10.876  14.749 -0.1899 -0.3100 -0.0853
19538W        W35155  15.170   4.615   2.611 -0.0202 -0.0376 -0.2688
19539W        W35156  15.245  17.460  16.026  0.0230  0.1096  0.1852
19540W        W35157  17.175  11.218   5.638 -0.1035 -0.1212 -0.0544
19541W        W35158  15.487  14.485   5.518  0.0983  0.0961  0.1202
19542W        W35159   2.609  11.332   4.313 -0.0963 -0.3291  0.0365
19543W        W35160  13.178   3.445   4.306 -0.2075  0.2274  0.1797
19544W        W35161  16.263  13.225   1.474 -0.1819 -0.0716 -0.0114
19545W        W35162  12.579  11.473   1.792  0.2809 -0.0374  0.0816
19546W        W35163   1.031   8.040   4.328  0.4193 -0.0517 -0.1295
19547W        W35164   9.670  15.787  14.500  0.0083  0.0670  0.0444
19548W        W35165  13.468  14.184   2.659  0.0752 -0.1219  0.1616
19549W        W35166   0.925   8.699  14.766  0.0028 -0.0496 -0.3774
19550W        W35167   8.068  15.865  16.116 -0.1449  0.0493  0.2650
19551W        W35168   0.688   5.791  14.498 -0.1030 -0.2547 -0.2825
19552W        W35169   0.986   4.903  14.426  0.0076 -0.0956 -0.0173
19553W        W35170  14.996  11.238   0.636  0.0151  0.0962 -0.2037
19554W        W35171  14.218   2.217  13.291  0.0646  0.2853  0.0687
19555W        W35172  11.679   4.549   2.085  0.0288  0.0477 -0.2362
19556W        W35173   3.634   0.782  16.086 -0.1950 -0.1438  0.1960
19557W        W35174   4.940  14.083  13.848 -0.0274  0.0486  0.2544
19558W        W35175  12.990   7.606  14.040  0.1848  0.0844 -0.0370
19559W        W35176   0.714   8.521   5.071 -0.1186  0.0369  0.2732
19560W        W35177  12.254   1.490  11.013 -0.2577 -0.2372  0.1785
19561W        W35178   3.047  15.857   4.533 -0.0756  0.3331  0.0326
19562W        W35179  14.748   9.221   4.222  0.3088 -0.1676  0.2281
19563W        W35180  11.914  17.639   5.392 -0.0080 -0.1294 -0.1463
19564W        W35181  15.556   7.541   3.807  0.1943 -0.2454 -0.0046
19565W        W35182  17.875  14.879   0.415 -0.2036  0.3216  0.0456
19566W        W35183   9.883   2.627   2.228  0.2998  0.1341 -0.3140
19567W        W35184   0.167   5.192  12.751 -0.0461  0.0408  0.0719
19568W        W35185  14.870   2.671  11.485  0.0662 -0.1472  0.0504
19569W        W35186   2.307  13.364   1.506 -0.0073 -0.1571 -0.3651
19570W        W35187  16.192   0.487   0.989  0.1602 -0.0961 -0.1991
19571W        W35188   1.129   8.634  11.620  0.1059 -0.0559  0.0518
19572W        W35189   0.629  15.531  12.122 -0.0974 -0.1031 -0.4240
19573W        W35190   2.560  13.609   4.422  0.1527 -0.1461  0.2119
19574W        W35191   2.731   0.715  12.899  0.2251 -0.1450  0.3414
19575W        W35192  18.150  18.456   0.518  0.3223 -0.1407 -0.2758
19576W        W35193  11.872   6.026   2.649  0.0761 -0.3485 -0.0381
19577W        W35194  11.556   2.094  12.053  0.0239  0.0871  0.3622
19578W        W35195   4.822   5.479  15.815 -0.0275 -0.1437  0.0994
19579W        W35196  10.483  17.609   5.102 -0.2001  0.3523 -0.1966
19580W        W35197   5.216  13.248   0.210 -0.2615 -0.4138  0.4610
19581W        W35198   5.820  10.014   1.585 -0.0770 -0.0133 -0.0802
19582W        W35199   1.776   0.582   0.992 -0.4199 -0.3225  0.4061
19583W        W35200  16.542   2.172  13.588 -0.2274  0.0236  0.0638
19584W        W35201  18.431  15.890   5.370  0.0184 -0.0707  0.0461
19585W        W35202   7.974   1.070  11.995  0.1286  0.0245  0.1308
19586W        W35203   1.024   2.046   2.586  0.3413 -0.0111 -0.1045
19587W        W35204  12.814  12.367  14.079  0.2539  0.0251  0.1333
19588W        W35205   1.451   1.964   0.327 -0.1064  0.0735 -0.1583
19589W        W35206   9.308  15.774   5.147  0.1591 -0.1028 -0.0090
19590W        W35207  11.342  12.920  15.267  0.0260 -0.1864  0.0548
19591W        W35208   4.382  11.913   3.288 -0.0403 -0.1723 -0.1627
19592W        W35209   4.140  11.917  12.968 -0.0545  0.3005 -0.0621
19593W        W35210  14.545   4.604  11.712  0.1077  0.1246  0.1033
19594W        W35211   2.981   8.427   2.709 -0.3690 -0.3094 -0.0672
19595W        W35212   1.863  12.379   5.173  0.0208 -0.0090 -0.1607
19596W        W35213  14.584  12.943  15.651  0.1953  0.1608 -0.1412
19597W        W35214   0.389   4.528   3.950  0.1962 -0.3246  0.0121
19598W        W35215   4.358  18.346   1.964 -0.1322  0.1459  0.3346
19599W        W35216  11.391   3.139   5.113 -0.0490  0.1917  0.0803
19600W        W35217   3.053   0.999  11.667 -0.0787 -0.2299  0.2581
19601W        W35218   3.018  12.525  13.121  0.0833 -0.2014 -0.0292
19602W        W35219   1.458   7.802  12.802  0.2887  0.2765  0.3671
19603W        W35220  13.939   8.001   4.898 -0.2823  0.1149 -0.1729
19604W        W35221   8.134  18.424  11.227 -0.0050 -0.1492 -0.1818
19605W        W35222   3.423  10.452   2.826  0.2022  0.0965 -0.3071
19606W        W35223   2.831   5.914   1.272  0.0299  0.0054  0.0213
19607W        W35224  11.139   3.047   4.351  0.4205  0.0011  0.2559
19608W        W35225   6.860  15.373  14.585  0.3202 -0.1757  0.0665
19609W        W35226  15.189  15.744  12.008  0.1324  0.1007  0.2402
19610W        W35227  15.036  18.454   2.439 -0.0782  0.0995 -0.0428
19611W        W35228  16.756   4.035  12.283  0.1615  0.3550 -0.0631
19612W        W35229   1.044   9.431  12.021  0.3458  0.0285 -0.0626
19613W        W35230   0.315   8.098  13.748  0.2165  0.0019  0.0985
19614W        W35231  14.795   2.102   1.354 -0.0040  0.1227  0.2985
19615W        W35232   4.535   1.152  11.654 -0.1721  0.2587  0.0539
19616W        W35233   4.054   9.627  13.484  0.0239 -0.0098 -0.2615
19617W        W35234  18.255   0.555   5.533 -0.1757  0.1650 -0.2771
19618W        W35235  11.503   9.009   9.762  0.0047  0.3859 -0.2014
19619W        W35236  13.887   3.874   1.501 -0.2412  0.0715 -0.0038
19620W        W35237   7.760  13.560  11.498  0.1938  0.0429  0.0004
19621W        W35238  15.596  17.219   5.308  0.1452 -0.0193 -0.0803
19622W        W35239   7.003   6.531   1.850 -0.2325  0.4223 -0.0870
19623W        W35240  10.773  14.857   4.539 -0.0289  0.2071  0.1201
19624W        W35241  14.645   2.620   4.840 -0.1930 -0.0444 -0.1995
19625W        W35242   9.016   6.587  12.090 -0.1037 -0.2187  0.1200
19626W        W35243   7.088  15.801  14.763 -0.1763  0.2284 -0.0436
19627W        W35244  12.110   1.050   4.831 -0.1602 -0.0407 -0.0431
19628W        W35245  15.134   3.984   4.145 -0.1133 -0.1000  0.2530
19629W        W35246  10.390   1.487  12.354  0.0179 -0.1999  0.2758
19630W        W35247  14.648  15.925  13.344  0.3809 -0.1356  0.1215
19631W        W35248  12.326   4.423  11.834 -0.1116 -0.2407 -0.0212
19632W        W35249   4.019  17.950  12.145 -0.1145 -0.0048  0.2870
19633W        W35250  14.366   3.122   5.046  0.0204 -0.0001 -0.2070
19634W        W35251  11.116   1.601  12.543 -0.0289  0.1566 -0.0867
19635W        W35252  16.990  14.239   1.617  0.0562 -0.0574  0.2040
19636W        W35253   9.381   6.878   5.108 -0.1075  0.1360 -0.1541
19637W        W35254   6.525   0.719  15.198 -0.0834 -0.2813  0.0362
19638W        W35255  12.949  15.433  11.136 -0.1996 -0.4989  0.2385
19639W        W35256   0.897  15.917   2.962  0.0588  0.2464  0.3443
19640W        W35257   6.542  13.895   3.659 -0.1834  0.2253  0.0891
19641W        W35258   7.541  14.960   1.599  0.0449  0.1141  0.1549
19642W        W35259  17.593  13.503   3.550 -0.2070  0.0844  0.0345
19643W        W35260   0.050  12.314   4.922 -0.3804  0.3386 -0.4022
19644W        W35261  16.217   7.983   1.296 -0.0727  0.0336  0.0857
19645W        W35262   6.156  11.014  12.286  0.0496 -0.0239 -0.2777
19646W        W35263  10.636   8.913   5.260  0.1586  0.3282 -0.3794
19647W        W35264  10.288   5.126  11.676  0.3012 -0.0098 -0.3197
19648W        W35265   4.277   8.029   2.244  0.0458 -0.0584  0.2565
19649W        W35266   7.128  16.601   5.446  0.3000 -0.0434  0.2673
19650W        W35267  15.505  17.056   4.286 -0.1245  0.4116  0.0203
19651W        W35268   6.792   0.851  13.545 -0.4001  0.0588  0.0506
19652W        W35269  14.232   7.371   1.681 -0.1912  0.0289  0.1911
19653W        W35270   2.673  10.834   2.106  0.0459 -0.1833 -0.0311
19654W        W35271   7.521   5.025  15.670  0.0767 -0.0320 -0.0091
19655W        W35272  16.615  10.440   3.912 -0.3308 -0.2478  0.1344
19656W        W35273   6.066   1.790  12.219 -0.2848  0.2616 -0.0502
19657W        W35274  12.351   3.909  13.762 -0.0702  0.1344  0.0479
19658W        W35275  13.532  14.779  13.916  0.1444 -0.0201  0.0397
19659W        W35276  13.276   2.789  11.845  0.1137 -0.2316 -0.0850
19660W        W35277   3.954  17.358   2.525 -0.1664 -0.2078  0.1341
19661W        W35278   6.833   7.529   1.032 -0.0975  0.0048  0.1607
19662W        W35279   7.841  14.372   3.835 -0.1117 -0.2227 -0.1233
19663W        W35280  18.449  14.325  12.219 -0.0135  0.0081  0.2032
19664W        W35281  14.190   1.566  15.794 -0.2076 -0.0325  0.0480
19665W        W35282   1.931  17.534  12.726  0.2139 -0.1087 -0.1079
19666W        W35283   8.651  14.602  12.656 -0.1271  0.1370 -0.1832
19667W        W35284   8.877  14.341  12.317 -0.0843  0.2107 -0.1697
19668W        W35285  10.242  16.251   5.460 -0.1937 -0.1801 -0.0933
19669W        W35286   3.832   7.480  14.758 -0.0082  0.0680 -0.1074
19670W        W35287  13.928  13.582   1.838 -0.0358  0.0612  0.0586
19671W        W35288  12.913  16.481  12.404  0.1882 -0.1785 -0.2489
19672W        W35289  11.920   4.838   4.830  0.0574  0.3958 -0.1607
19673W        W35290   6.735   3.788  13.012  0.0319  0.5730 -0.0080
19674W        W35291   1.720   7.888   0.586  0.2070 -0.2976  0.0250
19675W        W35292   0.818   4.448   1.283 -0.0715  0.0325  0.0453
19676W        W35293   9.106  11.584   3.035  0.1420 -0.4610  0.5105
19677W        W35294  16.185   7.402  14.049  0.1342  0.0745  0.1909
19678W        W35295   6.959  10.627   2.389 -0.1591  0.0323 -0.2367
19679W        W35296  17.254  12.244   3.431  0.1997  0.0323  0.2435
19680W        W35297   3.450  15.928   3.618  0.0032 -0.2058 -0.3134
19681W        W35298   5.251  11.336   0.148 -0.1687 -0.0888  0.0631
19682W        W35299  11.948  10.599  15.878 -0.0727 -0.0217 -0.3351
19683W        W35300  17.343   0.854   3.793  0.1490 -0.2139 -0.0621
19684W        W35301   1.677  15.520   2.993  0.2588 -0.0983  0.2502
19685W        W35302   8.103  13.854   2.286  0.1652 -0.1266  0.1034
19686W        W35303   6.421   6.339  15.289  0.1608  0.1805 -0.0792
19687W        W35304   3.771   8.656  11.108 -0.0922 -0.0926  0.0418
19688W        W35305  16.261   7.777  15.583  0.1632  0.0874  0.2506
19689W        W35306   8.323   5.335  14.477 -0.0406 -0.1968  0.1022
19690W        W35307   1.168  12.564   3.642 -0.0972  0.0433  0.1867
19691W        W35308  11.952  13.654  13.953 -0.1645  0.0796 -0.0634
19692W        W35309   4.028   8.206   4.555 -0.1689 -0.0053 -0.3504
19693W        W35310   5.936  15.456  15.603 -0.0351 -0.1013  0.3206
19694W        W35311   8.795   7.046  15.224  0.0084 -0.2281 -0.2467
19695W        W35312  18.247   0.301   2.589 -0.2220  0.3742 -0.0013
19696W        W35313   9.112  11.980   1.696 -0.0050 -0.2192  0.0783
19697W        W35314   7.445   3.401   2.094 -0.0619  0.0137 -0.0999
19698W        W35315  15.792   3.118   3.674  0.1194 -0.1364 -0.3063
19699W        W35316  11.969   0.952  14.737  0.0567  0.0147  0.1426
19700W        W35317  10.811   1.663  11.486  0.1873 -0.1339 -0.1080
19701W        W35318  13.080   6.700   4.303 -0.2746 -0.0704 -0.0529
19702W        W35319  13.048   4.381  12.284 -0.0333 -0.1753 -0.0141
19703W        W35320   8.842  18.427  13.597  0.0959 -0.2792  0.0720
19704W        W35321   6.452  15.400  13.594 -0.1212 -0.0443  0.2628
19705W        W35322   7.713   9.952   3.834  0.0925 -0.2101  0.1425
19706W        W35323  14.008  14.530  12.769  0.0871  0.0995 -0.1800
19707W        W35324  14.921   3.426   2.676  0.0124  0.1972 -0.0735
19708W        W35325   0.930   6.948  16.011  0.2428  0.1118 -0.1037
19709W        W35326  16.659   2.495  10.306 -0.3084  0.1632  0.2206
19710W        W35327   6.362  17.843  13.331  0.0762  0.1899 -0.1633
19711W        W35328   4.533  16.616   2.679  0.2861 -0.2452  0.2887
19712W        W35329   4.397   2.649   3.709  0.0577  0.0713 -0.0485
19713W        W35330   3.359   4.716  12.793  0.4251  0.2882  0.2472
19714W        W35331   6.004  10.912   5.110 -0.1624  0.0836  0.1259
19715W        W35332  17.651  12.948  11.724 -0.0338 -0.1195  0.1175
19716W        W35333  17.297  14.319  15.594 -0.4048 -0.2196  0.1125
19717W        W35334   4.453   7.738  11.270  0.4218  0.0065  0.0375
19718W        W35335  14.084   6.061   3.904 -0.2217  0.1699  0.1764
19719W        W35336   5.554   7.254  13.888  0.2357  0.1939  0.1606
19720W        W35337  10.799  10.657   4.872  0.1756  0.0132  0.0238
19721W        W35338   0.097  13.353  12.628  0.1192 -0.0421  0.0226
19722W        W35339   2.336  15.127  12.484  0.2027 -0.0876  0.2358
19723W        W35340  13.603   2.681  15.695  0.4552 -0.0043 -0.1946
19724W        W35341   2.395  13.178  13.993 -0.0690 -0.0133  0.1661
19725W        W35342   1.732   5.459  12.917 -0.2563 -0.1545 -0.2463
19726W        W35343  10.139   1.787   0.308 -0.0724 -0.2416 -0.3495
19727W        W35344   8.253  16.424   3.013 -0.0002 -0.0273 -0.2326
19728W        W35345   3.573   4.809  11.099  0.0023 -0.1645 -0.1256
19729W        W35346  13.070   3.360   5.924 -0.2905  0.0525  0.1856
19730W        W35347   5.225   3.412  12.053  0.1657  0.0618 -0.0741
19731W        W35348  14.982   2.007   1.818  0.2128 -0.1456 -0.0837
19732W        W35349   6.361   6.625  11.097  0.0199  0.0855  0.1009
19733W        W35350  15.843   6.157  13.767  0.1249  0.0213 -0.2886
19734W        W35351   2.174   4.890  15.459  0.4026  0.2783  0.3347
19735W        W35352  12.961  10.437  14.785  0.2038  0.1324  0.0848
19736W        W35353   8.013   0.652  14.151 -0.2631 -0.0536  0.0935
19737W        W35354  13.646   0.368  13.053  0.2777 -0.0379 -0.2544
19738W        W35355  14.347  10.046   3.511  0.2897  0.1710  0.1294
19739W        W35356   9.880  16.167   1.538 -0.0465 -0.2080  0.2719
19740W        W35357   2.647  17.990   3.120  0.1164 -0.0085  0.0384
19741W        W35358   1.358  14.383  13.470 -0.1361  0.1224 -0.0594
19742W        W35359  18.086   1.739   4.615  0.2909 -0.0603 -0.1607
19743W        W35360  13.734   7.377   4.321 -0.1167 -0.2780  0.0344
19744W        W35361  13.450   6.568   0.077  0.0519 -0.0901  0.2984
19745W        W35362  13.943  11.612  12.338  0.3330  0.0823  0.2122
19746W        W35363   1.013  12.902   0.733  0.2211 -0.0437  0.0601
19747W        W35364   5.288  14.627  15.560  0.0427 -0.0549 -0.1503
19748W        W35365   0.041   4.811   1.537 -0.3812 -0.1861 -0.0590
19749W        W35366   6.518  16.107   0.380  0.0497 -0.1203 -0.0516
19750W        W35367  17.148   4.679  11.788 -0.2431 -0.0051  0.0279
19751W        W35368   8.207  11.417   0.690 -0.1172  0.1920 -0.0071
19752W        W35369  15.913  15.191   4.426  0.2160 -0.0703 -0.2326
19753W        W35370   4.061   7.491   0.530 -0.1724 -0.3326  0.1993
19754W        W35371  14.299   1.234   5.749  0.0023 -0.0673 -0.2590
19755W        W35372  13.968   0.915  11.718 -0.0438 -0.3427  0.1540
19756W        W35373  15.289  16.629  14.982 -0.3249 -0.1728  0.2174
19757W        W35374  12.937   4.581   0.684  0.1841 -0.0894 -0.1266
19758W        W35375  10.609  13.452   2.830  0.0718  0.0459  0.3264
19759W        W35376   3.576   1.157  11.801 -0.0199  0.0900 -0.2672
19760W        W35377  11.328  15.069  11.507 -0.0584  0.0765 -0.0649
19761W        W35378   9.254  13.331   3.560 -0.0986  0.0480 -0.2583
19762W        W35379   6.043  10.573   0.457 -0.0044  0.0381  0.1775
19763W        W35380  14.309   2.965   4.588  0.4362 -0.0033  0.1085
19764W        W35381   4.665  15.259  15.979  0.0937 -0.2875 -0.3814
19765W        W35382  12.567   7.059  14.714  0.0729  0.2024 -0.0179
19766W        W35383  13.508  14.091   4.375  0.3594 -0.1308 -0.0131
19767W        W35384  13.455   8.658   5.127  0.0297 -0.0198  0.3017
19768W        W35385  15.666   7.423   4.841 -0.1470  0.2448 -0.1123
19769W        W35386   2.739  17.632  15.299 -0.0363 -0.2356  0.1656
19770W        W35387   2.273   6.244   4.531  0.3362 -0.1698 -0.1884
19771W        W35388  16.311   9.131  10.896 -0.0174 -0.0713  0.4458
19772W        W35389   4.770  14.021   4.587 -0.1202 -0.2162 -0.4418
19773W        W35390   6.054  13.909   4.492  0.2854  0.0292 -0.1374
19774W        W35391  16.105   3.006  13.344 -0.1395  0.0568 -0.0833
19775W        W35392   2.265  18.319  14.078 -0.0805 -0.1830 -0.0641
19776W        W35393   1.761   8.862   3.033 -0.0073 -0.1298 -0.0358
19777W        W35394   2.248   2.176   5.215 -0.0236  0.0870  0.0892
19778W        W35395  11.661   1.919   4.957 -0.0691 -0.2398  0.0637
19779W        W35396   3.900   3.646   2.694 -0.0188  0.0576  0.0167
19780W        W35397   1.830   2.007  15.050  0.4176  0.1005 -0.3747
19781W        W35398  16.241   1.711   1.719 -0.0845 -0.4507 -0.0172
19782W        W35399  17.838   9.606  14.655 -0.1076 -0.1104 -0.0105
19783W        W35400  15.093  12.682  13.345 -0.0931  0.1568 -0.1432
19784W        W35401  17.137   2.858   2.460  0.0457  0.0210 -0.0349
19785W        W35402  14.642  12.014  14.802  0.1676  0.0076 -0.3170
19786W        W35403  17.680   5.280   3.611 -0.0964 -0.0197  0.3695
19787W        W35404   1.649   6.157   1.414  0.0280  0.0664 -0.1948
19788W        W35405   0.365   7.706  13.386 -0.0257 -0.2777 -0.1128
19789W        W35406   9.025   6.871   0.940  0.1252 -0.1581 -0.1549
19790W        W35407  17.846  17.235  12.719  0.0777 -0.0589  0.2229
19791W        W35408   9.539  14.918   1.033  0.1416 -0.0187 -0.0665
19792W        W35409   7.204  17.637   1.307  0.0340  0.0237 -0.0903
19793W        W35410   8.587   5.868  12.702  0.1720 -0.1908  0.1108
19794W        W35411  12.089   5.357   0.066 -0.4224 -0.1750 -0.1830
19795W        W35412   0.445   8.188  11.582  0.2431 -0.0315  0.0395
19796W        W35413   2.433   5.570  14.630 -0.1620  0.0116  0.2538
19797W        W35414  11.235  10.291   4.894 -0.0437 -0.1273 -0.0330
19798W        W35415   5.634   2.590  10.390  0.2016  0.0619  0.1556
19799W        W35416   9.439   8.237  15.494  0.1759  0.0038  0.1451
19800W        W35417   8.174  17.214   6.132 -0.1109  0.2894 -0.1769
19801W        W35418  10.306  15.894   2.386 -0.0553  0.2434  0.2627
19802W        W35419   7.165  13.131   2.593  0.3167 -0.0165 -0.1143
19803W        W35420   2.987  17.038  11.820 -0.0064 -0.2396 -0.0652
19804W        W35421   1.883  17.921   0.747  0.0126 -0.0533  0.3472
19805W        W35422   2.094  12.371   2.542 -0.1084  0.1742 -0.3519
19806W        W35423   2.954   0.297   5.031  0.0083  0.0584 -0.2274
19807W        W35424  16.775   0.217  12.465 -0.0067 -0.0678  0.3917
19808W        W35425  14.199  17.752  15.910  0.2759  0.0420  0.1406
19809W        W35426   6.352   3.504  14.209 -0.0946 -0.1525  0.0749
19810W        W35427   9.662   8.552   3.688  0.3178  0.0525  0.5335
19811W        W35428  17.938   9.825  11.537  0.3912 -0.2514 -0.1927
19812W        W35429   5.571   9.038   2.633 -0.1016 -0.2757 -0.3933
19813W        W35430  13.802   4.704   0.607  0.0088 -0.4169 -0.1241
19814W        W35431   5.318   3.421   1.958  0.0671 -0.1418  0.1411
19815W        W35432   3.817  11.087   0.764 -0.1165  0.0129  0.2526
19816W        W35433  17.318   8.829  10.686 -0.0466 -0.1289 -0.0325
19817W        W35434  15.629   1.730  11.804  0.1842 -0.0821 -0.1163
19818W        W35435   9.122  17.974  14.324 -0.0937  0.1050  0.0572
19819W        W35436   2.603  12.343  15.005  0.0530  0.0523 -0.0032
19820W        W35437  17.165   1.438   1.741 -0.0652  0.1490  0.1769
19821W        W35438  16.147  17.203  12.683 -0.0513  0.3641 -0.2322
19822W        W35439  13.088  18.333   6.468  0.1383  0.0939  0.0960
19823W        W35440  15.488  15.187  15.227  0.0899  0.1132  0.1017
19824W        W35441   4.631   1.738   1.147  0.0625  0.0845  0.3059
19825W        W35442   6.793  16.844   3.510 -0.5042 -0.0720 -0.1479
19826W        W35443   8.593   4.652   2.248 -0.0228  0.0564 -0.3607
19827W        W35444   5.944  12.843  13.065 -0.0887  0.4048  0.2677
19828W        W35445  13.400   7.940   2.314 -0.0026 -0.1064 -0.0826
19829W        W35446   0.153   8.353  13.335  0.0429  0.2085 -0.0051
19830W        W35447  17.929  18.155  13.607 -0.2892  0.0432  0.3526
19831W        W35448   3.036  11.577  11.616  0.0969 -0.1068 -0.2921
19832W        W35449   7.354  10.499   3.976 -0.0639 -0.0862  0.1454
19833W        W35450   3.572   4.941  15.607 -0.1210 -0.2286 -0.3257
19834W        W35451   7.583  10.945  11.712  0.1712 -0.0801  0.2938
19835W        W35452  16.361  10.951   0.673 -0.0064  0.0729  0.1576
19836W        W35453  17.398   6.609  14.386 -0.1123 -0.0545  0.0042
19837W        W35454   9.048  17.857  15.593 -0.1869 -0.0090  0.2181
19838W        W35455  18.165  11.554   4.648  0.0571  0.1794 -0.0720
19839W        W35456   9.818   4.092   4.724  0.1596  0.3243 -0.0045
19840W        W35457  10.825   6.725   1.307 -0.2388  0.2417 -0.0880
19841W        W35458   4.002  12.205   1.022  0.0883 -0.0196  0.3039
19842W        W35459   1.694  18.308  14.135  0.1486  0.3716  0.2791
19843W        W35460  10.786   1.866  10.957 -0.0690  0.0463 -0.2656
19844W        W35461   3.587  16.441  12.091  0.0902  0.2075 -0.0820
19845W        W35462   9.171  18.363  15.851 -0.0989  0.3107  0.0247
19846W        W35463   6.635   9.546   2.023 -0.1839 -0.2367  0.1810
19847W        W35464   8.927  17.645   3.403  0.2337  0.0345 -0.0906
19848W        W35465  16.779  12.805   5.586  0.2619 -0.2237  0.1596
19849W        W35466  16.456   9.667  11.988  0.2393 -0.0832  0.1453
19850W        W35467  10.501   6.964   0.982  0.0048 -0.2702 -0.1821
19851W        W35468   5.417  14.778   0.940 -0.3323 -0.1311 -0.0486
19852W        W35469  17.205   6.597   9.873 -0.1838 -0.0701  0.3447
19853W        W35470   6.780  15.953   6.013  0.0338  0.1890  0.0595
19854W        W35471  11.369   3.342   4.650  0.4175  0.2491 -0.2974
19855W        W35472   1.916   2.526   4.598 -0.2155  0.2626 -0.0754
19856W        W35473  10.720   0.517  14.617 -0.3576 -0.3278 -0.2082
19857W        W35474  10.712   0.629  13.109  0.0063  0.2520  0.1057
19858W        W35475  11.476  18.115   5.373  0.2617  0.0957 -0.1515
19859W        W35476  17.710   1.873  11.445  0.0536 -0.0064  0.0109
19860W        W35477  16.601  13.812   0.705 -0.0076 -0.3497  0.2761
19861W        W35478   2.026   0.238   1.330 -0.0670 -0.1230 -0.1855
19862W        W35479   1.988   3.277   0.120  0.0920 -0.3089 -0.0944
19863W        W35480   4.579   5.049  11.345  0.4607 -0.2864 -0.1642
19864W        W35481   1.430  18.279  11.356 -0.2180 -0.0588 -0.0000
19865W        W35482   2.556   6.537  14.191 -0.1457  0.3817 -0.1422
19866W        W35483   5.554   2.067  13.252 -0.1700 -0.0947 -0.0105
19867W        W35484  15.380   6.134  10.922  0.0007  0.1663 -0.0616
19868W        W35485   6.996  18.338  12.264  0.1953 -0.3153  0.1343
19869W        W35486   6.237   4.280  13.515  0.4305  0.0052  0.0514
19870W        W35487  15.422  16.994  13.298  0.1848  0.1451 -0.2510
19871W        W35488  16.199   2.048  11.155 -0.0339  0.0987 -0.1131
19872W        W35489   6.371   6.045  11.001 -0.0321 -0.1610 -0.0601
19873W        W35490  11.534   5.306   1.748 -0.1497  0.0767 -0.0670
19874W        W35491  14.499  14.400  14.938 -0.0531 -0.0471 -0.1157
19875W        W35492   8.498   0.179  15.855  0.0021  0.1541  0.3026
19876W        W35493   3.903  14.539  13.931 -0.0692 -0.0192  0.2030
19877W        W35494  18.219  17.873   4.314 -0.1030 -0.0388 -0.2525
19878W        W35495  16.633   0.446  11.008 -0.0756 -0.1380  0.0597
19879W        W35496  17.457  12.261  14.072 -0.2345 -0.1899 -0.1560
19880W        W35497   5.171  11.698   5.468  0.2862  0.0164  0.0992
19881W        W35498   8.329  10.645   4.240  0.0577 -0.0232 -0.1428
19882W        W35499  16.485  18.367   5.201 -0.0361  0.2950 -0.0962
19883W        W35500   9.610  18.206  14.371 -0.0037  0.0155  0.0812
19884W        W35501  16.136  11.521   3.966 -0.1144  0.0265 -0.0734
19885W        W35502   9.253   3.226   3.981 -0.0447 -0.1317  0.2383
19886W        W35503  16.402   6.983   1.648  0.2409  0.4432 -0.2296
19887W        W35504  10.473   4.584   1.473  0.2378 -0.5014 -0.0909
19888W        W35505  12.907   7.404   3.911  0.2499 -0.0086 -0.0174
19889W        W35506   7.908   4.197  16.121 -0.1370 -0.0189  0.0169
19890W        W35507  10.490   5.999  15.345  0.3773  0.0079  0.3030
19891W        W35508   4.542   9.781   2.450  0.2591 -0.1094  0.0236
19892W        W35509  16.907   7.333   5.384  0.0995  0.0250  0.1055
19893W        W35510  10.774  12.389   4.536  0.2275  0.0395  0.0168
19894W        W35511   0.486  14.473   6.031  0.1218 -0.0611 -0.1167
19895W        W35512  18.178   5.493   2.964  0.1173 -0.0522 -0.0237
19896W        W35513   8.570   4.858  13.561 -0.1921 -0.0729 -0.2297
19897W        W35514  10.380   8.992  10.733  0.2434  0.0778  0.1354
19898W        W35515  15.292  17.353   3.931 -0.3091  0.2029 -0.2288
19899W        W35516  11.944   9.151  11.975  0.0687  0.1095  0.0366
19900W        W35517   8.137  13.365   3.644 -0.0615 -0.3005 -0.1937
19901W        W35518  14.177   8.606  10.079  0.0932  0.1374 -0.1121
19902W        W35519   4.576   3.151   4.014  0.3526 -0.0558  0.1405
19903W        W35520  12.627  15.213  12.877  0.1311  0.1382 -0.1647
19904W        W35521   4.375   4.884  12.529 -0.0330 -0.0031  0.0051
19905W        W35522   0.814   3.294  11.873  0.0597  0.1448 -0.2074
19906W        W35523  18.414   4.711  12.688  0.1846 -0.1215  0.2169
19907W        W35524   4.754  16.572   4.542 -0.0249  0.1049 -0.1575
19908W        W35525   8.638  10.322  14.718  0.1230  0.0234 -0.0346
19909W        W35526  18.022   8.557   1.221  0.2638 -0.0381  0.0231
19910W        W35527   0.249   1.890   5.184  0.3405  0.2106  0.2791
19911W        W35528   2.406   0.745  15.053  0.2327 -0.0931 -0.2582
19912W        W35529   4.002   0.011  14.820 -0.3948  0.2351 -0.0047
19913W        W35530   9.709   6.801  12.748 -0.1662 -0.0897 -0.0018
19914W        W35531   7.856  13.451  15.340 -0.0728 -0.0749 -0.0646
19915W        W35532  12.090  11.615   0.939  0.0005 -0.0475  0.0943
19916W        W35533   0.862  13.689   5.582  0.0523  0.3029  0.1034
19917W        W35534   6.852   1.868  12.771  0.1437 -0.1557  0.0669
19918W        W35535  12.891   6.962   4.709  0.0457  0.1015  0.1393
19919W        W35536   3.023   4.675   3.430 -0.0792 -0.0768 -0.1937
19920W        W35537  16.010   7.507   3.566  0.5471 -0.1936 -0.1540
19921W        W35538   3.106   9.132   3.972 -0.2514  0.0969  0.0589
19922W        W35539  16.815   5.508   2.232 -0.1311 -0.1703  0.0665
19923W        W35540   4.028   5.193   4.781  0.0287 -0.1588  0.3060
19924W        W35541  13.342   1.889   4.337 -0.1412  0.0345  0.0828
19925W        W35542  13.926  13.353   0.743  0.0467  0.0337  0.0481
19926W        W35543   0.961  15.315   6.065  0.2006  0.0177 -0.0513
19927W        W35544  12.901  13.180  11.600 -0.0381  0.1188 -0.0604
19928W        W35545   0.744   6.914   5.883  0.1558 -0.2462  0.0220
19929W        W35546  10.015   8.443  14.650 -0.1125 -0.0780 -0.2196
19930W        W35547  18.138   3.701   0.223 -0.1372 -0.3240 -0.0757
19931W        W35548  16.262   8.273  15.297 -0.1074  0.1639  0.2522
19932W        W35549   6.241   1.296   1.573 -0.0518  0.0942 -0.0430
19933W        W35550  15.277   1.745   1.523 -0.2265  0.2555  0.3298
19934W        W35551   6.743  18.090   0.806 -0.0294  0.1634 -0.0611
19935W        W35552   7.905   5.582   4.200 -0.1637 -0.1190 -0.0398
19936W        W35553   8.976   4.005  15.535  0.1303  0.0898  0.2293
19937W        W35554   2.771   5.712  13.566  0.3172 -0.1392  0.1652
19938W        W35555   7.067   8.222   4.336 -0.3820  0.1862 -0.1782
19939W        W35556   6.438  11.414   0.661  0.0023 -0.2199  0.3342
19940W        W35557  11.600  12.755  14.412 -0.4558 -0.1387 -0.1731
19941W        W35558   1.809  10.860  15.498  0.0290  0.0982 -0.0319
19942W        W35559   9.246   9.547   5.110 -0.0665 -0.1625 -0.0783
19943W        W35560   7.856  14.153   0.591 -0.0468 -0.0135 -0.2675
19944W        W35561  13.339   8.164   1.862  0.1545  0.0297  0.0604
19945W        W35562   0.800  13.756   1.265  0.0078  0.0056 -0.1586
19946W        W35563  15.851  12.134   0.889  0.2897 -0.0999  0.2256
19947W        W35564   6.908   5.039  14.511  0.3208 -0.1034  0.1661
19948W        W35565   7.534   8.960   1.769  0.0470 -0.0365  0.1429
19949W        W35566   1.813   0.146   2.650  0.1091 -0.1563  0.2916
19950W        W35567   3.671   7.658   0.827 -0.0340  0.0065  0.1119
19951W        W35568   1.862   7.301  15.936 -0.0378 -0.4822  0.1756
19952W        W35569  11.678   1.780  11.671  0.2530 -0.3165  0.0425
19953W        W35570  17.623  17.785   1.643 -0.0438 -0.2295  0.1495
19954W        W35571   1.423   0.702  14.423  0.2517  0.3030  0.1801
19955W        W35572  12.776   0.995   2.273  0.2968  0.1085  0.1952
19956W        W35573   9.366   0.338  12.358  0.0187  0.3053  0.0436
19957W        W35574   0.840   0.860   3.822 -0.1429  0.0989  0.0123
19958W        W35575  12.608   3.023  13.904 -0.0035  0.0812 -0.1741
19959W        W35576  18.146  11.308  11.903 -0.0356 -0.2211 -0.3394
19960W        W35577   5.895  12.086   3.883  0.2042  0.0822 -0.0730
19961W        W35578   1.239   1.498   5.193  0.3986 -0.1109 -0.0587
19962W        W35579  10.062  16.122  14.465 -0.0548  0.0078  0.1265
19963W        W35580   9.962   6.645  10.726 -0.1542  0.0046  0.0447
19964W        W35581  17.592  13.010   3.214  0.2287  0.0247  0.0870
19965W        W35582  16.076   0.054  15.850  0.2013  0.0628  0.2910
19966W        W35583   0.672   6.269  14.282 -0.0776 -0.1180 -0.0787
19967W        W35584  14.926   0.129   2.913  0.1915  0.0837 -0.2188
19968W        W35585  17.232  10.019  15.151 -0.0718  0.0098 -0.0446
19969W        W35586   1.289  10.355   6.261 -0.0828  0.1755 -0.1630
19970W        W35587  10.294  16.945   6.445 -0.1067  0.1034  0.1569
19971W        W35588  16.626   0.361   4.646  0.5186  0.0155  0.0594
19972W        W35589   6.223   9.813  12.734  0.1302  0.2109 -0.0369
19973W        W35590   1.964   8.410  15.454 -0.1150 -0.3513 -0.0955
19974W        W35591   9.093   8.405  12.551 -0.1335 -0.0790  0.0781
19975W        W35592   3.596  16.635  14.196  0.1081  0.3917  0.1368
19976W        W35593   5.301   8.515   3.374 -0.2578 -0.1887 -0.0086
19977W        W35594  16.463  10.863  15.056  0.2032  0.0487 -0.2719
19978W        W35595  18.055   6.966  12.199  0.4132  0.1424  0.1056
19979W        W35596   8.791   3.292  11.011  0.1717 -0.0872  0.0315
19980W        W35597  14.422   3.452  13.712  0.3621 -0.0209 -0.2639
19981W        W35598  12.743  11.413  12.953  0.1134 -0.1284  0.1949
19982W        W35599  14.997   4.734   0.146 -0.2934 -0.0404  0.0142
19983W        W35600   0.558   1.070   2.088  0.1690  0.0491 -0.1214
19984W        W35601  16.606  15.972  14.362  0.0751 -0.1648  0.0147
19985W        W35602   6.266   4.444   0.314 -0.3168 -0.1820  0.2121
19986W        W35603   3.895   3.291  14.239  0.0848 -0.1166 -0.3038
19987W        W35604   2.242  17.075   4.900  0.1284 -0.2760  0.3404
19988W        W35605  14.670  17.768   2.166  0.0126  0.1263 -0.2829
19989W        W35606  15.080   6.418   5.723  0.1526  0.2369  0.0795
19990W        W35607  18.046  13.596  13.283  0.2176  0.2365 -0.1230
19991W        W35608  10.336   2.400   3.587  0.2330 -0.1735  0.0696
19992W        W35609   5.966  16.781  12.939 -0.2036 -0.0902  0.4391
19993W        W35610   4.939   5.058  10.888  0.1497  0.0651 -0.0450
19994W        W35611   8.899   4.073   4.344  0.0708  0.1042 -0.2049
19995W        W35612   0.801   1.254   2.539  0.0817  0.0612 -0.2897
19996W        W35613   0.569  14.400  12.561 -0.2493 -0.0694  0.1129
19997W        W35614   1.906  14.996  12.791  0.1495  0.1668 -0.1422
19998W        W35615  12.612   8.780   4.707 -0.2828 -0.1967  0.0756
19999W        W35616   1.540  13.010  13.871 -0.1065  0.4402  0.1609
20000W        W35617   0.448   2.976   0.198 -0.1306  0.1135 -0.0298
20001W        W35618   8.541  11.601   3.746 -0.0543 -0.0348  0.0749
20002W        W35619   1.771   6.554   4.927 -0.3647 -0.0364 -0.1803
20003W        W35620  14.214  13.587  10.659  0.0212  0.1655  0.2877
20004W        W35621   5.784  10.759   2.481  0.0649  0.1169  0.1108
20005W        W35622   9.472  11.598   1.583  0.1467  0.2600 -0.2077
20006W        W35623  11.746   9.136   1.593 -0.3357 -0.0116  0.2200
20007W        W35624   3.154   3.763   3.152  0.0628 -0.1723 -0.0847
20008W        W35625   5.050  13.800   0.105 -0.1040  0.0550 -0.0093
20009W        W35626  11.389   5.378   2.637  0.1193  0.0140 -0.4219
20010W        W35627  17.006  18.129   1.552  0.0158  0.3404 -0.0392
20011W        W35628   8.779  15.176   4.472  0.3061 -0.2787  0.1679
20012W        W35629  11.079  15.901  14.547  0.0347  0.1071 -0.1329
20013W        W35630  16.262   6.001  13.494 -0.1107 -0.3218 -0.2569
20014W        W35631  14.617  14.103  13.269 -0.2927  0.5182 -0.0289
20015W        W35632  13.767  12.971  16.119  0.1840 -0.0073  0.1597
20016W        W35633   5.511   6.694  11.524 -0.0089 -0.1230 -0.2773
20017W        W35634  18.202   5.151   3.417 -0.2937 -0.1451 -0.0523
20018W        W35635  16.465  11.215  14.109  0.1061 -0.0191  0.1811
20019W        W35636   5.119  13.873   4.889  0.0036 -0.0909 -0.1418
20020W        W35637   1.725   3.362   0.597  0.3420  0.0595 -0.0515
20021W        W35638   3.698   5.887  14.308 -0.1001 -0.0982  0.1772
20022W        W35639  12.330   4.499   9.562 -0.3178  0.0934 -0.0925
20023W        W35640   5.749   6.370  14.118  0.1863  0.0690  0.1206
20024W        W35641  17.239  10.668  11.802  0.2650 -0.1547 -0.0014
20025W        W35642   4.437   7.164   4.425 -0.1345 -0.0295 -0.0966
20026W        W35643   7.469  10.470   0.927 -0.0020 -0.0108  0.0266
20027W        W35644  14.722  14.418  11.744  0.0506  0.1420  0.2334
20028W        W35645  18.130   3.514  13.893  0.0098  0.0660 -0.0500
20029W        W35646   1.753  18.043  11.047 -0.2087 -0.2113  0.1943
20030W        W35647   2.507   3.755  13.447 -0.1227 -0.1826  0.0277
20031W        W35648   0.963   8.000   1.057 -0.1602  0.2740 -0.0707
20032W        W35649   0.230  11.371   3.420  0.2889  0.1172  0.3499
20033W        W35650  17.092   1.330   3.813 -0.1977  0.3165 -0.0225
20034W        W35651  10.451   3.765  14.677  0.0314 -0.1113  0.1249
20035W        W35652  13.630  10.945  13.085 -0.1444  0.1852 -0.0783
20036W        W35653   5.945   1.339  10.974  0.0609  0.2115  0.1477
20037W        W35654   7.216   7.419  11.396  0.0138 -0.0006  0.2138
20038W        W35655   6.901  17.258  14.967  0.2406 -0.1080 -0.1798
20039W        W35656   1.441  12.865   2.658  0.2063 -0.2467  0.3308
20040W        W35657   6.064   6.418  13.651  0.1003  0.1898  0.0200
20041W        W35658   2.570  11.239   2.336  0.0219 -0.2301  0.4162
20042W        W35659  14.267  11.094   1.792  0.0340  0.2717  0.3076
20043W        W35660  18.033  18.452  12.408 -0.2459 -0.3468  0.0881
20044W        W35661   5.499   7.244  11.357  0.0533  0.3043  0.3363
20045W        W35662   7.340   3.506  10.883 -0.0949  0.1908  0.0422
20046W        W35663  13.046  17.423   1.009 -0.1487  0.0719 -0.2376
20047W        W35664  14.391  18.022  13.418  0.0240  0.0532  0.1081
20048W        W35665   9.504   5.872   0.063 -0.0197 -0.0007 -0.1313
20049W        W35666  17.231  18.169  11.328 -0.3110 -0.0418  0.2541
20050W        W35667   2.714   8.375   4.511  0.1691 -0.1954 -0.1805
20051W        W35668   9.458   2.802  14.239 -0.5102  0.1353  0.0860
20052W        W35669  11.169  13.911  14.746  0.0434  0.0822  0.1067
20053W        W35670  10.353  12.660   5.383 -0.0304 -0.1993 -0.1331
20054W        W35671   9.293   8.620   3.307 -0.0240 -0.0758  0.1630
20055W        W35672  17.495   0.348  13.710 -0.2094 -0.0240 -0.1359
20056W        W35673  17.433  10.071   2.830 -0.0665 -0.1749 -0.0345
20057W        W35674  17.441  10.386  12.318 -0.3167 -0.1622 -0.2210
20058W        W35675   8.679   6.743   2.525 -0.2098  0.0914 -0.1245
20059W        W35676   8.232   3.457  12.785  0.1164 -0.0400  0.1096
20060W        W35677  14.406   8.254  12.321 -0.4511  0.2826 -0.0500
20061W        W35678  12.086  17.986   3.013 -0.0297  0.2622  0.0144
20062W        W35679  13.832  17.290   0.245 -0.2276 -0.2439 -0.0423
20063W        W35680   1.385  11.131   5.167 -0.2704 -0.0294 -0.1911
20064W        W35681   0.127   8.523  11.280 -0.3007 -0.1320  0.0785
20065W        W35682  16.110   9.555  12.487 -0.0035 -0.1971  0.0551
20066W        W35683   8.995   3.242   3.170 -0.1419 -0.3639 -0.0259
20067W        W35684   8.888  14.957   1.631 -0.0448  0.0213  0.3378
20068W        W35685   1.596  12.714   4.836  0.3636 -0.0383 -0.0278
20069W        W35686   4.820   3.552   3.280 -0.0622  0.0007  0.4677
20070W        W35687  17.016   4.373   3.259 -0.1705  0.2951  0.0148
20071W        W35688  18.029   3.380   1.165  0.1063  0.1001  0.2017
20072W        W35689  18.341  13.154   3.519  0.1640  0.0451 -0.1070
20073W        W35690   3.128   4.906  14.834 -0.1183  0.1431  0.1294
20074W        W35691  11.482  12.419   2.270 -0.1626 -0.0796 -0.0125
20075W        W35692   2.088  14.846   4.201  0.2631 -0.0292 -0.4086
20076W        W35693   8.811   7.279  14.783 -0.2528 -0.0284  0.2827
20077W        W35694   1.408  17.737  12.764 -0.1731 -0.1412 -0.1010
20078W        W35695   9.415   2.862   1.850 -0.1372  0.0697  0.0670
20079W        W35696   1.266  17.521  15.544  0.1876 -0.0888  0.2021
20080W        W35697  11.084   7.493  14.722  0.2128  0.2143 -0.5561
20081W        W35698   0.731   5.881  12.602  0.0830  0.2390 -0.0685
20082W        W35699   4.482   1.422  13.623  0.1029  0.1095 -0.2829
20083W        W35700  16.662  10.750   4.285  0.0807 -0.2147  0.1754
20084W        W35701   4.948  16.013  12.316 -0.1481 -0.0960  0.1888
20085W        W35702   2.636   1.201  13.100  0.1108  0.3610 -0.2454
20086W        W35703   8.882   0.603  12.869  0.0876  0.0226 -0.0440
20087W        W35704   6.044  17.560  12.378  0.3163  0.1215 -0.1535
20088W        W35705  13.520   1.684  15.827  0.1639  0.2598  0.0222
20089W        W35706  17.296   5.343   1.419  0.1955  0.0230  0.3881
20090W        W35707   7.135   7.808  14.905  0.5665 -0.0093  0.0683
20091W        W35708  13.840   0.551   1.768 -0.2858  0.0317 -0.3200
20092W        W35709   1.554   8.729  11.403  0.2049 -0.2092 -0.0260
20093W        W35710   1.187   4.343   1.547  0.2914 -0.0474 -0.3590
20094W        W35711   3.929  12.425  14.287  0.0778  0.0795 -0.0307
20095W        W35712   8.658   5.438   3.098 -0.0996  0.1183  0.0807
20096W        W35713  12.404  10.938   1.668 -0.1171 -0.0591  0.2530
20097W        W35714   5.046  17.018  14.850  0.1104  0.1701 -0.1209
20098W        W35715   2.635  17.951  15.667  0.3446 -0.1967  0.0326
20099W        W35716   6.457  16.910   1.789 -0.1292 -0.2491 -0.1136
20100W        W35717   6.989  10.362  12.245  0.1337 -0.0798 -0.0972
20101W        W35718   4.834   0.746   1.977 -0.1409  0.3157 -0.3420
20102W        W35719   8.886  16.149   1.571 -0.0419 -0.2968  0.2315
20103W        W35720   6.309   2.636  13.938 -0.1407  0.0502 -0.0165
20104W        W35721   6.513  16.901   4.791  0.2412 -0.0389 -0.0593
20105W        W35722  15.020   2.908  12.936  0.0110 -0.0615 -0.0542
20106W        W35723   5.757   7.824  15.105  0.0983 -0.0775  0.3553
20107W        W35724   4.405   7.973   4.805  0.1696 -0.0549 -0.0023
20108W        W35725   6.915   7.939  16.040  0.2789  0.0667 -0.0887
20109W        W35726  14.299   3.186  10.961 -0.0275 -0.3239  0.0600
20110W        W35727   6.670  18.234   2.276 -0.1536 -0.3402 -0.0631
20111W        W35728   9.904   2.832  11.293  0.0864 -0.2242  0.2724
20112W        W35729  12.605   5.866  11.403 -0.1593  0.0099 -0.2066
20113W        W35730  16.579  12.389  11.503  0.0949 -0.0460  0.0764
20114W        W35731   0.112   5.334  13.221 -0.2660  0.0191 -0.2411
20115W        W35732   5.195  13.975  12.499  0.2448 -0.0198 -0.0883
20116W        W35733   4.730  11.467  11.903  0.3073  0.1040 -0.2802
20117W        W35734  14.550  15.229   1.566  0.0788  0.1646 -0.0773
20118W        W35735   9.658  17.275   4.239 -0.0532  0.3209 -0.1695
20119W        W35736   3.044   8.760   4.325  0.2699 -0.0167 -0.0138
20120W        W35737  18.457   2.072   0.263 -0.3990 -0.0412  0.3603
20121W        W35738   5.152   2.485  13.313  0.2912  0.2148  0.0314
20122W        W35739   6.060   5.592  11.409  0.2022 -0.1406  0.0179
20123W        W35740  10.325  13.968   2.809 -0.5953 -0.3145 -0.0731
20124W        W35741  16.123  16.981   0.229  0.2831  0.0637 -0.0596
20125W        W35742  11.193   9.162   4.269  0.0115 -0.1862  0.2190
20126W        W35743   9.326  11.843   2.630  0.0429  0.2666 -0.3080
20127W        W35744  12.875   7.795   3.592  0.0916  0.1773 -0.2645
20128W        W35745  13.727  10.362   1.428  0.0079  0.1198  0.0488
20129W        W35746   0.319   7.880   3.146  0.0346 -0.0491  0.2493
20130W        W35747  14.707  11.947   0.743 -0.0049 -0.0905  0.1686
20131W        W35748   6.278   2.550   1.580 -0.3134 -0.0066  0.1274
20132W        W35749  16.559   7.019  16.078  0.0767  0.2968  0.0255
20133W        W35750   6.902  10.578   0.263  0.1714 -0.0078  0.0851
20134W        W35751  11.882  14.443   1.596 -0.2081 -0.0556  0.5289
20135W        W35752   7.712   5.885   4.540 -0.1377  0.1680  0.0162
20136W        W35753  16.662   9.520  12.763  0.1176  0.0803  0.2011
20137W        W35754   2.923   4.105   4.247 -0.0633 -0.2287  0.0396
20138W        W35755  11.191   0.472   0.370  0.5294  0.0582 -0.0095
20139W        W35756   0.730   7.548  10.709  0.1179 -0.0259 -0.2824
20140W        W35757  14.411  16.983   1.681  0.0413 -0.2035  0.3333
20141W        W35758  15.630   7.643  10.421  0.4401  0.1033 -0.0543
20142W        W35759  17.268   2.959   4.676  0.0177 -0.3975  0.2925
20143W        W35760  16.888   0.854   3.950 -0.0819  0.0846 -0.1946
20144W        W35761  15.183  17.552   0.734  0.0925  0.3233  0.2498
20145W        W35762  12.023  12.695  11.339  0.2614 -0.2658 -0.4462
20146W        W35763   2.710   7.626  13.326 -0.0708 -0.2636  0.1669
20147W        W35764   4.609   7.761   0.998 -0.2071 -0.0220  0.3882
20148W        W35765  17.950   9.195   0.899 -0.3329 -0.0735 -0.0327
20149W        W35766   3.598  12.991   3.399 -0.0103  0.0226 -0.0643
20150W        W35767  13.136  11.926   4.898  0.2504  0.3385 -0.0253
20151W        W35768   8.492   6.874   1.119 -0.0530 -0.0278 -0.2262
20152W        W35769   6.349   4.384   1.249 -0.1483  0.1414 -0.0834
20153W        W35770   3.844   9.555   4.103 -0.0447 -0.0074 -0.0657
20154W        W35771  14.987   8.769   5.238 -0.4257  0.0296 -0.0578
20155W        W35772  12.625  13.448  15.747  0.0884  0.2818  0.0832
20156W        W35773   5.586   8.584  11.312 -0.2176 -0.3145  0.6186
20157W        W35774  11.928  13.424  13.521  0.0775 -0.1249  0.0016
20158W        W35775   1.156   8.666  13.704  0.0239 -0.1155  0.0511
20159W        W35776   0.951   9.848   2.352 -0.3849  0.1838  0.1843
20160W        W35777  11.420  14.788   0.984 -0.2744  0.0026 -0.0461
20161W        W35778  16.523  16.004  11.363 -0.1577  0.3568 -0.0691
20162W        W35779   7.574  13.903  14.023 -0.2011 -0.3938 -0.1433
20163W        W35780   1.234   0.565   5.277 -0.1161 -0.0181 -0.0076
20164W        W35781   8.724  11.259   0.538  0.0340  0.1729 -0.2361
20165W        W35782   3.651  10.508  12.696 -0.1477  0.0513 -0.1714
20166W        W35783   4.869  10.730  13.099 -0.0678  0.2666 -0.0524
20167W        W35784  10.811   7.745   4.514 -0.0614 -0.0291  0.1322
20168W        W35785  12.622  11.122   1.227  0.0910 -0.0108  0.2049
20169W        W35786   7.838  15.081  15.115  0.0850 -0.0927  0.2373
20170W        W35787   7.864   2.119  15.164  0.0046 -0.0234  0.0501
20171W        W35788  13.201   8.982  12.423  0.0146 -0.0984 -0.2562
20172W        W35789  13.599  12.195  15.469  0.0622 -0.3293  0.0007
20173W        W35790   9.746   4.085  12.261 -0.1521  0.2801 -0.2170
20174W        W35791   0.853  11.686   2.745  0.5207  0.2265 -0.0586
20175W        W35792   9.453   4.777  15.854 -0.1356  0.1388  0.1041
20176W        W35793  16.203  11.060  15.623 -0.1217  0.3308  0.1835
20177W        W35794  12.205   6.683  15.128  0.0554 -0.0392  0.0095
20178W        W35795   5.675   5.009  11.987 -0.0606  0.2881  0.1569
20179W        W35796   2.568   5.905   4.260  0.1745 -0.2076 -0.0165
20180W        W35797  11.415   7.783  13.949  0.0470  0.0146 -0.1681
20181W        W35798   5.194  15.084  14.795 -0.1300 -0.1557  0.0533
20182W        W35799   8.715   5.148   1.812  0.3461 -0.1658  0.1092
20183W        W35800  12.599   6.407  13.217 -0.3082  0.0728 -0.1635
20184W        W35801  13.320  10.923   0.708 -0.2795 -0.2682 -0.0663
20185W        W35802  17.453  13.565   0.672 -0.1701 -0.3507 -0.4165
20186W        W35803   7.430   1.491  11.527 -0.2210  0.0174 -0.0149
20187W        W35804  10.833  13.515   5.053  0.2446 -0.3084 -0.1329
20188W        W35805  18.214   4.993  16.051 -0.0556 -0.0050 -0.4762
20189W        W35806   8.391  16.184  14.633  0.1675 -0.2334  0.0929
20190W        W35807  16.955   2.741  15.012 -0.0495  0.0131  0.0117
20191W        W35808   5.626   1.875  12.778 -0.1628 -0.0120 -0.1267
20192W        W35809  12.693   0.610   0.950  0.2839  0.2751  0.3503
20193W        W35810   7.050   0.411  15.384 -0.3609 -0.2362  0.3253
20194W        W35811  17.884  16.068   1.488 -0.1169  0.0742 -0.1602
20195W        W35812   1.611  12.333   2.086  0.1627  0.3502  0.0668
20196W        W35813  11.680  12.683  12.010  0.2557 -0.1752 -0.1103
20197W        W35814   1.158   5.270   3.093  0.2045 -0.1965 -0.2191
20198W        W35815   3.974   1.182  13.344  0.4313 -0.0962 -0.3938
20199W        W35816  10.807  17.486   0.840  0.1049 -0.0598  0.0132
20200W        W35817  17.811  12.586   1.516 -0.0174 -0.1292 -0.2027
20201W        W35818   8.189  10.674  14.901 -0.0738 -0.1390 -0.2035
20202W        W35819  11.312  15.986   1.580 -0.2314 -0.1556 -0.0002
20203W        W35820  13.630  16.053   4.653  0.1266 -0.3860  0.2625
20204W        W35821   2.200   0.870   3.004 -0.0298 -0.2101 -0.1715
20205W        W35822  16.587  10.657   1.028 -0.4646 -0.1799 -0.1489
20206W        W35823  17.238   4.780   2.045  0.0317 -0.4379 -0.0359
20207W        W35824   4.177  14.908  13.204  0.1362 -0.0111 -0.3491
20208W        W35825   5.683  15.729   0.026 -0.4188 -0.0884  0.0784
20209W        W35826  12.743   4.810  11.593 -0.0103 -0.0349 -0.3975
20210W        W35827   0.875   6.731   3.527  0.2546 -0.0065 -0.1683
20211W        W35828  10.801  10.386  11.273  0.1450 -0.2168  0.2432
20212W        W35829  17.974  10.895   5.750 -0.0221 -0.0058 -0.1451
20213W        W35830  11.863  17.334   3.624 -0.0027 -0.1749  0.2224
20214W        W35831  12.303   8.873  11.797  0.3602  0.2818  0.1342
20215W        W35832   1.690   6.358   0.018  0.4079  0.1224 -0.2048
20216W        W35833   3.536   6.681  15.781 -0.1650 -0.2633 -0.1364
20217W        W35834   6.023   7.042   4.534 -0.1280  0.1789 -0.0897
20218W        W35835  10.407  15.071   0.405 -0.1724 -0.0293 -0.4892
20219W        W35836  11.894   9.437  12.477 -0.1791 -0.1809  0.1230
20220W        W35837   8.996   5.393   5.403 -0.0022  0.2082  0.2625
20221W        W35838   4.755  13.355  10.491  0.0701  0.2885  0.1242
20222W        W35839  15.625   3.171   3.186 -0.1806  0.1253 -0.0578
20223W        W35840  11.960   8.366  10.761 -0.0020 -0.0010  0.1207
20224W        W35841   5.213   6.930  12.370 -0.1841 -0.0741 -0.0484
20225W        W35842   8.507  16.211  11.861 -0.1934 -0.3520  0.0434
20226W        W35843  13.866   2.071  11.345  0.0665  0.2060 -0.2814
20227W        W35844  18.276   1.549  15.733 -0.0595  0.0778  0.2373
20228W        W35845  14.611  10.637  15.201  0.0627  0.2043 -0.0228
20229W        W35846   0.025  13.120   2.015  0.0677 -0.0301 -0.0821
20230W        W35847   0.139  10.606  15.378 -0.0333 -0.1046  0.1667
20231W        W35848  11.032  16.555  13.781  0.0924  0.3262  0.1516
20232W        W35849  12.186   3.164   2.416  0.1275 -0.0360  0.0490
20233W        W35850  13.543  17.795   4.273  0.0096 -0.0741 -0.1740
20234W        W35851  17.628  14.238   3.110 -0.1773  0.1979 -0.0162
20235W        W35852  18.192  11.314   2.007  0.0577  0.1957  0.1389
20236W        W35853  14.780  12.400   2.601 -0.1401  0.1573 -0.4934
20237W        W35854   7.308  13.441  15.319 -0.4085  0.0216 -0.0859
20238W        W35855   3.886   9.110  13.686 -0.0938  0.1786 -0.3804
20239W        W35856  14.326   7.691   3.389  0.2581  0.1334  0.2875
20240W        W35857  14.073  15.868   0.307  0.1515 -0.2768  0.1147
20241W        W35858   2.736   9.221   3.049  0.0805 -0.1067 -0.0229
20242W        W35859   0.515   4.096  14.091 -0.0814 -0.2254  0.0801
20243W        W35860  18.167  18.383  13.204 -0.1165  0.1429 -0.0863
20244W        W35861   0.434  17.075   2.518  0.0819  0.1895 -0.0796
20245W        W35862   6.678   9.692  15.396 -0.1419  0.1848 -0.1250
20246W        W35863  13.036   9.396   3.456 -0.0806 -0.1462  0.0277
20247W        W35864   4.558   9.883  14.813 -0.1729 -0.0220 -0.0452
20248W        W35865  12.067  13.737   3.465 -0.1656 -0.1761 -0.1741
20249W        W35866   3.130   7.428  13.146  0.5114  0.2848 -0.3214
20250W        W35867  14.983   3.936  14.074  0.1019  0.1384 -0.0478
20251W        W35868   4.353  13.175   5.067  0.2110  0.3528 -0.1751
20252W        W35869  17.553   3.679   4.303  0.2722  0.1437  0.0094
20253W        W35870  17.681   8.906   0.010 -0.0675 -0.2460  0.3022
20254W        W35871  14.387   0.295   2.884  0.1056  0.5685  0.1747
20255W        W35872  15.363  17.408   1.971  0.3511  0.0426 -0.1782
20256W        W35873  16.491   8.167   5.387 -0.1033  0.1130 -0.1142
20257W        W35874   5.562  15.038   5.152 -0.2160  0.5201  0.0139
20258W        W35875  11.728  10.996  13.593 -0.1725 -0.2444 -0.1302
20259W        W35876  13.191  15.033  15.308  0.2068 -0.0445 -0.0588
20260W        W35877   8.611  13.169  13.596  0.1912  0.2274 -0.0360
20261W        W35878  11.639  17.291   1.105 -0.2321 -0.1676  0.0421
20262W        W35879  16.175  10.272   3.809  0.3301 -0.2293  0.0615
20263W        W35880   4.521   9.208  11.000  0.0051  0.1463 -0.1702
20264W        W35881   9.942   2.166  15.576  0.2168  0.1663  0.0295
20265W        W35882   0.043   5.998  13.114  0.0518  0.0472 -0.0379
20266W        W35883  15.521  10.086   4.842 -0.1508 -0.0327  0.0012
20267W        W35884  18.364  11.451   2.483  0.4411  0.0903  0.2704
20268W        W35885   2.332   2.167  13.083 -0.1379  0.1070 -0.1969
20269W        W35886  14.084   4.171  13.102 -0.1323  0.1230 -0.0524
20270W        W35887   5.021   5.126   1.583 -0.0859 -0.0583 -0.2789
20271W        W35888  17.520   2.998   5.713  0.0655  0.0463 -0.2700
20272W        W35889   8.066   6.371  14.789  0.4053 -0.1212  0.0841
20273W        W35890  14.294   3.339   1.695 -0.3093  0.1064 -0.1660
20274W        W35891   7.319   4.976  10.892  0.2591  0.1812  0.0332
20275W        W35892   1.237  17.300   4.939  0.0907  0.1154  0.3196
20276W        W35893  10.100  10.482   0.714 -0.2551 -0.2327 -0.3583
20277W        W35894   3.446   0.053   5.250  0.0402  0.1707 -0.1643
20278W        W35895   2.175  10.214   3.128 -0.0618  0.4092  0.0294
20279W        W35896   6.197   8.117  11.928  0.0831  0.1517  0.0566
20280W        W35897   1.328  13.160  14.928 -0.0619  0.0325  0.0317
20281W        W35898   5.775  13.989   2.578 -0.0068 -0.1091 -0.2079
20282W        W35899   2.831   6.963  10.704  0.3059 -0.0131 -0.1009
20283W        W35900   8.425  10.369   3.282  0.1105 -0.1588 -0.1271
20284W        W35901   3.908  14.608   6.589 -0.1517 -0.0684 -0.0958
20285W        W35902  14.378  10.174  14.481 -0.4390  0.0751 -0.1091
20286W        W35903   2.931  18.357   2.804  0.0251 -0.4820 -0.0705
20287W        W35904   1.413  14.809   0.755  0.2545 -0.0968  0.0084
20288W        W35905  15.440  10.247  12.769  0.0808  0.2135 -0.2921
20289W        W35906   3.038   2.377  13.538 -0.2455 -0.0644  0.2005
20290W        W35907   2.208   8.188   4.536 -0.1047 -0.3605 -0.1529
20291W        W35908   4.581   8.876   2.725  0.0879  0.0394  0.0315
20292W        W35909  15.240   0.257  11.205 -0.0514  0.1255  0.1906
20293W        W35910   3.004   3.119   3.908 -0.0276  0.1792  0.1178
20294W        W35911   9.237   3.620   4.409  0.0977  0.2841 -0.0053
20295W        W35912   9.753  14.995   5.315  0.0374  0.1850 -0.1688
20296W        W35913  10.181  16.416   0.674 -0.3033 -0.0596 -0.1806
20297W        W35914   6.072  15.553   2.636  0.0741 -0.1888 -0.2922
20298W        W35915   8.271  15.569  14.952 -0.1440 -0.2971 -0.0380
20299W        W35916   1.440   2.184  13.282 -0.1085  0.2793 -0.0887
20300W        W35917  13.183  18.365   4.898  0.1863 -0.0270  0.3472
20301W        W35918   1.196   4.197  11.572 -0.0458 -0.2279 -0.0219
20302W        W35919  14.240   8.273  10.476  0.0545  0.0753 -0.1644
20303W        W35920   6.853   8.066  12.751  0.0197  0.0981 -0.1483
20304W        W35921  14.912   1.022   2.812 -0.2085 -0.1513  0.0612
20305W        W35922   1.375   8.985  14.916  0.0503 -0.3138 -0.1761
20306W        W35923  18.165  14.478  13.429  0.0294  0.0203 -0.0283
20307W        W35924  16.534  17.871   2.364  0.3647  0.0021  0.0596
20308W        W35925  10.911  12.851   0.137 -0.0860 -0.2707  0.0542
20309W        W35926  11.562   0.891  13.106  0.1197  0.0208 -0.2406
20310W        W35927   2.099  14.388   3.560 -0.1579  0.1961  0.0658
20311W        W35928  14.048   6.530   0.468 -0.0942 -0.1585  0.1910
20312W        W35929  13.785  16.610   3.260 -0.1089 -0.0214  0.2777
20313W        W35930   7.556  17.704   4.687 -0.1773  0.0755  0.0945
20314W        W35931   0.693  16.012   1.338 -0.0020 -0.0186 -0.1529
20315W        W35932  17.612  13.476   4.136 -0.1404 -0.1645  0.1981
20316W        W35933   9.402  16.275   3.001  0.0755 -0.2570  0.1083
20317W        W35934  15.093   9.826  12.157 -0.0412 -0.0610  0.0182
20318W        W35935  17.282   4.538   0.915 -0.0094  0.0075 -0.2368
20319W        W35936   8.335  18.218  13.403 -0.2357  0.1816  0.0090
20320W        W35937   2.595  10.102   2.807 -0.1065 -0.1405  0.3594
20321W        W35938   8.692  13.837  12.477  0.2080 -0.1468  0.0334
20322W        W35939   4.889  10.716  12.619  0.0180  0.0590 -0.1474
20323W        W35940   8.377   9.914   4.081 -0.1243 -0.0022 -0.0960
20324W        W35941   3.660  12.356  12.469 -0.2152  0.0017  0.1648
20325W        W35942  17.511  17.557   4.513  0.1117 -0.0088  0.1136
20326W        W35943  15.939   8.781   1.209  0.0745  0.0985 -0.0966
20327W        W35944  12.484  10.860  14.683 -0.5027  0.2029  0.2950
20328W        W35945   4.174  14.327  11.796 -0.0004  0.4210  0.2264
20329W        W35946  10.899  16.588   1.132 -0.2591  0.2419 -0.3661
20330W        W35947  14.237  12.083   0.606  0.0453  0.2592  0.0941
20331W        W35948   1.734  16.105  12.505  0.3361 -0.1259 -0.0769
20332W        W35949   3.752  16.338   2.894 -0.0864  0.3125  0.1514
20333W        W35950   8.833   2.412   0.161 -0.0640 -0.1834 -0.0290
20334W        W35951   1.140   2.384  14.262 -0.0177 -0.0596 -0.1524
20335W        W35952   9.341  17.878   3.581  0.1410  0.0255 -0.4484
20336W        W35953  15.445   6.997  12.336  0.0496 -0.0352  0.1403
20337W        W35954  14.051   4.007   4.372 -0.3191 -0.0023  0.2664
20338W        W35955   5.785  15.447  12.671  0.1889  0.1041 -0.2451
20339W        W35956  16.436  12.485  15.081  0.0168 -0.0099 -0.1696
20340W        W35957   6.936   9.057  14.586  0.1860 -0.1168 -0.0590
20341W        W35958  13.820  11.307  14.600  0.1438  0.2469 -0.1416
20342W        W35959  15.551  12.132   6.063 -0.2218 -0.0998 -0.0861
20343W        W35960  18.430   4.838  13.214 -0.2771  0.1496 -0.1097
20344W        W35961  16.579  17.712   4.776 -0.0625  0.1603 -0.1918
20345W        W35962  16.392  14.429  11.556  0.1265  0.1077 -0.2083
20346W        W35963   3.086  14.400  14.075 -0.1875  0.2774  0.0083
20347W        W35964  14.725  16.068  10.900  0.2687 -0.1098  0.1650
20348W        W35965  10.984  14.743  11.355 -0.0625  0.2695 -0.0635
20349W        W35966   6.619  10.381   2.786  0.1706 -0.0911  0.1327
20350W        W35967  10.299   7.007   3.045  0.2936 -0.0912 -0.0929
20351W        W35968   8.807   5.922   1.301 -0.2122 -0.1013  0.1631
20352W        W35969  17.757   0.100  12.795  0.1505 -0.0577 -0.0552
20353W        W35970   4.867   2.566   5.577 -0.2614 -0.0380  0.0807
20354W        W35971   1.761   0.899  12.765  0.1126  0.1199 -0.0344
20355W        W35972  10.860   4.731  12.556  0.2027 -0.0914 -0.0453
20356W        W35973   3.404  11.824  10.731  0.0528 -0.0003  0.0251
20357W        W35974   2.392   7.196   3.337 -0.0026 -0.1187  0.0507
20358W        W35975   4.796  14.723  14.023  0.1069 -0.0541  0.0526
20359W        W35976  16.838  15.341  13.605  0.0521 -0.0466  0.0462
20360W        W35977   3.988  17.223   1.646 -0.3514  0.0492 -0.0505
20361W        W35978   7.328   1.840  14.354 -0.1127 -0.0017  0.0471
20362W        W35979   7.539  11.383  11.415 -0.0971 -0.1536 -0.2243
20363W        W35980  16.187  17.026   1.563 -0.0322  0.1748 -0.3972
20364W        W35981   4.927  11.383   2.485 -0.2464  0.3631  0.0602
20365W        W35982   8.569   1.330  13.131 -0.0823 -0.0883 -0.0570
20366W        W35983  17.241  12.973  10.967  0.0013  0.3463  0.1613
20367W        W35984  12.771  11.446  12.468 -0.1211 -0.2325 -0.1094
20368W        W35985   3.350  12.155   4.925  0.4378  0.3782 -0.2872
20369W        W35986   1.973   4.012   2.104  0.1237 -0.3217 -0.0098
20370W        W35987   7.551  12.160   2.151  0.0188  0.1651  0.2341
20371W        W35988   4.588   7.677   4.423 -0.1878  0.1002 -0.1942
20372W        W35989   7.778  17.027   3.268  0.1894 -0.1712 -0.0417
20373W        W35990  13.860  18.308  14.730  0.0308  0.0934 -0.0564
20374W        W35991  10.331  14.212   1.309 -0.1456  0.2303 -0.0390
20375W        W35992  17.048   5.076  12.086  0.3768 -0.0235  0.2131
20376W        W35993  11.539   7.281   3.762  0.1545 -0.0513  0.0976
20377W        W35994  13.950   6.228  12.732  0.0365  0.3096  0.0437
20378W        W35995   1.707   8.141   3.695  0.2228 -0.0056  0.0332
20379W        W35996  11.837  18.123  13.363  0.1954 -0.4249  0.1818
20380W        W35997   2.486  10.858   4.474 -0.2137  0.0249  0.4076
20381W        W35998   2.269   5.491   0.603 -0.1789 -0.2116  0.3743
20382W        W35999   5.969   6.291   5.008 -0.2768 -0.0153 -0.1827
20383W        W36000  13.102   4.976  14.796 -0.0517 -0.1023 -0.0790
20384W        W36001   1.629  15.747  13.254  0.0536  0.1901  0.1274
20385W        W36002   7.785   5.328  12.168 -0.1229 -0.2146 -0.3950
20386W        W36003  14.009  10.641   2.621  0.1125 -0.0007  0.2926
20387W        W36004  13.318   7.143   1.314  0.0801  0.2561 -0.1917
20388W        W36005   1.472   3.903  15.932 -0.1531  0.0488 -0.0397
20389W        W36006   1.892  15.066   0.684 -0.3475  0.1092  0.0692
20390W        W36007   0.551  16.709   3.271  0.2980 -0.1145 -0.0176
20391W        W36008  18.430   9.527  13.703  0.1277 -0.0332  0.0451
20392W        W36009   7.444  15.981  15.022 -0.0145 -0.3443  0.0990
20393W        W36010  13.021  10.548   2.113  0.0367  0.0236 -0.2070
20394W        W36011   7.671   1.369   4.166  0.2111  0.3133  0.2981
20395W        W36012   9.292  15.199  11.737 -0.1870  0.0054  0.0122
20396W        W36013  15.558   3.461   4.452 -0.0947  0.3223  0.1531
20397W        W36014  14.357   6.322   5.023 -0.2952 -0.1764  0.0071
20398W        W36015   5.393   1.260   3.626 -0.0010  0.1044 -0.0585
20399W        W36016  10.985   3.462  10.831 -0.1883 -0.1174  0.0607
20400W        W36017   2.098   7.144   0.870  0.1109  0.1548  0.3320
20401W        W36018  16.159  11.219   1.165  0.3431 -0.3147  0.3009
20402W        W36019   7.090  17.900  16.112 -0.1687 -0.0148  0.1692
20403W        W36020  15.076  14.443   4.311  0.1422  0.0718 -0.1120
20404W        W36021   3.885  17.074  15.361  0.0531 -0.0854  0.3942
20405W        W36022   2.706   7.269   5.757  0.3022 -0.3108  0.2490
20406W        W36023  16.321  18.123   3.517  0.0457 -0.1325  0.2418
20407W        W36024  14.763   6.828  15.318  0.3704 -0.1092 -0.0103
20408W        W36025  11.850  12.829   3.481  0.0400  0.0975 -0.1341
20409W        W36026   3.520  10.214   1.110 -0.5609  0.1457  0.2648
20410W        W36027   6.105  17.923  14.702 -0.1618  0.0402 -0.1220
20411W        W36028  16.578  11.981  13.011  0.2536 -0.0748 -0.0042
20412W        W36029   4.425  12.076   5.843 -0.1451 -0.2196  0.1926
20413W        W36030   4.372   5.372  16.129  0.0944  0.0160 -0.2002
20414W        W36031   5.433  10.885   0.324  0.1308  0.1266  0.0099
20415W        W36032   8.780  13.394  15.781  0.0182 -0.2855 -0.0485
20416W        W36033   3.392   6.239   2.013  0.0448  0.1572  0.2384
20417W        W36034  11.132   3.953   1.347 -0.1376  0.2159  0.0227
20418W        W36035   9.433   5.164   5.232  0.0482 -0.0854  0.1018
20419W        W36036   4.726   1.187  15.822  0.2012 -0.1787 -0.0470
20420W        W36037  12.295   2.691   0.863  0.1433  0.0924 -0.0302
20421W        W36038   6.671   0.143  13.034  0.0091 -0.3328 -0.1718
20422W        W36039   0.591   7.726  12.380  0.3195  0.4021 -0.1685
20423W        W36040   5.135  12.939  14.084  0.0845 -0.1981  0.3691
20424W        W36041  11.826  13.703   2.176 -0.2955  0.0319  0.0497
20425W        W36042   9.704   8.000   0.214  0.1820 -0.0540  0.2661
20426W        W36043   5.227   4.014   1.416 -0.0150 -0.0940  0.1777
20427W        W36044  16.224   6.715   4.902  0.1788  0.0539  0.0101
20428W        W36045  15.212  12.000  12.130 -0.1097 -0.2745 -0.1542
20429W        W36046   0.446  13.128  11.916  0.0994 -0.3486  0.0217
20430W        W36047   3.697   9.977  12.636 -0.0468 -0.1678  0.0771
20431W        W36048   8.625  12.258  14.269  0.2097  0.0579  0.0719
20432W        W36049  17.211  16.625  11.273  0.2041 -0.0201 -0.2784
20433W        W36050   9.943   9.101   1.880  0.1431  0.2582  0.3267
20434W        W36051  12.844  15.424  12.374 -0.0271  0.0174  0.0410
20435W        W36052   2.902  18.283   5.396  0.2486  0.1792 -0.1067
20436W        W36053   5.756  14.975  15.084 -0.2035 -0.2138  0.2163
20437W        W36054   8.289   3.686  16.081 -0.0141 -0.4221 -0.2209
20438W        W36055   9.699   2.283  12.750  0.0217 -0.1211  0.1749
20439W        W36056  16.810   6.761   4.950  0.0720  0.0143 -0.2711
20440W        W36057   2.781   5.055   2.282  0.1959  0.1689  0.0162
20441W        W36058  14.357   7.493   0.435 -0.1449  0.1379  0.1357
20442W        W36059  17.362  18.372  12.481  0.1124  0.1099  0.0701
20443W        W36060   7.821  10.241  14.313  0.1137 -0.0060 -0.0596
20444W        W36061  15.174  18.148  11.968  0.1338 -0.0135 -0.0757
20445W        W36062  12.286   7.359   2.028  0.2848 -0.0540 -0.1304
20446W        W36063  10.596   9.837   1.040  0.0195 -0.0837 -0.3952
20447W        W36064  13.425  16.692   5.353 -0.3464 -0.2331 -0.0585
20448W        W36065   9.604  13.205  13.189 -0.1285  0.1621  0.1564
20449W        W36066   8.372   1.004  15.187  0.0877  0.2042 -0.0276
20450W        W36067  17.073   7.216   2.302 -0.0071  0.0108  0.2153
20451W        W36068   3.195   4.540  12.089  0.3259  0.1939  0.2758
20452W        W36069  18.330   0.132  15.501 -0.0431 -0.1088  0.1253
20453W        W36070   0.610  13.346   1.593  0.2494 -0.1187 -0.0999
20454W        W36071   5.125   5.686  11.666  0.0403  0.0587  0.0139
20455W        W36072   1.476  12.630   3.166 -0.0182 -0.6656 -0.0347
20456W        W36073  14.632   1.129  11.968  0.0370 -0.3810 -0.0868
20457W        W36074  16.095  16.825  11.669  0.3301 -0.1152  0.0086
20458W        W36075  18.436   6.626  11.711  0.1952  0.0618 -0.0461
20459W        W36076  18.055   6.682   0.120 -0.0003 -0.1841  0.1778
20460W        W36077   2.228   1.179  15.220  0.0435  0.3053  0.2815
20461W        W36078  16.246  12.002   2.016 -0.2700  0.2597  0.0754
20462W        W36079   6.563   4.973  12.454 -0.0554  0.1402  0.1982
20463W        W36080  10.582  16.170  11.338  0.0807 -0.2471  0.1675
20464W        W36081   9.541  11.653   3.861  0.1302  0.0132  0.1183
20465W        W36082  15.190  15.245   4.910 -0.1086  0.0058  0.4992
20466W        W36083  18.062  18.142  14.063 -0.2341 -0.3007 -0.2744
20467W        W36084   7.165  14.800   5.625  0.2747  0.1248  0.1033
20468W        W36085  17.384   6.202  13.096  0.0962 -0.1582 -0.2440
20469W        W36086  12.413  18.019  13.136  0.1286  0.2045  0.1204
20470W        W36087  14.536   9.418   2.904 -0.0619  0.1033  0.3769
20471W        W36088  15.726  11.190   0.835 -0.1338 -0.0468  0.1717
20472W        W36089  17.497  13.669   1.324  0.2836  0.2062 -0.0631
20473W        W36090  15.768   6.571  14.071  0.0727 -0.1788 -0.3370
20474W        W36091   7.220   8.149   2.591  0.1064  0.1515 -0.0819
20475W        W36092  10.115  11.445   4.234 -0.1377  0.0869 -0.0448
20476W        W36093   8.335  17.046  13.117  0.0099  0.1392 -0.0050
20477W        W36094  13.317   3.680   4.920 -0.1125 -0.4660  0.5592
20478W        W36095   2.959  15.918   1.752 -0.0306  0.3377  0.0940
20479W        W36096  12.431  13.293   2.548 -0.4022  0.0382 -0.0139
20480W        W36097  12.709  11.186  11.658  0.2990  0.0195 -0.4209
20481W        W36098   4.147  13.294  13.191  0.1958 -0.1166  0.3005
20482W        W36099   6.871  10.401   4.967 -0.0233 -0.2073 -0.3312
20483W        W36100   0.911   0.020   1.283  0.2843  0.0998  0.3849
20484W        W36101   0.149  11.777   6.188 -0.0742  0.1891 -0.0413
20485W        W36102  16.716   1.133  13.735 -0.0431  0.2344 -0.0798
20486W        W36103   6.835  16.583   4.502  0.0415  0.1066  0.2176
20487W        W36104   9.301  12.290  16.052 -0.0215 -0.0397 -0.2532
20488W        W36105  14.541   8.285   0.969 -0.1069 -0.2236  0.1028
20489W        W36106   9.204  13.207   0.433 -0.4677 -0.1735 -0.1037
20490W        W36107  11.532   1.205  14.021 -0.0366  0.1617  0.5259
20491W        W36108   1.443   6.550   3.931  0.1252 -0.0684  0.0236
20492W        W36109  12.718  12.721   1.330 -0.2808  0.0436 -0.0851
20493W        W36110   6.273   7.284  11.544 -0.2047  0.1262  0.1570
20494W        W36111   1.191   3.330  15.995 -0.1086 -0.2078 -0.2414
20495W        W36112   3.711  14.516   3.871  0.1231  0.0851  0.3228
20496W        W36113   6.226   2.007  12.607 -0.1493 -0.2339 -0.1829
20497W        W36114   3.816   2.849  12.585  0.2690 -0.0690 -0.0198
20498W        W36115  14.043  17.921  13.793 -0.1047  0.1990 -0.2694
20499W        W36116  12.239   8.972  15.892  0.2941 -0.1554  0.1195
20500W        W36117  17.230   7.648  15.166 -0.0658  0.2851 -0.4517
20501W        W36118   8.743   8.733   5.575  0.1983 -0.1640  0.1092
20502W        W36119  10.326   1.512   4.568 -0.0145  0.0210  0.2272
20503W        W36120  13.493  15.065   1.894  0.0395 -0.1526 -0.0721
20504W        W36121  12.558   7.246   2.406  0.2903 -0.0415  0.0928
20505W        W36122  15.897   3.104   4.157 -0.2976  0.0797 -0.0354
20506W        W36123  12.441   5.504  13.838 -0.2110  0.0504  0.2871
20507W        W36124  14.876  11.086  15.322 -0.2885  0.0731  0.1018
20508W        W36125  17.405   1.772   0.584 -0.0043  0.0020 -0.1094
20509W        W36126  12.333   2.429  12.269 -0.0934 -0.2591 -0.1203
20510W        W36127  10.217   0.117  13.784 -0.0711  0.0430  0.1036
20511W        W36128   4.997   3.456   3.793 -0.1713 -0.2856 -0.2864
20512W        W36129  17.600   3.985  13.735 -0.2268 -0.4413 -0.0124
20513W        W36130   3.261   8.391  13.930  0.3016  0.4948  0.2930
20514W        W36131  15.440   7.002   4.455  0.2691 -0.0549  0.2166
20515W        W36132   4.054  11.504   4.038 -0.1629  0.2195 -0.2021
20516W        W36133  14.581   9.153  12.521 -0.3887  0.2086 -0.1592
20517W        W36134   0.479  12.757  13.727  0.2071 -0.1107  0.1072
20518W        W36135   3.028  11.815  14.007  0.1850 -0.0785  0.2065
20519W        W36136   1.409  10.778  10.833 -0.2685 -0.1545 -0.1834
20520W        W36137  15.062   5.323  13.001  0.3732 -0.0210 -0.0155
20521W        W36138  16.909   2.647  13.110  0.0302 -0.1731  0.1663
20522W        W36139  13.098  10.875   4.928 -0.2007 -0.1348  0.1562
20523W        W36140  12.378  14.711  15.376 -0.0052 -0.0570  0.1728
20524W        W36141  13.171  16.150  13.496 -0.0762 -0.0198 -0.0835
20525W        W36142   5.839  10.055   3.743 -0.0977  0.3808 -0.1616
20526W        W36143   0.406   0.505   0.062  0.1586 -0.1270  0.0078
20527W        W36144  18.380   6.436  14.199 -0.0457 -0.1073  0.0182
20528W        W36145   3.110  12.769   3.399  0.1104  0.0793  0.1612
20529W        W36146  18.013   6.030   3.088  0.0008 -0.0356 -0.2921
20530W        W36147   8.362  15.456  13.028  0.0836 -0.1193 -0.3499
20531W        W36148   6.511   2.087   1.387 -0.2699 -0.2242  0.0454
20532W        W36149   5.850  12.268  11.848  0.1045 -0.0575 -0.0736
20533W        W36150  13.871  14.576   2.533  0.0032 -0.2269 -0.1426
20534W        W36151  17.165   3.314   0.491 -0.3346 -0.0128 -0.0051
20535W        W36152   0.229  17.263   3.675  0.0580 -0.0568 -0.0664
20536W        W36153   1.423  12.640  14.690 -0.2579  0.2947 -0.1416
20537W        W36154  16.478   1.420  15.469  0.5637 -0.1364 -0.2380
20538W        W36155  14.833  12.980  15.213  0.2025  0.0207  0.0022
20539W        W36156  15.828  16.685   1.530  0.2791  0.2191 -0.0056
20540W        W36157  14.617  18.391   0.299  0.0108 -0.2055  0.1240
20541W        W36158  13.032   0.477  12.742  0.1526  0.1980  0.1351
20542W        W36159  10.275   6.104   2.780  0.2638  0.1311  0.1660
20543W        W36160  16.922   7.480  11.312 -0.2697 -0.3145 -0.0574
20544W        W36161  15.108   6.597   0.919  0.0230  0.1945 -0.2359
20545W        W36162   8.431   5.282  12.258 -0.1610 -0.0711  0.0233
20546W        W36163   4.305   2.726  13.737  0.1875  0.3154  0.0675
20547W        W36164  13.678  16.061  12.009 -0.2457 -0.2920  0.1672
20548W        W36165   1.801   4.255  13.847  0.0027  0.0929  0.2442
20549W        W36166   5.571  15.350  12.152 -0.0686  0.0543 -0.2043
20550W        W36167  15.314  10.140   1.600 -0.2256 -0.0634  0.0914
20551W        W36168   2.430  10.093  14.059 -0.0874  0.1689 -0.0569
20552W        W36169   9.306   1.863   1.694  0.1795 -0.1140 -0.1594
20553W        W36170   0.795  13.348   3.339 -0.2351 -0.1198  0.0113
20554W        W36171  15.772  18.023  11.625 -0.0723 -0.3133  0.2741
20555W        W36172  13.075  14.150   0.252 -0.0491 -0.2037 -0.1759
20556W        W36173  16.429   4.792   4.292  0.0802 -0.1098 -0.0841
20557W        W36174  10.310   6.881   1.460  0.0931 -0.1581  0.2764
20558W        W36175   1.254   2.072   4.072 -0.0169 -0.2759 -0.0642
20559W        W36176   1.794   0.104  12.322  0.3290 -0.0868  0.0863
20560W        W36177  11.351   8.753   4.581 -0.3324  0.1943 -0.2393
20561W        W36178  11.628  15.877   4.712  0.0446 -0.1233 -0.1058
20562W        W36179  11.963   3.538   3.799  0.1312  0.0247  0.0659
20563W        W36180   7.275   5.940  15.913  0.1857 -0.1162  0.1201
20564W        W36181  16.692  12.136   2.833 -0.2744 -0.5760 -0.1615
20565W        W36182   0.949   5.053  15.735  0.1424 -0.2061  0.1480
20566W        W36183  10.054   5.974  15.601  0.0112 -0.4400 -0.0508
20567W        W36184  16.441  10.225  15.010  0.2323  0.7992  0.3211
20568W        W36185  11.637   9.755   3.700  0.0714  0.2296  0.0116
20569W        W36186  11.455   3.532   2.904 -0.0519  0.4331 -0.3818
20570W        W36187  14.096  13.774  14.420 -0.0329 -0.2461 -0.5024
20571W        W36188   4.668  13.041   2.789  0.3700 -0.3078  0.0342
20572W        W36189  11.811  18.382   4.455  0.0666 -0.1518  0.0850
20573W        W36190   4.660  10.440  14.616 -0.0714 -0.0526 -0.1048
20574W        W36191  10.020   0.615   2.784  0.0067  0.0256  0.1013
20575W        W36192  18.008   0.728   2.873  0.1382 -0.0716 -0.0635
20576W        W36193  12.904  16.007  11.291 -0.0780  0.4582 -0.4102
20577W        W36194   5.329   1.061   4.170 -0.1549 -0.0035  0.0821
20578W        W36195  10.766  14.694  13.157 -0.0035  0.0913 -0.0235
20579W        W36196  11.574   3.363  15.290  0.3024  0.2106  0.1081
20580W        W36197  11.892   4.303   1.565  0.0954  0.3379  0.2974
20581W        W36198   0.850   4.919   0.906  0.1288  0.2187  0.3159
20582W        W36199  16.968   1.134  12.272  0.0176 -0.2909  0.1075
20583W        W36200  15.802   7.567  15.913 -0.4309 -0.0248  0.2731
20584W        W36201  10.062  12.041   5.962  0.0313  0.0014  0.1138
20585W        W36202  10.304   9.438   4.104 -0.0035  0.2489 -0.0955
20586W        W36203  13.521   4.498  12.282 -0.2374  0.1171 -0.1471
20587W        W36204   6.855   2.611   3.727  0.0229 -0.2060  0.0250
20588W        W36205   9.499   8.973   4.096 -0.1241 -0.3933  0.3109
20589W        W36206   9.769  16.269  11.630  0.3569  0.0945 -0.0380
20590W        W36207   2.372   6.900   2.945 -0.1860  0.1789  0.1313
20591W        W36208   5.528  10.987   3.910 -0.0557 -0.0196 -0.1945
20592W        W36209  12.943  15.957   0.618 -0.1044  0.0465  0.2642
20593W        W36210  12.361   0.411   5.465  0.2425  0.1663 -0.0793
20594W        W36211  12.530  18.080  14.083 -0.0453 -0.1339  0.0548
20595W        W36212   5.323   6.468   4.476  0.1264 -0.1111 -0.1151
20596W        W36213  11.592   6.213   3.153 -0.3424 -0.0889 -0.1678
20597W        W36214  13.549   0.187   5.228 -0.1864 -0.1511 -0.2920
20598W        W36215  18.170   9.287   4.673  0.3229  0.0124  0.2557
20599W        W36216   7.472   8.658  13.630 -0.0490 -0.0361  0.1026
20600W        W36217  16.565  18.044  12.974 -0.1697  0.3148 -0.1045
20601W        W36218  10.829   1.725  13.049 -0.0596 -0.0949  0.0850
20602W        W36219  11.340  16.671   4.674 -0.0936  0.1860  0.0041
20603W        W36220  16.175  17.801   5.827 -0.2107 -0.1265 -0.1271
20604W        W36221   4.980   3.622   2.801 -0.0056 -0.1373  0.0307
20605W        W36222  12.402  18.231   2.163 -0.0172  0.3626  0.0461
20606W        W36223  15.118  11.187   2.867  0.3442 -0.2458  0.1775
20607W        W36224   9.828  14.968   1.755  0.0067 -0.1509  0.2732
20608W        W36225   6.086  12.054  15.231 -0.0837 -0.6206  0.0624
20609W        W36226   6.160  14.166   2.919 -0.2059 -0.0227 -0.3232
20610W        W36227   8.408   6.833  10.082 -0.0622  0.1870 -0.1153
20611W        W36228   8.006   0.777  12.418  0.0285  0.2515 -0.0368
20612W        W36229   0.526   3.922  15.686 -0.0457 -0.2317 -0.0942
20613W        W36230   9.634   7.940   1.245  0.2477 -0.1784  0.1220
20614W        W36231   7.243  12.012   1.634  0.2295  0.0714  0.0772
20615W        W36232   3.143   1.641   2.504  0.0567 -0.1456 -0.0445
20616W        W36233   0.125  17.446   1.642  0.1968  0.3378 -0.2031
20617W        W36234   8.918  10.626  15.129 -0.0847 -0.0193 -0.2017
20618W        W36235   0.241   9.234   2.995  0.1394  0.2981  0.2090
20619W        W36236   7.424  16.993   2.223 -0.1479  0.0389 -0.3583
20620W        W36237   3.106   1.507   4.158 -0.1791  0.0106 -0.0342
20621W        W36238  14.994   1.304   4.541  0.2896  0.0526  0.0445
20622W        W36239  11.106   4.555   0.542  0.2842 -0.2765 -0.0814
20623W        W36240   6.209   1.340  12.204  0.0084 -0.2397 -0.1060
20624W        W36241  13.863   4.393   6.012  0.0776 -0.2204 -0.1679
20625W        W36242  18.005   6.211   2.055 -0.2340  0.0882 -0.1302
20626W        W36243  15.369  14.253  12.499  0.4416  0.2584 -0.0493
20627W        W36244   4.448   8.860   0.942 -0.0435 -0.0018 -0.1710
20628W        W36245  11.167   9.470  14.410 -0.1467 -0.0003  0.2238
20629W        W36246   7.037  12.112   5.191  0.0771  0.1148  0.0385
20630W        W36247   2.221  13.473   0.246 -0.3834  0.2576  0.2490
20631W        W36248   1.310   1.152  14.228 -0.2498 -0.1142 -0.2365
20632W        W36249  14.198  18.321   3.564  0.0574  0.2586  0.0230
20633W        W36250   9.772  12.352   0.202  0.0267  0.1599 -0.4255
20634W        W36251  12.763   2.983  15.386 -0.0785 -0.3658 -0.0044
20635W        W36252   5.183  15.254  11.827 -0.1116 -0.3186  0.4012
20636W        W36253   4.528   5.639   0.365 -0.1784 -0.2431 -0.1412
20637W        W36254   9.971  13.194  14.658 -0.1543 -0.1766 -0.1739
20638W        W36255   9.296   5.016   3.057  0.1073  0.3536 -0.0968
20639W        W36256  17.412   0.529   3.451 -0.2379 -0.1564  0.1422
20640W        W36257   0.306  15.162   5.103 -0.0340  0.5799  0.2543
20641W        W36258   1.723   3.795  12.194 -0.1385 -0.1369 -0.0130
20642W        W36259   2.739   4.878  14.137  0.1299  0.3080 -0.0406
20643W        W36260  14.036  16.135  12.574  0.1937 -0.2768 -0.2985
20644W        W36261   2.954   6.075  12.630  0.0414 -0.1577 -0.2932
20645W        W36262   3.764  12.799  14.022 -0.1588 -0.0330 -0.0758
20646W        W36263   0.123  12.965   2.868  0.0170  0.0251 -0.0562
20647W        W36264  11.981  12.742   1.593 -0.3817 -0.1564  0.0645
20648W        W36265   9.661  16.960  15.088  0.0485 -0.0742  0.2801
20649W        W36266  16.650  14.609   4.414  0.0419  0.1302 -0.0306
20650W        W36267  16.571  16.932  12.883 -0.1451  0.1328 -0.1600
20651W        W36268   2.134  12.181  14.755  0.1261 -0.0273  0.3575
20652W        W36269   5.040   4.979   2.758  0.1552  0.2680  0.0140
20653W        W36270  12.614  17.166  15.857 -0.2558  0.0412 -0.1073
20654W        W36271   5.630   3.726   1.448 -0.0638 -0.0904 -0.5130
20655W        W36272   9.670   7.258   4.304 -0.0593 -0.1701 -0.5941
20656W        W36273   8.778  10.101   4.989 -0.0407  0.0555  0.0402
20657W        W36274   1.110  12.532   1.880  0.0465  0.0421  0.2005
20658W        W36275  16.901  12.748  11.238  0.0177  0.1012 -0.0736
20659W        W36276  10.680  10.979  12.212  0.1449 -0.0651 -0.0036
20660W        W36277  15.922   6.022   0.501  0.1667  0.1826 -0.0510
20661W        W36278  12.666  13.004  12.014 -0.0152  0.1721 -0.0250
20662W        W36279   7.619   0.678   5.577 -0.0745  0.0657 -0.1602
20663W        W36280   6.773  14.965   1.416  0.2714 -0.1102 -0.0974
20664W        W36281   9.904  11.866   0.510 -0.2373  0.0202  0.0177
20665W        W36282   9.902  18.146  11.606  0.0217  0.2651  0.0209
20666W        W36283   7.975  15.972  14.871 -0.1501 -0.0136  0.1291
20667W        W36284   8.557   1.347  15.686  0.0066  0.1192 -0.1087
20668W        W36285  11.347   4.201   5.138  0.0428 -0.0938  0.0206
20669W        W36286   1.083   3.015  12.492 -0.0191  0.1668 -0.0416
20670W        W36287   5.342   6.575  14.221 -0.0758 -0.2042  0.1620
20671W        W36288  17.047   4.892   1.589  0.1883  0.0084 -0.1425
20672W        W36289   6.912   2.342   1.591  0.0596  0.1461 -0.0966
20673W        W36290   2.164   2.650  11.485  0.1709 -0.1137  0.0721
20674W        W36291   0.099   5.863  10.861 -0.0247  0.0284 -0.0176
20675W        W36292   9.137  11.170  15.119  0.1305 -0.0498  0.3868
20676W        W36293   1.097   8.922   5.205  0.2117  0.0257  0.0798
20677W        W36294   4.154  16.504   0.097 -0.2314  0.3367 -0.2088
20678W        W36295   5.132   5.377   5.243 -0.1606 -0.2492  0.2166
20679W        W36296  15.937  15.870  14.641 -0.3510 -0.0877  0.0691
20680W        W36297  15.159   3.386   3.144  0.0502 -0.1525  0.0170
20681W        W36298   6.419  11.321  11.995  0.0620  0.2357  0.2081
20682W        W36299   6.598   2.245   0.737  0.0477  0.2521  0.0976
20683W        W36300  17.086   5.179  14.762  0.2648 -0.2386 -0.0257
20684W        W36301  11.498   1.910   1.185  0.0503 -0.1998 -0.0547
20685W        W36302   2.978   2.517  12.376 -0.3073 -0.2502 -0.2971
20686W        W36303  10.009   8.227  13.706  0.4168 -0.0552  0.1709
20687W        W36304   0.736  14.707   0.158  0.0227  0.1736  0.1323
20688W        W36305  10.467  18.240   3.759 -0.0608  0.1157 -0.1660
20689W        W36306   1.962  17.682  13.685 -0.0664  0.0184  0.1888
20690W        W36307   2.666  10.850  15.683 -0.1198  0.0352  0.0486
20691W        W36308  16.420  15.332   1.572 -0.2492  0.0997 -0.1861
20692W        W36309  11.137   6.346   2.953  0.3205  0.1970 -0.0324
20693W        W36310  12.610   6.266   3.277  0.2344 -0.1199 -0.1205
20694W        W36311  12.263  11.667  13.644  0.3509 -0.0859 -0.2366
20695W        W36312   0.898  16.155   2.457  0.1977  0.1335 -0.2398
20696W        W36313   8.730   8.007   1.165 -0.1030  0.3009 -0.2778
20697W        W36314  14.739   5.100  11.673  0.2243 -0.2699 -0.0018
20698W        W36315  11.068   9.380   2.260 -0.3913  0.2760 -0.1036
20699W        W36316   1.152  15.216  15.595  0.0287  0.1402 -0.2380
20700W        W36317   9.067  17.677   4.055  0.0080 -0.3384 -0.1830
20701W        W36318  16.667  14.668  14.001  0.1123 -0.2842 -0.2097
20702W        W36319   5.476  12.671  11.834 -0.1228 -0.0724  0.1794
20703W        W36320  13.600   6.721  13.927 -0.0105 -0.1180 -0.0656
20704W        W36321  11.946   1.887  15.612  0.1520  0.0935  0.1174
20705W        W36322   2.857  10.625  16.107  0.0515  0.1065  0.0742
20706W        W36323  14.920  14.586   2.872  0.0807  0.0593  0.0738
20707W        W36324   1.924   1.957   2.276  0.2117 -0.0040  0.1100
20708W        W36325  12.164   4.320  11.147  0.1270  0.4746  0.1536
20709W        W36326  15.150  13.663  14.072 -0.2640  0.0286 -0.2107
20710W        W36327  14.093  12.905   2.833  0.2444  0.0055  0.2358
20711W        W36328  13.523   5.851   1.697  0.0197 -0.2287 -0.0088
20712W        W36329   5.042  14.746   2.981  0.1590  0.0200 -0.0130
20713W        W36330   1.760   9.560   1.489 -0.0081  0.1021  0.1564
20714W        W36331  15.034  17.887  15.017 -0.1496  0.2242  0.1896
20715W        W36332  13.135  15.539  14.102 -0.1101 -0.1384 -0.1907
20716W        W36333   7.595   6.172  10.456 -0.1291 -0.0960  0.3557
20717W        W36334   8.316   2.740  11.673 -0.1159 -0.2580  0.1857
20718W        W36335  12.536   8.146  14.966  0.0778  0.1060  0.0731
20719W        W36336  12.939  16.138   3.860  0.2673 -0.0226  0.1908
20720W        W36337  11.766   3.113   3.443 -0.0764  0.3248  0.0438
20721W        W36338   7.251  14.562   3.558 -0.1148 -0.2617  0.0373
20722W        W36339   5.969  16.417  15.360 -0.0858 -0.2907  0.4567
20723W        W36340  12.066   6.082  15.703 -0.1061 -0.3675  0.1934
20724W        W36341   5.844  11.524   1.546 -0.0976 -0.3700  0.1270
20725W        W36342   8.068   1.033   4.291 -0.1651 -0.2138 -0.0328
20726W        W36343   6.390  16.834  16.113  0.1111  0.1543  0.2126
20727W        W36344   4.428   7.123   0.392  0.2259  0.2178 -0.2152
20728W        W36345   4.280   1.845   5.736  0.2202 -0.5276 -0.1587
20729W        W36346  18.102  15.183  12.121 -0.2976 -0.2882  0.3156
20730W        W36347   3.616   5.418  11.195  0.3755 -0.0311  0.0018
20731W        W36348   6.546   3.651   4.481  0.0920 -0.1377 -0.1147
20732W        W36349  15.315   0.503  12.189  0.3549 -0.1100 -0.0097
20733W        W36350   5.783   2.057   4.949  0.6582  0.1697  0.1141
20734W        W36351  15.906   7.848  11.236 -0.1803 -0.0203 -0.1742
20735W        W36352  15.554  14.732  11.793 -0.1993  0.1942  0.1854
20736W        W36353  10.868   3.296   1.967  0.2597 -0.1319 -0.1664
20737W        W36354   3.202   3.424   0.835  0.1960 -0.1628 -0.0900
20738W        W36355  14.446  11.354   6.117 -0.1076 -0.1339  0.0623
20739W        W36356   5.332  14.948   3.330 -0.1747 -0.3718  0.0607
20740W        W36357   0.145   0.687   3.827 -0.1986  0.1629  0.1378
20741W        W36358  17.550   2.053   5.901 -0.1575  0.1267  0.5759
20742W        W36359   2.522   5.909  14.221  0.0587  0.0349 -0.1645
20743W        W36360   2.917   9.620  14.320  0.0540 -0.1807 -0.0444
20744W        W36361  10.118  12.983   5.073 -0.2406  0.0906 -0.0151
20745W        W36362  11.148  15.143  15.681  0.0205  0.1905  0.1717
20746W        W36363   1.061   7.401   2.751  0.2944 -0.1403  0.0221
20747W        W36364  10.975  12.649  11.498 -0.2241 -0.4571  0.0323
20748W        W36365  12.922  16.016  12.200 -0.4905  0.2626 -0.4244
20749W        W36366   4.255  15.146  12.174  0.3677 -0.2156  0.6609
20750W        W36367   7.825   3.653  15.218 -0.3158 -0.0579 -0.0627
20751W        W36368  18.007  12.722   3.529  0.1407  0.2599  0.4495
20752W        W36369   4.825   5.487   4.643 -0.0556  0.1946  0.0755
20753W        W36370  16.279   8.041  12.298  0.1393 -0.0394 -0.2942
20754W        W36371   7.731  12.081   3.730  0.2362 -0.3067 -0.0602
20755W        W36372   6.251   3.018   1.709 -0.0494 -0.0323  0.1007
20756W        W36373   0.286  12.157   2.142  0.3080  0.2501 -0.0394
20757W        W36374   2.393  11.000   3.292  0.2850  0.4461  0.1433
20758W        W36375  11.376  12.910  10.130  0.1842 -0.3238  0.1874
20759W        W36376   3.782   3.544  13.863 -0.1627 -0.1467 -0.0187
20760W        W36377  15.413   5.131   3.740 -0.0424 -0.0290  0.1260
20761W        W36378  14.036   3.399   3.093 -0.0541 -0.1993  0.0497
20762W        W36379  16.105  13.813   5.143 -0.1462 -0.0377 -0.3607
20763W        W36380   7.819   0.535  12.017 -0.1287 -0.1631 -0.1314
20764W        W36381   3.545  16.006   6.432  0.0567 -0.2134  0.1209
20765W        W36382  15.160  18.273   6.256 -0.1236  0.2728 -0.1772
20766W        W36383  11.288   7.768   0.874 -0.1497  0.4017  0.1545
20767W        W36384   1.739  15.328   5.698 -0.1399  0.0903 -0.0514
20768W        W36385   5.479   3.613  11.645 -0.0421  0.3717  0.0944
20769W        W36386   1.467   7.260   2.524  0.1030  0.1287  0.2731
20770W        W36387   7.465   1.298   1.273  0.2467  0.0863  0.4541
20771W        W36388   1.364   5.764   2.271 -0.0411  0.1800 -0.0500
20772W        W36389  14.404  10.547  13.678 -0.0758  0.1543  0.1152
20773W        W36390   8.607   8.493   4.525  0.0946  0.0978 -0.4430
20774W        W36391  16.997  18.259   0.140  0.2383 -0.1307 -0.2023
20775W        W36392  13.407   4.468  15.959 -0.4591  0.1420 -0.1587
20776W        W36393   9.090  13.522  11.378 -0.0779 -0.1322 -0.0452
20777W        W36394   9.336  15.612  15.828  0.0584  0.0244 -0.0448
20778W        W36395  16.035  11.226   2.120 -0.0543 -0.1280 -0.2218
20779W        W36396  17.434  15.719   5.057  0.3398 -0.1439 -0.0548
20780W        W36397   9.173   2.810  11.946 -0.1969 -0.0668  0.0966
20781W        W36398   0.600  16.843   1.181  0.1762  0.4608  0.1050
20782W        W36399   9.333   7.313  10.222 -0.0761 -0.2318  0.1172
20783W        W36400  15.032  15.739  14.066 -0.1210  0.2790 -0.1747
20784W        W36401  17.330   4.251  14.262 -0.0218  0.2196  0.3088
20785W        W36402   2.272   3.733  14.242 -0.1813 -0.0819  0.4239
20786W        W36403   9.507  18.332   3.432 -0.1273  0.0732 -0.3995
20787W        W36404   2.644   2.857   4.828  0.0039  0.0271  0.1786
20788W        W36405   8.382   1.798  14.565 -0.0196  0.0840  0.0264
20789W        W36406   4.938   9.263  13.839 -0.1700  0.3233  0.0088
20790W        W36407  11.466   6.810  10.960  0.1394 -0.1072  0.0666
20791W        W36408   5.340   2.520  11.378 -0.0900 -0.0284 -0.3879
20792W        W36409  17.215   5.853   1.647 -0.0744 -0.1842  0.0886
20793W        W36410   9.765  12.761   5.410 -0.0256 -0.1204 -0.0965
20794W        W36411  13.452  14.077  14.809 -0.0955 -0.1428  0.2182
20795W        W36412  17.072   2.624  12.622 -0.0606 -0.2378 -0.1856
20796W        W36413   2.142   3.304   4.077  0.1628  0.1962 -0.1430
20797W        W36414  13.697  14.147  16.077 -0.2507  0.0470  0.0560
20798W        W36415   8.496  13.052   5.648 -0.0345 -0.1648 -0.0440
20799W        W36416  13.625  15.917  12.796 -0.1310 -0.0934 -0.4448
20800W        W36417   2.074  14.692  11.837  0.0236 -0.0208  0.1371
20801W        W36418   1.409  13.419   4.243 -0.0133 -0.1379 -0.1285
20802W        W36419  17.020  14.075   2.144 -0.2094 -0.0324  0.1143
20803W        W36420   2.484  13.846  15.251  0.0931  0.0169 -0.2575
20804W        W36421   4.262   1.224   0.737  0.2048  0.0423 -0.2272
20805W        W36422   8.175   3.126   3.835  0.0330 -0.0824 -0.2480
20806W        W36423  11.279   1.459  11.522  0.1520 -0.0180 -0.0732
20807W        W36424  17.990   6.666   2.410 -0.0902 -0.1363  0.0304
20808W        W36425   8.606   2.274  12.637  0.1318 -0.2364 -0.1708
20809W        W36426  11.896   7.695  14.760 -0.3770 -0.2019 -0.2033
20810W        W36427   6.678   5.427  14.885  0.1262 -0.1340 -0.2149
20811W        W36428  17.277  17.753   3.944  0.1372  0.1602  0.1436
20812W        W36429  18.092  14.369   2.807  0.3199 -0.2080  0.1491
20813W        W36430  16.549   9.459   0.540 -0.1238 -0.0137  0.3591
20814W        W36431  15.156   8.214   0.204 -0.1053 -0.3253  0.0438
20815W        W36432   0.917  11.145  12.509 -0.0179  0.0315 -0.0751
20816W        W36433   0.604   3.595   3.296 -0.1289 -0.0007  0.0311
20817W        W36434   4.403   4.721  15.029 -0.2573  0.0469  0.0647
20818W        W36435  14.971   3.589   0.975  0.3135 -0.1127  0.3659
20819W        W36436   4.255  15.082   6.030  0.2693 -0.3235 -0.2476
20820W        W36437  16.188   4.150  15.379 -0.0582 -0.0739 -0.0680
20821W        W36438  12.637  12.000   0.369 -0.1690  0.2231  0.1593
20822W        W36439   7.885  11.498   2.884  0.1780 -0.2268 -0.0963
20823W        W36440   8.096   6.109   5.685  0.2218 -0.0390 -0.1842
20824W        W36441   6.552   1.195   5.506 -0.0087 -0.1161  0.1701
20825W        W36442  14.506  16.881  14.735  0.2814 -0.0001 -0.1784
20826W        W36443   6.499   2.938  12.842  0.1914 -0.0041 -0.3638
20827W        W36444  11.641   1.842  12.552  0.4525 -0.0849  0.0032
20828W        W36445   0.007  12.529   1.316  0.1291 -0.2300  0.1173
20829W        W36446  14.016   6.459   2.656 -0.1819  0.2024  0.0773
20830W        W36447   5.848   9.958  13.076 -0.0639 -0.1507 -0.1016
20831W        W36448  12.201  10.380   5.040 -0.1735 -0.1657 -0.0139
20832W        W36449  13.653  13.427   0.307 -0.0940 -0.0381 -0.2475
20833W        W36450   4.184   0.231  11.753  0.2455  0.1687 -0.3291
20834W        W36451   0.996   8.385  13.108  0.0780 -0.0911 -0.0123
20835W        W36452  17.072  13.654   1.109 -0.3010  0.1289 -0.1405
20836W        W36453   9.379   7.191   1.827  0.0303  0.1994  0.1311
20837W        W36454  18.212  11.890   0.178 -0.1490  0.4003 -0.0261
20838W        W36455  12.282  10.555   3.483  0.2744  0.0126 -0.3428
20839W        W36456  10.111  13.221   1.159 -0.2915  0.1569  0.2337
20840W        W36457  18.241  12.623   4.443 -0.1310 -0.2092  0.2524
20841W        W36458   0.542   6.384   3.867 -0.0781  0.0330 -0.0534
20842W        W36459  11.746  12.273   3.739 -0.1804  0.0615  0.0572
20843W        W36460  11.888   2.277   0.919 -0.2102  0.0091  0.4327
20844W        W36461  10.432   1.578   5.258  0.2006 -0.2136  0.1544
20845W        W36462   2.192   9.798   5.094 -0.0370  0.0630 -0.2817
20846W        W36463   6.063   8.173  14.949 -0.3136  0.1132  0.0440
20847W        W36464   5.791   7.938   2.881 -0.1451 -0.2514  0.2637
20848W        W36465  10.132  16.724   2.204  0.1740  0.0216 -0.1044
20849W        W36466   4.337   9.121  12.652  0.0286 -0.1352 -0.1917
20850W        W36467  16.639  15.754   1.764  0.1590 -0.1439 -0.0467
20851W        W36468   4.191  17.061  12.784 -0.2243  0.3528 -0.1194
20852W        W36469  14.403  12.783   4.169  0.2059  0.3077  0.1002
20853W        W36470   8.809  15.643   1.519 -0.0095  0.1757 -0.0159
20854W        W36471  15.719   3.394  12.369 -0.1432 -0.3225  0.0779
20855W        W36472  14.407   4.925   3.995 -0.0548 -0.2044  0.1652
20856W        W36473  13.370  10.195  14.670 -0.2651 -0.0869  0.1080
20857W        W36474  15.756  12.311   9.851  0.1334  0.0207  0.0463
20858W        W36475  10.325   0.145  14.616  0.1842 -0.0519  0.0332
20859W        W36476  12.211  13.865  12.542 -0.4830  0.1484  0.1008
20860W        W36477  17.469   0.626  11.874  0.4767  0.2931  0.1078
20861W        W36478  10.405   1.131   1.931  0.3328  0.2260  0.2341
20862W        W36479  13.699  15.488   0.314 -0.2410  0.1824  0.4400
20863W        W36480  17.960  14.356   1.810  0.2724 -0.3612 -0.1880
20864W        W36481   3.998  15.290   3.761  0.1978 -0.0350 -0.1616
20865W        W36482  17.240  10.908   3.035  0.0687 -0.0302  0.0023
20866W        W36483  18.453   0.658   0.715  0.1110 -0.2324 -0.2498
20867W        W36484   5.080  11.503  13.366 -0.1140  0.0396 -0.1206
20868W        W36485   7.143   3.768  13.772 -0.2373  0.0294 -0.4047
20869W        W36486  11.327   5.996  13.568 -0.2292  0.2124  0.0684
20870W        W36487   2.120  14.313   1.717 -0.1590  0.0767  0.2238
20871W        W36488  10.614  15.501  12.626 -0.1130 -0.1502  0.3043
20872W        W36489  11.105  16.480  12.753 -0.0426  0.1400 -0.3210
20873W        W36490  14.777   7.144  11.332 -0.1499 -0.2130  0.0876
20874W        W36491   8.938   5.246  15.806  0.0121 -0.1387 -0.3737
20875W        W36492  17.340  18.181  13.540 -0.3344 -0.1810 -0.1719
20876W        W36493  18.092  11.061   3.476  0.0701  0.1664  0.2051
20877W        W36494   7.296   5.335   1.042  0.0933  0.1354  0.0989
20878W        W36495   4.161  12.643   5.187  0.0192  0.0658 -0.2468
20879W        W36496  15.407  15.395  12.343  0.0363  0.2312  0.0701
20880W        W36497  10.789   7.026  11.919  0.4372 -0.1558  0.0956
20881W        W36498   0.537  11.416   4.844 -0.3009 -0.0582 -0.0033
20882W        W36499   0.638   2.619  13.467  0.0477 -0.1267 -0.1838
20883W        W36500  12.088   8.258   4.710 -0.0778  0.1035  0.0679
20884W        W36501  10.153  15.195   1.395 -0.1328 -0.2376 -0.2042
20885W        W36502   4.099   8.189  15.082  0.2054  0.2120  0.0748
20886W        W36503  11.307   4.328  13.396  0.0483  0.1456  0.2527
20887W        W36504  17.693   8.845  12.656  0.0927 -0.1193  0.1039
20888W        W36505  11.787   6.292  11.886 -0.1528  0.1549 -0.4940
20889W        W36506   0.876  10.538   1.952  0.1407 -0.1474 -0.1423
20890W        W36507   3.728   3.595   2.190 -0.1313  0.0605 -0.3165
20891W        W36508   5.670   3.139   5.499  0.1663  0.0069  0.2615
20892W        W36509   4.463   0.534  13.293 -0.1449  0.0689 -0.1627
20893W        W36510  15.399   9.619   4.875 -0.1411 -0.4434  0.0836
20894W        W36511  12.094   7.902   3.884 -0.1084  0.4476 -0.2109
20895W        W36512  15.259   4.402  15.545 -0.1953 -0.0675  0.1924
20896W        W36513  13.727  15.790  14.549  0.1152  0.1800 -0.1285
20897W        W36514   4.565  10.260  11.325 -0.0826 -0.0450 -0.0524
20898W        W36515  12.702  17.220   5.818 -0.3037 -0.1931 -0.0808
20899W        W36516   5.020   8.010  15.979 -0.2463 -0.1967  0.2475
20900W        W36517   2.583  14.492   5.807 -0.2178 -0.1231 -0.0274
20901W        W36518   3.632  11.302  10.994 -0.2133 -0.0150  0.2589
20902W        W36519   7.031  10.136   4.606  0.1017  0.0653  0.1514
20903W        W36520   9.325   3.013   3.522 -0.0259  0.1770 -0.1946
20904W        W36521  12.572  12.545  15.464  0.1725  0.0419  0.3248
20905W        W36522   8.493  17.401  12.795 -0.2072 -0.2726 -0.0129
20906W        W36523   6.745   5.630   1.848 -0.0879 -0.0714  0.4183
20907W        W36524   0.160  10.854  12.547  0.3422  0.0328 -0.3553
20908W        W36525  13.978  11.556   0.512  0.1163  0.1134  0.5556
20909W        W36526  12.053   4.678   2.859 -0.1762  0.0352  0.0659
20910W        W36527  13.357  17.696  11.168  0.1658 -0.0455  0.0293
20911W        W36528   7.651   1.084  15.889 -0.4575  0.1253 -0.1251
20912W        W36529   7.713  11.815   1.297 -0.1546  0.3208 -0.3000
20913W        W36530   6.714   9.884   1.141 -0.0687 -0.1635  0.2986
20914W        W36531  13.062   6.158  13.801  0.0265  0.1283 -0.3030
20915W        W36532   8.348  14.532  14.468  0.2955  0.5084 -0.0746
20916W        W36533  12.663   0.921  12.377  0.1038 -0.0421 -0.3004
20917W        W36534   0.750   9.575  12.462  0.1800  0.0833 -0.1049
20918W        W36535   5.025  14.430  13.045  0.4473 -0.1112  0.1895
20919W        W36536  16.111   5.735   2.525 -0.1508  0.0302 -0.1527
20920W        W36537  11.622  14.182  11.897 -0.0234 -0.5066  0.1420
20921W        W36538   4.822  12.850   3.709 -0.1361  0.3318 -0.2890
20922W        W36539   9.698   6.169  13.344 -0.1895  0.0678  0.1647
20923W        W36540  10.223   7.782  13.702  0.1050  0.1291 -0.0392
20924W        W36541   7.375   7.193  13.993 -0.4245 -0.0214  0.1497
20925W        W36542  10.325   5.673   3.074  0.1903  0.2036 -0.0437
20926W        W36543  14.801  13.287   1.014 -0.0284 -0.0613 -0.0659
20927W        W36544  10.498  12.336  14.692  0.0150  0.1488 -0.1995
20928W        W36545   2.244   4.795  14.316 -0.0399  0.0613 -0.2136
20929W        W36546  11.306   9.844  14.703  0.0420 -0.3110 -0.2161
20930W        W36547  17.996   8.506  15.226 -0.2395  0.3920  0.1522
20931W        W36548   4.206   9.436   0.357 -0.0258 -0.0105  0.0562
20932W        W36549   1.019   4.904  10.996 -0.2674 -0.5102  0.2700
20933W        W36550  11.907   0.932  11.257  0.5829 -0.1030 -0.4361
20934W        W36551  11.061  16.950  12.413  0.0574  0.0617 -0.0486
20935W        W36552  15.705  12.946  14.879 -0.0668  0.2214  0.0602
20936W        W36553   8.084   5.001   4.940  0.0484  0.4041 -0.1697
20937W        W36554  12.898   8.714  14.377  0.0500  0.0170 -0.0044
20938W        W36555   1.066   9.595   4.470 -0.2154 -0.4015 -0.2545
20939W        W36556   8.400   8.663  13.608 -0.0756  0.1637 -0.2166
20940W        W36557   7.797  15.639   2.594  0.2470 -0.1559 -0.0388
20941W        W36558  10.067  17.894  10.176 -0.0361  0.0011 -0.2984
20942W        W36559  11.432   7.327  11.075  0.0755  0.0437  0.1630
20943W        W36560   1.717   9.250   1.924  0.2943  0.0080 -0.0766
20944W        W36561  18.065  14.321   5.934  0.1903  0.1352 -0.1889
20945W        W36562   9.446   5.490   2.757 -0.3792 -0.2561 -0.0245
20946W        W36563   3.782   5.108  10.101  0.1461 -0.2962 -0.2027
20947W        W36564   7.368   9.967  11.395 -0.2748 -0.0042 -0.0972
20948W        W36565   8.359  10.316  15.173 -0.1600 -0.0387  0.2574
20949W        W36566  14.596   5.033   5.458 -0.0841  0.2678  0.0665
20950W        W36567  13.926  14.679   0.940  0.1341 -0.0611 -0.0907
20951W        W36568  14.145  17.441   3.533 -0.1108  0.1426  0.0176
20952W        W36569   0.289   5.956  12.720 -0.2640  0.0403 -0.0323
20953W        W36570   2.920   7.841  14.578  0.0232 -0.1015  0.0127
20954W        W36571   0.047   0.912  11.107 -0.2477 -0.2113  0.0381
20955W        W36572   8.342   2.307   0.192  0.0202 -0.0085  0.0681
20956W        W36573   7.728   6.536  13.098 -0.0037 -0.0758  0.1259
20957W        W36574   0.514   8.353   1.502  0.1577  0.1761  0.3989
20958W        W36575  12.276  15.237   2.245 -0.3213  0.1360  0.1228
20959W        W36576   8.437   1.377   3.379 -0.0554 -0.1803  0.4678
20960W        W36577  12.114   4.558   1.138 -0.0452 -0.0506  0.3213
20961W        W36578  13.389  13.804   0.675 -0.2104  0.0466 -0.2673
20962W        W36579   8.393   0.613   5.006 -0.0689  0.0020 -0.0964
20963W        W36580  13.934   2.228  11.893  0.0417 -0.3399  0.2594
20964W        W36581   1.558  16.531   5.964  0.0465 -0.0347 -0.0567
20965W        W36582  17.830   8.049  10.890 -0.3211 -0.0971 -0.2584
20966W        W36583  10.165  18.273   4.719 -0.1214 -0.6009  0.0021
20967W        W36584  10.259   6.519  15.225 -0.0541 -0.2796 -0.1262
20968W        W36585   1.444   3.301  12.183  0.0469  0.0462  0.3752
20969W        W36586   9.951  16.574   1.189 -0.3102  0.0932 -0.0241
20970W        W36587   9.671   3.304   1.923 -0.0484  0.0810 -0.1837
20971W        W36588   3.328  17.067  13.257  0.0402  0.1317 -0.1595
20972W        W36589   8.099   1.545   1.636 -0.0094 -0.0253 -0.1072
20973W        W36590   5.572  10.928  11.602  0.0747  0.1355 -0.0977
20974W        W36591  11.209  16.801   4.174  0.4220 -0.2887 -0.1898
20975W        W36592   0.986  11.455   2.120  0.0163  0.0808  0.3208
20976W        W36593  14.698   0.217  14.488 -0.1651  0.0476 -0.0632
20977W        W36594  15.396  11.689   1.669 -0.0564  0.2503 -0.1157
20978W        W36595   8.431   6.633  15.149  0.0582  0.4623  0.2392
20979W        W36596  12.087   7.208   4.419  0.2232 -0.0711  0.0208
20980W        W36597   8.500   4.151   4.602  0.1398  0.0768 -0.1570
20981W        W36598   5.647  17.024   5.830  0.1041  0.0435 -0.1051
20982W        W36599   8.005   0.072  13.055 -0.2838  0.1163 -0.0350
20983W        W36600  18.184  16.141   1.075 -0.2087  0.0020  0.4880
20984W        W36601   8.654   4.126   0.536  0.0087  0.5072  0.1659
20985W        W36602   2.370   0.535  13.991 -0.0021 -0.0155  0.2889
20986W        W36603  15.122   1.382  14.156 -0.1880 -0.0265  0.2216
20987W        W36604   6.885   7.284  13.940  0.0071  0.2374 -0.1910
20988W        W36605  11.858   6.242  12.908 -0.4500 -0.2740  0.1216
20989W        W36606  10.712   1.338  12.747 -0.0357  0.0198 -0.0451
20990W        W36607   2.921   8.677   3.156  0.1762  0.0675 -0.1740
20991W        W36608   7.653   2.268  11.416  0.0477  0.0683 -0.1311
20992W        W36609   5.246   1.334   2.794  0.1671 -0.1326  0.0241
20993W        W36610   7.310  13.950   2.917 -0.0796 -0.3275 -0.0897
20994W        W36611  11.860   7.566  11.198 -0.2441 -0.1731  0.0124
20995W        W36612  11.774   7.579  13.555  0.2306  0.0803  0.0437
20996W        W36613   6.258   2.709  11.828  0.1044 -0.1130  0.1124
20997W        W36614  11.449   3.696   5.152 -0.0916 -0.3376 -0.2736
20998W        W36615   4.862  10.527  14.084  0.1851 -0.1479 -0.0692
20999W        W36616  13.037   9.677  11.435 -0.3638  0.3071 -0.1663
21000W        W36617  13.134   7.285  11.679  0.0768  0.0290  0.1656
21001W        W36618  11.378  13.295  12.748 -0.1295  0.1248 -0.2552
21002W        W36619  17.983   3.186  11.421 -0.0123  0.1226 -0.0839
21003W        W36620   7.691   8.296  14.174  0.1942 -0.2387  0.2144
21004W        W36621  10.768   4.688   2.671  0.0416  0.2562  0.3360
21005W        W36622   0.671   1.854   1.127 -0.3439 -0.1966  0.0595
21006W        W36623  17.016  17.081  11.374 -0.2020  0.3811  0.2767
21007W        W36624  17.508   2.288   0.555 -0.0217  0.1441 -0.2687
21008W        W36625   7.439   2.968   0.018 -0.4919  0.1854  0.1555
21009W        W36626  11.746   1.474   1.524 -0.2155 -0.1538  0.0728
21010W        W36627  16.007   3.055   2.469  0.0231  0.2232 -0.1802
21011W        W36628  17.157   0.934   1.856  0.1633  0.0306 -0.1645
21012W        W36629   1.598   9.536  15.695  0.1101  0.0374  0.2836
21013W        W36630   9.165  15.467   3.227  0.3730  0.1640 -0.0154
21014W        W36631  17.802   6.254  14.468 -0.1441 -0.1585 -0.0305
21015W        W36632  17.142   0.656  14.013  0.0497  0.0326  0.3034
21016W        W36633   2.175   7.273   2.616 -0.0891 -0.2393 -0.2367
21017W        W36634   3.013   6.804  15.704 -0.2083  0.0851 -0.2577
21018W        W36635  10.819  14.062   2.432 -0.2009 -0.2614 -0.3156
21019W        W36636  10.933  13.062   2.113 -0.1317  0.0974 -0.1678
21020W        W36637   1.459   8.963  12.179  0.1273  0.2457  0.1580
21021W        W36638  15.926  14.730   3.767 -0.0785 -0.3943  0.2140
21022W        W36639   7.431   2.418   2.356 -0.0661 -0.0561  0.2432
21023W        W36640  15.389  16.092  14.023 -0.2684  0.4059 -0.0588
21024W        W36641  10.947   9.258   1.811  0.0765 -0.0813 -0.1198
21025W        W36642   5.953   2.660  12.226  0.1369  0.0689 -0.0349
21026W        W36643  17.008   4.879  11.187 -0.0840  0.2393  0.1513
21027W        W36644  10.537   3.762   4.884 -0.2722  0.2467 -0.0082
21028W        W36645   8.283  16.972   2.587  0.1723 -0.0295  0.0891
21029W        W36646   9.571   5.844  14.959 -0.0502  0.3271  0.2427
21030W        W36647  16.758   0.088  15.184 -0.1842  0.1874  0.1505
21031W        W36648  11.804   9.000   0.413 -0.0633 -0.0879  0.1482
21032W        W36649   4.013   8.891   1.838 -0.0011 -0.0862 -0.1604
21033W        W36650  17.086  13.571   4.166 -0.1256 -0.2398  0.0369
21034W        W36651  10.752  17.525   3.851 -0.0699 -0.1950 -0.1165
21035W        W36652   1.448   8.740   5.521  0.2014 -0.2858  0.0259
21036W        W36653  17.931   9.869   2.881  0.0725 -0.1298 -0.0186
21037W        W36654  13.415   7.661   1.231  0.3872 -0.3900 -0.1720
21038W        W36655   6.843  12.199  15.592 -0.0192  0.0008 -0.1618
21039W        W36656   2.777   2.836   2.070  0.2139 -0.0119  0.1539
21040W        W36657   3.917  15.176   5.193 -0.0058  0.0765 -0.1140
21041W        W36658   5.730  15.128   3.912 -0.1118  0.2027  0.1344
21042W        W36659  16.404   5.803   3.472 -0.4372 -0.2184 -0.1003
21043W        W36660   4.696  13.235  11.796 -0.4259 -0.1812  0.0041
21044W        W36661  16.762   8.477  14.866  0.0872  0.1227  0.0429
21045W        W36662   7.433   0.152  12.925  0.0990 -0.2928 -0.1631
21046W        W36663   8.003   9.355  10.781 -0.2879  0.1072 -0.1830
21047W        W36664  13.354   3.420  13.432 -0.1327 -0.0729 -0.1547
21048W        W36665  10.083  18.410   0.317 -0.0237 -0.0541 -0.0235
21049W        W36666   0.048   2.025   2.854  0.2282 -0.0852  0.4562
21050W        W36667   5.556   5.135   0.813  0.3754  0.0993 -0.3178
21051W        W36668   5.462   4.945  11.517 -0.1118  0.2277 -0.1910
21052W        W36669   1.451  12.183  10.960  0.1817  0.2518  0.0755
21053W        W36670   8.829   7.742   3.300  0.0480  0.2164 -0.0478
21054W        W36671  11.415   1.966   3.706  0.0535  0.1025 -0.0710
21055W        W36672  11.957   0.295   4.745  0.0307  0.1464  0.0430
21056W        W36673   1.068   2.791  13.820 -0.1317 -0.1770  0.1417
21057W        W36674  17.329   7.614   1.135 -0.1550 -0.1123  0.0616
21058W        W36675   4.755   8.994   1.353  0.2272  0.0267 -0.0659
21059W        W36676  14.199   9.269   4.345  0.1712 -0.0365 -0.4140
21060W        W36677  18.429   1.888  15.204  0.1798 -0.0174 -0.3424
21061W        W36678   5.576  17.510  12.728  0.2224  0.1306  0.1248
21062W        W36679  12.364  14.365   5.909 -0.0953 -0.0216 -0.0418
21063W        W36680   5.817   6.325   3.919 -0.2954 -0.1768  0.1331
21064W        W36681  12.798   5.289  12.066  0.0016 -0.0639  0.1720
21065W        W36682  11.388   6.263   1.360 -0.0585 -0.1427 -0.1443
21066W        W36683   0.629   6.200  15.346 -0.0106  0.0558  0.1198
21067W        W36684   1.779  12.203  13.278  0.1807 -0.0161  0.0866
21068W        W36685   9.417  12.080  15.596  0.1200  0.3232 -0.1551
21069W        W36686   6.548  14.042  13.358 -0.3215 -0.0887 -0.0076
21070W        W36687  15.173   5.201   1.407  0.0053 -0.2103  0.3315
21071W        W36688  16.078   4.438  14.861 -0.1482 -0.1622 -0.0109
21072W        W36689   0.901   3.753   3.898 -0.0023 -0.2731  0.0731
21073W        W36690   1.519  11.013   0.424 -0.0431  0.1398  0.1405
21074W        W36691   5.136  16.146  13.809 -0.1758  0.1443  0.4377
21075W        W36692   6.743   2.471  14.692  0.1520 -0.0552  0.1335
21076W        W36693   5.028   2.030   1.365 -0.1223 -0.1058 -0.3043
21077W        W36694   0.206   5.388  13.850  0.0829  0.2284 -0.3655
21078W        W36695  13.106   4.355  11.406 -0.1244 -0.1182 -0.1662
21079W        W36696   4.746  13.699   4.078  0.0060 -0.1909 -0.3283
21080W        W36697  18.097   5.260   4.502  0.0003 -0.1267  0.1294
21081W        W36698   0.468   5.926   2.069  0.0294  0.2866  0.1740
21082W        W36699   1.565   0.048  13.734 -0.0370 -0.2757  0.1756
21083W        W36700  14.743   3.424  12.448 -0.0860  0.0562  0.1724
21084W        W36701  11.586  13.395  15.286  0.3248 -0.1609 -0.0084
21085W        W36702   1.618  11.503   0.925 -0.4505  0.1365  0.1108
21086W        W36703  13.866   7.776   2.075  0.1252  0.1612  0.2264
21087W        W36704  11.656   1.208  11.733  0.2142  0.0783 -0.0545
21088W        W36705   2.283  17.856  12.520 -0.2552 -0.1314 -0.0254
21089W        W36706  17.859   9.674   1.014  0.4175 -0.0020  0.2717
21090W        W36707  10.576  16.511  10.962  0.1842  0.3599  0.0294
21091W        W36708   2.590  12.145   3.994  0.1110 -0.1549 -0.0946
21092W        W36709   6.644   0.704  14.363  0.2905  0.1384 -0.1320
21093W        W36710  13.392   1.906  13.167 -0.1882 -0.2604  0.5273
21094W        W36711   1.015  17.672   2.050  0.0962 -0.0595 -0.1487
21095W        W36712   4.112   7.535  15.213 -0.1663  0.0875  0.1680
21096W        W36713  10.781   3.961   0.765 -0.0877 -0.0715 -0.0377
21097W        W36714   2.401  11.261   1.710 -0.2841  0.1856 -0.3376
21098W        W36715   3.015   0.379   2.926 -0.0007  0.3880  0.0407
21099W        W36716   3.762  15.590  15.861  0.0519 -0.1292  0.0417
21100W        W36717  16.904   9.141  15.401 -0.0935 -0.0396 -0.0862
21101W        W36718   3.160  12.801  15.225  0.1183 -0.0021  0.0174
21102W        W36719  10.270  17.601   5.952 -0.1579  0.3061 -0.1204
21103W        W36720   8.686   1.729  13.499  0.1098 -0.0379  0.3215
21104W        W36721   0.315   7.232  14.226  0.2099  0.1185 -0.2064
21105W        W36722   3.301  16.584   5.731 -0.1691  0.2540 -0.2661
21106W        W36723   9.578   8.423  12.285 -0.0389  0.0030 -0.0261
21107W        W36724   5.353   8.103  14.450 -0.0258 -0.4008  0.1990
21108W        W36725  12.897  13.094   6.327 -0.0221  0.0437 -0.0918
21109W        W36726   5.230  13.612  13.726  0.1816 -0.1716 -0.2801
21110W        W36727  12.041   5.767   0.941 -0.0984 -0.0901  0.2251
21111W        W36728   1.009  17.225  13.958  0.1099 -0.2189  0.0436
21112W        W36729  12.889   0.227   3.197  0.1492  0.4720 -0.0697
21113W        W36730  12.790   2.120   0.591 -0.0422 -0.0980  0.2541
21114W        W36731   8.003   0.983  12.847 -0.1029 -0.2731  0.0612
21115W        W36732  16.895  17.283  13.148  0.0158  0.1346 -0.0315
21116W        W36733   1.825  15.574   1.758 -0.1247 -0.0540 -0.0436
21117W        W36734  17.075   8.042   3.948  0.2353 -0.1475  0.1682
21118W        W36735   2.933   8.638   0.238  0.1617 -0.1234  0.0181
21119W        W36736   1.034   2.933   4.625  0.2826  0.0359 -0.1172
21120W        W36737   9.582   3.750  10.746  0.1560  0.0023  0.3641
21121W        W36738   6.318  11.360   4.965 -0.1407 -0.0978  0.2463
21122W        W36739  14.641   4.150   3.825  0.1327  0.0116  0.0188
21123W        W36740   1.229  14.348  15.760 -0.0660  0.0432  0.3604
21124W        W36741  14.695   1.904  11.353  0.0465  0.2110  0.2807
21125W        W36742   9.185   7.757  10.476  0.2220  0.0970 -0.0202
21126W        W36743  11.440  14.277   0.263 -0.2945 -0.0562 -0.1706
21127W        W36744  14.830  15.688  12.868 -0.3764  0.2202 -0.1121
21128W        W36745  12.657   5.100   3.254 -0.2312  0.0286  0.1724
21129W        W36746   5.921  10.119   0.200 -0.1348 -0.2464 -0.2035
21130W        W36747  14.335   1.762  14.310  0.0280  0.0410  0.0060
21131W        W36748   5.219  15.434   5.752 -0.2033  0.1590 -0.1543
21132W        W36749   8.045  10.535   0.233 -0.0455  0.1678 -0.4776
21133W        W36750  15.260  11.080  12.109 -0.0160  0.0100  0.5656
21134W        W36751   9.614  10.027  15.094 -0.3637 -0.0677 -0.0015
21135W        W36752   7.867  17.172   2.321 -0.6598 -0.2744 -0.2982
21136W        W36753  14.183  12.349  14.752 -0.2383 -0.0580  0.2079
21137W        W36754  15.706  14.602  13.877 -0.1825  0.2042  0.2011
21138W        W36755   2.726  14.005   5.778  0.2687  0.2399 -0.1077
21139W        W36756   3.444  13.337   4.956 -0.1762  0.2558  0.1508
21140W        W36757  16.875   1.415  12.883 -0.2928  0.1085 -0.0992
21141W        W36758   7.298  15.015   5.135 -0.0646 -0.2542 -0.0697
21142W        W36759   1.517   2.118  12.775 -0.0513  0.1609  0.0238
21143W        W36760  13.284   5.151  12.076  0.2583  0.4031  0.0098
21144W        W36761  10.611   3.049  12.713 -0.0662  0.0296 -0.2057
21145W        W36762   5.136   3.950  10.473 -0.2605  0.0873 -0.0381
21146W        W36763   4.338   7.690   2.646 -0.2587 -0.1234 -0.1222
21147W        W36764  13.000  15.510  15.240 -0.1723 -0.0746  0.2203
21148W        W36765  10.755  11.482  11.343 -0.2876  0.0284  0.1002
21149W        W36766  10.032  17.163   1.912 -0.2767 -0.3110 -0.0963
21150W        W36767   7.066  15.211   1.770 -0.0401  0.4603 -0.3882
21151W        W36768   1.448  12.943  12.942 -0.1101 -0.1261  0.2363
21152W        W36769   2.202   2.050   0.975  0.4180  0.1530 -0.1844
21153W        W36770   8.151   3.584   4.646  0.0706 -0.0786 -0.1180
21154W        W36771  17.601  17.166   1.048 -0.1050 -0.2192  0.0645
21155W        W36772  16.221  12.042  11.646 -0.1443  0.0582 -0.2641
21156W        W36773  15.924   8.688   4.470  0.0885 -0.2972 -0.4532
21157W        W36774  10.143  10.974  14.952 -0.1426 -0.1936 -0.0963
21158W        W36775   7.188  17.029   3.131  0.2496 -0.1518  0.3258
21159W        W36776  13.699  11.983   5.165 -0.1409 -0.1613  0.1485
21160W        W36777  13.326  17.933  15.903 -0.1884 -0.1064  0.0968
21161W        W36778   8.498  11.121   4.038 -0.0202 -0.0897  0.0097
21162W        W36779  18.133  13.638   5.267 -0.0106 -0.3320  0.1404
21163W        W36780  11.688  18.083   1.111  0.0733  0.0927 -0.1006
21164W        W36781  15.911  14.468   0.628 -0.0424 -0.1686  0.2193
21165W        W36782   1.799  16.018   4.432 -0.2645 -0.3937  0.0104
21166W        W36783  17.931   7.911   0.432 -0.0659 -0.2714  0.3705
21167W        W36784  16.421   1.965  14.755 -0.0803  0.1160  0.1855
21168W        W36785  10.214   1.906  12.109  0.0247 -0.0719 -0.0964
21169W        W36786   3.399   1.289  15.223  0.1671 -0.1105  0.1452
21170W        W36787   8.656  16.605   2.720  0.1186 -0.0842  0.1042
21171W        W36788  16.948   7.006  11.107  0.1388  0.5042  0.1091
21172W        W36789  10.731   8.442   2.360 -0.0106 -0.0263 -0.3380
21173W        W36790   9.154   5.298  10.416  0.0449  0.4695 -0.1010
21174W        W36791  13.409   7.097   4.010 -0.0267 -0.0880  0.1918
21175W        W36792   7.264  11.409  15.095 -0.3668 -0.0224  0.0326
21176W        W36793   8.875   6.810   4.243 -0.2386  0.1593 -0.1028
21177W        W36794  12.188   2.232   5.057  0.2250  0.2782 -0.0346
21178W        W36795   5.344  12.211   3.077  0.0420  0.0638  0.0949
21179W        W36796   0.307  12.681   0.034  0.0241  0.1002  0.2902
21180W        W36797  17.531   0.563   1.621  0.1557 -0.0163 -0.1155
21181W        W36798  13.486   4.803   0.246  0.1038 -0.5527  0.0651
21182W        W36799  18.175  13.102  14.080  0.2337 -0.0628 -0.1202
21183W        W36800   2.479   3.326   2.556 -0.3206  0.0812 -0.0348
21184W        W36801  17.403  13.791   4.506  0.2662 -0.1414  0.0362
21185W        W36802  13.326   8.637  16.003 -0.4362 -0.2905 -0.0624
21186W        W36803   3.476  16.508   1.239 -0.1649 -0.1668 -0.3751
21187W        W36804   8.480  16.955  14.196 -0.0820 -0.2449  0.2061
21188W        W36805   7.531  16.360   5.787 -0.1550 -0.1281  0.0917
21189W        W36806  15.465  15.436   4.318  0.2355 -0.0425  0.0750
21190W        W36807  14.155   1.543   0.183  0.1005 -0.0418 -0.3371
21191W        W36808   9.368  10.572   4.535  0.0998 -0.1932 -0.3387
21192W        W36809   7.695   4.209  12.363  0.0808  0.1132  0.3495
21193W        W36810  17.859   5.786  13.778 -0.2161  0.0449 -0.4114
21194W        W36811   3.208   0.789  15.243  0.2007  0.1820 -0.0761
21195W        W36812   2.166  14.708   0.976 -0.1115 -0.0290 -0.1824
21196W        W36813  13.101  11.911  15.470 -0.0433 -0.0574  0.5091
21197W        W36814   1.399  11.705  15.833  0.1068 -0.0993  0.3093
21198W        W36815  14.998   7.760  12.001  0.0945 -0.2632  0.2864
21199W        W36816  16.366   4.533   4.741  0.0751 -0.0021 -0.0723
21200W        W36817   7.002   9.916  12.709 -0.0645  0.0649  0.0039
21201W        W36818   4.665  14.270  13.420 -0.1939 -0.0845  0.1012
21202W        W36819   2.660  11.193   4.850  0.0811 -0.0858 -0.2922
21203W        W36820   9.274   1.892  14.495  0.0332 -0.1085 -0.1199
21204W        W36821  10.000  17.488  14.106 -0.2792  0.4868 -0.1910
21205W        W36822   8.053   4.389   2.944 -0.0418 -0.3158  0.1516
21206W        W36823   2.095   7.486   2.145 -0.2256 -0.2175 -0.0514
21207W        W36824  11.667  16.097   6.023 -0.1460 -0.0753  0.1843
21208W        W36825  11.873   5.252   9.758 -0.1850  0.1485 -0.0878
21209W        W36826  10.876  13.048  14.227  0.0454  0.2014  0.2279
21210W        W36827   3.347   4.006   1.471 -0.1753  0.3292 -0.2141
21211W        W36828  14.562   0.416  15.023 -0.1212 -0.0581  0.1657
21212W        W36829  15.748   9.233   4.008  0.0718 -0.0358 -0.1715
21213W        W36830  16.854   0.591  15.598  0.1935  0.4890 -0.0605
21214W        W36831  13.053  14.715   5.248  0.1474  0.1332 -0.0420
21215W        W36832   5.048   5.458   4.088 -0.0861  0.0335 -0.1165
21216W        W36833  11.578   8.788  12.211 -0.3635  0.1049 -0.0313
21217W        W36834  16.320   1.174  11.559  0.2006  0.0498 -0.2307
21218W        W36835   1.411  17.975  12.090 -0.2127  0.1131  0.0330
21219W        W36836   7.863  17.696   5.188  0.0900 -0.0511  0.1866
21220W        W36837  11.510   3.840  15.351  0.2009 -0.0761  0.1950
21221W        W36838  13.291   4.777  10.658 -0.0645 -0.1517 -0.1192
21222W        W36839  15.165   1.520  13.593  0.1610  0.0897  0.3344
21223W        W36840   3.199  18.217  11.461 -0.4204  0.4653  0.2224
21224W        W36841  15.000   4.644  15.252  0.1726 -0.0497  0.2413
21225W        W36842   9.109  12.497   0.882  0.1210  0.1112  0.0336
21226W        W36843  12.751   3.012   2.463  0.0443  0.2199 -0.2571
21227W        W36844   3.927   8.135  10.697  0.0789  0.1829 -0.0489
21228W        W36845  17.617  11.839  14.308  0.3434 -0.0377 -0.1210
21229W        W36846  16.547  14.039   1.520 -0.0762 -0.0338  0.3117
21230W        W36847   1.429  11.753  10.716  0.1160 -0.0987 -0.2190
21231W        W36848   8.341   8.467  10.735 -0.3066 -0.0168  0.1034
21232W        W36849   6.475  15.206  12.461 -0.2982  0.1402 -0.2366
21233W        W36850  17.663  11.223  12.745  0.0139  0.2208 -0.2504
21234W        W36851   5.538   9.555  12.187  0.1422  0.1208 -0.0754
21235W        W36852  13.775  11.027   1.915  0.0616  0.0293 -0.0246
21236W        W36853   2.610   3.622  15.662 -0.1765 -0.0579  0.0774
21237W        W36854   9.967  13.702   5.187  0.3248 -0.2097 -0.1624
21238W        W36855   2.553   2.840   3.899 -0.1456 -0.1955 -0.2904
21239W        W36856  10.516  14.440   2.548 -0.0378 -0.1809  0.1860
21240W        W36857  14.957   3.786   3.741  0.2327 -0.1411  0.0133
21241W        W36858  17.549   0.229  14.686  0.2395 -0.0853 -0.0894
21242W        W36859  18.293  10.084  12.787  0.2164  0.0476 -0.2629
21243W        W36860  12.513   4.934   1.478  0.3049  0.0355 -0.0762
21244W        W36861   7.259  10.032   5.318  0.2662 -0.1312  0.0830
21245W        W36862  14.473   9.557  14.805 -0.1010  0.2284 -0.1791
21246W        W36863  12.084  14.283  14.398 -0.0778  0.2687  0.1245
21247W        W36864   7.598   9.368  14.952 -0.0111 -0.3723  0.1515
21248W        W36865   4.437   3.059   0.185 -0.1268  0.1670 -0.0925
21249W        W36866  13.736   5.182   0.496 -0.3115 -0.1468 -0.1033
21250W        W36867   2.261  16.629  11.694 -0.1159  0.1840 -0.0046
21251W        W36868   2.655  10.089   0.079 -0.3007  0.1145 -0.1362
21252W        W36869   7.936   6.829  15.019 -0.0849  0.0220 -0.0617
21253W        W36870   3.923   9.719  11.277 -0.2044  0.2778 -0.0045
21254W        W36871   6.897  11.682   2.441 -0.0487 -0.0908  0.1830
21255W        W36872   5.168   0.781   3.576  0.0095  0.2295 -0.0182
21256W        W36873  13.508  16.885  15.128  0.1415 -0.5651  0.2588
21257W        W36874  10.551  12.102  15.718  0.1399  0.1141 -0.1365
21258W        W36875  14.843   6.010   3.072 -0.2230 -0.2463  0.1405
21259W        W36876  18.458   6.556  16.021 -0.0925 -0.1008  0.0738
21260W        W36877  17.061  11.779  12.005 -0.0404  0.1694  0.2054
21261W        W36878  16.717  14.524   5.350  0.2157 -0.2045  0.0296
21262W        W36879  12.950   3.980  12.625  0.1075 -0.0965  0.4168
21263W        W36880   8.805   0.052  14.967 -0.0358 -0.2611  0.0996
21264W        W36881  13.420   4.658   3.430  0.1669 -0.2088  0.1056
21265W        W36882   5.828   1.664   1.648  0.1747 -0.1063 -0.0762
21266W        W36883   3.422   3.408  12.614 -0.1378 -0.1227 -0.2503
21267W        W36884   9.839   3.871  11.771  0.1019 -0.1194  0.1129
21268W        W36885  15.761   0.999   3.208 -0.0015  0.0686  0.0647
21269W        W36886  17.979   9.053  15.294  0.0796  0.2305 -0.2604
21270W        W36887   1.420   5.007  12.812 -0.2965  0.0366  0.1819
21271W        W36888  14.044  14.039  10.951  0.0160 -0.1133  0.0248
21272W        W36889   8.781   6.376   1.722  0.0709  0.3331  0.1023
21273W        W36890  16.011   6.260   4.738  0.0155 -0.0844  0.6007
21274W        W36891   7.386  10.378  13.503  0.1080 -0.0064  0.0504
21275W        W36892  14.822   5.826   4.343  0.1572  0.0178  0.0189
21276W        W36893  14.750   9.502   1.102 -0.0994 -0.0989 -0.0822
21277W        W36894   6.697  14.312   4.914  0.0441 -0.1971  0.1709
21278W        W36895   4.654   1.101  11.096 -0.1535 -0.2447 -0.1283
21279W        W36896   5.543   1.062  15.667  0.0781  0.3464 -0.1787
21280W        W36897  13.647  17.177   5.251 -0.0748  0.1294 -0.2232
21281W        W36898   4.739   9.735  11.042 -0.0530 -0.0547 -0.0985
21282W        W36899   6.847  11.363   1.450 -0.2173  0.0444 -0.0427
21283W        W36900  14.817  11.109   3.275  0.2711  0.1621  0.1023
21284W        W36901  17.391  13.382   5.363  0.0149  0.3205 -0.2666
21285W        W36902   8.299  15.236  14.380  0.2021 -0.0078 -0.0264
21286W        W36903   7.758   0.335  15.390  0.1736  0.1531  0.0195
21287W        W36904   9.339  13.883   0.988  0.0391  0.0234 -0.0199
21288W        W36905   4.618   6.933  11.470 -0.0637 -0.0266  0.1971
21289W        W36906   9.740  17.545  13.072 -0.2669 -0.0040 -0.0965
21290W        W36907   2.274   9.091   3.797  0.1234  0.1907 -0.1736
21291W        W36908  10.777  14.374  13.919 -0.2805 -0.0813 -0.1639
21292W        W36909  15.926   4.986   3.095 -0.3072  0.1411  0.0038
21293W        W36910   4.239   4.166  15.842  0.0566 -0.0685 -0.1721
21294W        W36911  13.490   7.755  15.985 -0.1330  0.1058 -0.3024
21295W        W36912  13.593   7.736  15.482 -0.1716  0.3038 -0.0802
21296W        W36913   2.531  16.562   2.722 -0.0615  0.3455 -0.2297
21297W        W36914   4.624  14.580  12.095 -0.0857 -0.0817  0.1462
21298W        W36915  11.691  13.280   1.270  0.0043  0.0005 -0.2405
21299W        W36916   1.784   0.890   4.814  0.1609  0.2842  0.5792
21300W        W36917  10.565   4.300   3.574  0.1966 -0.1280 -0.4048
21301W        W36918  15.077  12.375  12.556 -0.0432  0.2072 -0.1010
21302W        W36919  10.625   5.987   4.278  0.2369  0.0884 -0.1935
21303W        W36920   9.582  18.057   0.883  0.2741  0.2323  0.0043
21304W        W36921  17.995   5.444   0.028 -0.1848 -0.1531 -0.0092
21305W        W36922  15.019   6.254  12.363 -0.2069 -0.0378 -0.4059
21306W        W36923   3.341   2.980   4.346 -0.1765 -0.0594  0.0057
21307W        W36924  12.677   9.090   0.107  0.0726 -0.2545  0.0496
21308W        W36925   1.738  15.994   3.491 -0.1752 -0.0882  0.1800
21309W        W36926  11.579   5.648  15.412 -0.1303 -0.2546 -0.0196
21310W        W36927  10.825   4.054   4.559  0.1085  0.3635 -0.0920
21311W        W36928  12.900  10.013  16.051  0.0026 -0.0960  0.0530
21312W        W36929  14.599   6.721  13.635  0.1227  0.1474  0.1083
21313W        W36930  16.858  14.288  14.468 -0.2185 -0.0820 -0.1195
21314W        W36931   4.794  13.569  13.965  0.2801  0.3099 -0.0914
21315W        W36932  17.611  13.568  14.190  0.0313 -0.0535  0.0692
21316W        W36933  17.064  15.042   0.112 -0.1897  0.0656 -0.5393
21317W        W36934   3.196   1.101   3.780  0.1122  0.1039 -0.4608
21318W        W36935   7.812  11.532   5.075 -0.0040 -0.0230 -0.0512
21319W        W36936   1.483   4.672  12.273 -0.3346  0.2087 -0.1317
21320W        W36937   4.450   3.520   0.785 -0.0934 -0.3119  0.1501
21321W        W36938   6.914  17.442  12.704 -0.0613  0.3957 -0.2674
21322W        W36939   8.224  14.684   4.621  0.1699  0.3680  0.2047
21323W        W36940   9.183   8.772   2.271  0.1453 -0.0834 -0.0463
21324W        W36941  14.400   0.762   4.075 -0.1590  0.0687 -0.3797
21325W        W36942  16.100   6.882   2.025  0.0005 -0.0371 -0.2728
21326W        W36943   7.314   8.376   5.811  0.0716 -0.2085 -0.1323
21327W        W36944   3.181   9.477   5.897  0.1186  0.0297 -0.0257
21328W        W36945   8.854   9.202   5.219 -0.3256  0.1331 -0.2227
21329W        W36946   8.919   6.952   2.037 -0.1612 -0.1203  0.0083
21330W        W36947   8.034  12.672   0.513  0.2730 -0.1547 -0.0148
21331W        W36948   0.623   2.380  14.680 -0.2671 -0.2068  0.0964
21332W        W36949   0.077  11.417  13.398 -0.1283 -0.0211  0.1150
21333W        W36950   2.209  17.606  15.417  0.2053 -0.2187  0.0686
21334W        W36951  13.659   6.335   1.578  0.0570  0.0111  0.4589
21335W        W36952   8.852   6.358  12.524 -0.5000 -0.0204  0.2044
21336W        W36953   7.724  13.050  13.525  0.2426  0.1003  0.0590
21337W        W36954   6.468  14.762  12.713  0.0737 -0.0244  0.0998
21338W        W36955   8.514  10.413  12.911  0.0148  0.1363  0.1889
21339W        W36956  18.361   0.073  11.990 -0.0637  0.0748 -0.0954
21340W        W36957   2.188   0.917  12.209  0.1674 -0.2286 -0.2298
21341W        W36958  10.747   4.249  13.428  0.2003  0.0980 -0.3155
21342W        W36959  13.824   8.165  11.402 -0.4440 -0.2819  0.2023
21343W        W36960   2.222   0.306  12.279  0.0264 -0.3135  0.1845
21344W        W36961   3.987  16.023  16.050  0.1025 -0.1903 -0.0841
21345W        W36962   6.668  16.243   3.031  0.0267  0.3686 -0.2274
21346W        W36963   0.717  17.729  16.040 -0.1263  0.3419 -0.0355
21347W        W36964   3.229  13.107   5.927 -0.2175  0.0780  0.0306
21348W        W36965  10.097   7.043  13.004  0.0041 -0.1471  0.1622
21349W        W36966  16.209   9.331  14.017  0.3934  0.2474 -0.2067
21350W        W36967  16.512   5.472   2.697 -0.0774  0.3710 -0.0508
21351W        W36968  15.657   7.913   0.188 -0.0439  0.0270 -0.0478
21352W        W36969   5.586   2.982  12.030 -0.0681 -0.0413  0.0934
21353W        W36970   2.426  14.308   0.300 -0.0981  0.0167 -0.0578
21354W        W36971   3.719  11.507  15.857 -0.4792 -0.3305  0.0960
21355W        W36972   6.163   2.429   4.966 -0.0534 -0.1946 -0.0997
21356W        W36973  13.231  14.294  13.775 -0.3375  0.4135  0.3066
21357W        W36974   5.196  17.269   0.545  0.0053  0.0328  0.0892
21358W        W36975   5.917   2.394   3.645 -0.0749 -0.4861  0.1136
21359W        W36976  15.713   8.120   1.567  0.2872 -0.4577 -0.0579
21360W        W36977   5.799   4.317  14.261 -0.1801 -0.2784 -0.0834
21361W        W36978   2.711   8.263  14.969  0.2501 -0.2186  0.1141
21362W        W36979   7.742  11.823  15.634  0.0099  0.2997 -0.3439
21363W        W36980  14.854  10.414  12.259 -0.0250  0.1461 -0.1085
21364W        W36981  13.759   9.542  12.051  0.1358  0.0342 -0.0874
21365W        W36982   5.929   9.034   2.124  0.4097 -0.1641 -0.0702
21366W        W36983  12.331   1.079  11.384 -0.0679  0.0958 -0.0439
21367W        W36984   8.977  14.077  14.138  0.1198  0.4948  0.0698
21368W        W36985  13.476  16.834   1.410 -0.0982 -0.1982 -0.3902
21369W        W36986   7.493  13.061  12.405 -0.0225 -0.1408 -0.3852
21370W        W36987   2.203  18.320  12.653 -0.0813 -0.0093 -0.3607
21371W        W36988   4.274   0.993   2.048  0.2474 -0.1789 -0.1051
21372W        W36989  10.949  13.619   0.640 -0.2541 -0.0328  0.3150
21373W        W36990   8.471  14.451   5.068 -0.2847  0.0054  0.2894
21374W        W36991   8.341   8.665  10.228  0.0948 -0.1109  0.3899
21375W        W36992  11.077  14.748  12.743 -0.0206 -0.0849 -0.2034
21376W        W36993  16.651   8.726  11.607 -0.1087  0.0074 -0.2028
21377W        W36994   3.340   5.086   2.492 -0.2344  0.0813 -0.0931
21378W        W36995   1.279  16.946   2.824 -0.2267 -0.0585 -0.0603
21379W        W36996   2.292   0.771  12.679  0.0398  0.1552 -0.0398
21380W        W36997   0.925   2.033  13.361 -0.0459  0.1251 -0.1950
21381W        W36998  11.909   9.262   2.037  0.0829 -0.1944 -0.2976
21382W        W36999  13.789  10.159  12.469  0.1138  0.0352 -0.1865
21383W        W37000   9.776  18.006   0.408  0.0427  0.2652 -0.0821
21384W        W37001  14.431   2.743  14.840 -0.2335 -0.1457  0.1414
21385W        W37002  10.173   0.998  14.232  0.0965 -0.2176 -0.2264
21386W        W37003  10.315  12.329   4.386 -0.1260  0.0072 -0.1198
21387W        W37004  15.049  13.420  12.270  0.1416 -0.1038 -0.1026
21388W        W37005   7.553   6.740   4.437  0.2429  0.0318 -0.0943
21389W        W37006   3.421  14.045   1.484  0.0074  0.0214  0.0123
21390W        W37007   0.026   9.674   0.283 -0.3302 -0.4584 -0.4185
21391W        W37008  15.852   8.737  12.149 -0.0780 -0.0590  0.0897
21392W        W37009  15.670   3.356   2.223 -0.2438  0.0554 -0.1076
21393W        W37010   9.255   0.920  12.003  0.2220 -0.4168 -0.2380
21394W        W37011   4.123  14.636   1.666 -0.1110 -0.0709  0.1774
21395W        W37012  12.577   2.419  13.365 -0.1273  0.0321  0.0117
21396W        W37013   7.788   0.478   5.193 -0.0859 -0.3885  0.1972
21397W        W37014  12.776   9.334   4.338  0.1410  0.1430 -0.1749
21398W        W37015  16.170   9.792  14.175 -0.3403  0.0873  0.0150
21399W        W37016   2.064  10.207   3.723 -0.2108  0.1583  0.0053
21400W        W37017   3.943  14.161   4.356 -0.4511 -0.2191  0.2054
21401W        W37018   1.291   5.323   0.932 -0.1741  0.0670 -0.0035
21402W        W37019   6.469   3.846  14.599  0.1015 -0.1035  0.1478
21403W        W37020   4.559  12.422   4.023  0.2666  0.2912 -0.1117
21404W        W37021  12.655  15.894  15.446 -0.2496  0.1311  0.0244
21405W        W37022  10.731  11.242  15.816 -0.2342  0.2623 -0.0020
21406W        W37023  15.495   3.527  10.447 -0.1459  0.2876  0.1340
21407W        W37024  12.922   8.848  11.471 -0.1034  0.1121 -0.0089
21408W        W37025   7.197  11.587   5.172  0.3820 -0.1278  0.0721
21409W        W37026  14.476   3.113  16.002 -0.2844  0.0690  0.4115
21410W        W37027   5.520  13.859  12.108 -0.0138 -0.1004  0.1624
21411W        W37028  13.583   6.098   3.884  0.2436 -0.0789 -0.2661
21412W        W37029  10.797  10.999   3.749  0.0071 -0.0080  0.3416
21413W        W37030  17.941   7.481  13.205  0.0153 -0.1110  0.0004
21414W        W37031   1.977   9.729   1.930 -0.0032 -0.1938 -0.1642
21415W        W37032  11.336   4.355  11.327  0.3236  0.0961 -0.0081
21416W        W37033   3.531   9.770   5.215  0.0572  0.1291 -0.0500
21417W        W37034   7.425  18.364  12.501  0.1336 -0.0193 -0.1715
21418W        W37035  15.731   5.606   2.200  0.6123  0.1591 -0.2883
21419W        W37036  15.670   1.562   5.148  0.2217 -0.2935  0.0874
21420W        W37037   2.210  13.823   1.017 -0.0367  0.0133 -0.2222
21421W        W37038   3.267  13.359  12.095 -0.2188 -0.0990 -0.2302
21422W        W37039   1.365   9.930  11.251  0.0619 -0.2845  0.0137
21423W        W37040  10.461   2.937   2.823 -0.4227  0.1691 -0.0030
21424W        W37041  14.149   4.030  16.111  0.3022  0.1882  0.2192
21425W        W37042   5.067   8.463  15.785  0.0029  0.1237  0.1245
21426W        W37043   2.579  17.109  12.680  0.3842  0.0280  0.0667
21427W        W37044  12.373  16.667  13.254 -0.1158 -0.2333  0.1533
21428W        W37045  17.830  10.989   1.725  0.0336  0.2770 -0.1064
21429W        W37046  10.905   7.102  14.029 -0.1096 -0.1776  0.0989
21430W        W37047   0.842  16.549   2.780 -0.1616  0.2545 -0.3147
21431W        W37048   8.605  13.066   1.115 -0.0012 -0.0730  0.0866
21432W        W37049   1.090   8.822   1.613 -0.3216 -0.2436  0.0895
21433W        W37050   0.674  16.301   4.218 -0.2144  0.2585  0.0351
21434W        W37051  16.909   4.768   0.544 -0.1328 -0.2644 -0.0943
21435W        W37052  12.746   3.680   4.786 -0.1394  0.0793  0.3507
21436W        W37053  12.477   3.404  13.539 -0.0048  0.1324  0.1128
21437W        W37054  14.751  11.450   1.005  0.0612  0.2357 -0.0509
21438W        W37055   7.301   9.566  13.471  0.0088 -0.2876  0.2654
21439W        W37056  13.674  16.512  11.834  0.1000  0.0028  0.3005
21440W        W37057   5.816  10.526  13.003  0.0899  0.0842  0.0026
21441W        W37058   7.699   3.681  12.560  0.1356 -0.5484 -0.1613
21442W        W37059   5.264   5.538  15.957  0.1370  0.0012  0.0632
21443W        W37060   2.325  16.367   4.739  0.0974 -0.2027 -0.5646
21444W        W37061  14.649  15.465  15.738 -0.0701 -0.2536  0.0730
21445W        W37062   1.500  17.486   3.028  0.0912 -0.3171  0.0688
21446W        W37063  16.525   0.134  13.833  0.1932  0.0376  0.2924
21447W        W37064   1.637  15.761   5.880 -0.1184 -0.2450 -0.0825
21448W        W37065  15.320   4.193  13.045  0.2048  0.0969  0.1532
21449W        W37066   2.458   7.712   4.384 -0.3538  0.0106  0.1589
21450W        W37067  10.410   8.327  12.529  0.0211 -0.1520 -0.0037
21451W        W37068  10.873  11.574   2.387 -0.2942  0.1132 -0.0070
21452W        W37069   1.446   2.962  14.835  0.0200 -0.0885 -0.4222
21453W        W37070   9.735   9.287   1.415 -0.1027  0.1680 -0.0646
21454W        W37071   3.238   3.812  11.758 -0.0796  0.0602 -0.0245
21455W        W37072   5.435   1.232   4.953 -0.0229 -0.1078  0.2054
21456W        W37073   0.705   2.475  12.421  0.3097 -0.2091  0.1667
21457W        W37074  10.637  10.296   4.411  0.1505  0.1249  0.2402
21458W        W37075   9.625   8.064   3.896  0.1453 -0.0439 -0.1878
21459W        W37076   3.352   4.002   0.105 -0.2113 -0.1565  0.0705
21460W        W37077  11.457  17.339  15.547 -0.0120 -0.1562  0.0119
21461W        W37078   7.339  10.307  11.003 -0.2112  0.0453 -0.3342
21462W        W37079  15.361   7.908   1.219 -0.2372  0.0898  0.1240
21463W        W37080  12.952  16.751   5.466  0.3967 -0.0492  0.1808
21464W        W37081   3.172   5.174  13.858  0.0121  0.0713  0.1525
21465W        W37082   0.634   8.430  13.964 -0.2026 -0.1459 -0.0307
21466W        W37083   1.066  12.661  11.879 -0.1280  0.0486  0.0724
21467W        W37084   0.130   5.153  11.630  0.2152  0.0469  0.1757
21468W        W37085   2.822  10.849   3.439  0.2009 -0.1581 -0.0955
21469W        W37086   9.039  15.057   0.340 -0.2082 -0.2860  0.2572
21470W        W37087  12.584  14.238  14.600 -0.1023 -0.0574 -0.2827
21471W        W37088   7.953   4.993  12.531  0.0101  0.1292  0.0059
21472W        W37089   1.581  15.929  16.073 -0.3101  0.4735 -0.0660
21473W        W37090   2.206   8.908  15.314 -0.1716  0.2569  0.1573
21474W        W37091   7.316   9.021  15.875  0.0801 -0.1454  0.1086
21475W        W37092   8.501   8.267  11.657 -0.0566  0.0063 -0.3597
21476W        W37093  14.336   8.516   3.208 -0.2557  0.1583 -0.3367
21477W        W37094  15.178   3.076  13.759  0.3249  0.2363 -0.2152
21478W        W37095   6.704   7.302  14.482 -0.2274  0.1924  0.3399
21479W        W37096   6.570   5.743   1.441  0.0157  0.0004  0.1099
21480W        W37097   5.754   6.592  13.064  0.1875  0.0341 -0.4086
21481W        W37098  17.372  12.985   5.044 -0.3369 -0.2990 -0.0659
21482W        W37099   9.451  13.605  13.519  0.0596  0.4017  0.1953
21483W        W37100  18.064   4.496  13.683  0.2081 -0.0402  0.2474
21484W        W37101   6.760   4.579   4.612  0.0620 -0.0998  0.1213
21485W        W37102   1.602   7.625   2.850  0.3242  0.2381  0.0151
21486W        W37103   4.404   5.781  15.511  0.0564  0.0036  0.3176
21487W        W37104   6.554   7.075   4.499 -0.1316 -0.2335 -0.2290
21488W        W37105  14.087  18.432  15.652 -0.0141  0.2181  0.0007
21489W        W37106  10.247   2.871  13.126  0.1391  0.0540  0.2035
21490W        W37107  16.242   9.758  14.664 -0.4844  0.3020  0.3370
21491W        W37108  11.748  12.197   1.072 -0.0762 -0.1178 -0.3402
21492W        W37109  12.830   9.696   1.339 -0.0044 -0.1596  0.1549
21493W        W37110   4.030  17.933  16.031 -0.0576 -0.2117 -0.3019
21494W        W37111  15.967   4.349   1.526  0.0239  0.0682 -0.1858
21495W        W37112  10.248   8.266  13.045 -0.0322  0.1366 -0.3188
21496W        W37113   4.383   0.835  15.473 -0.1491  0.2244  0.2166
21497W        W37114   3.359  14.280   2.545 -0.2825 -0.0847 -0.2105
21498W        W37115  15.432   6.129  14.333 -0.1690  0.1097  0.1335
21499W        W37116  16.204   5.563   1.368 -0.2593  0.0427 -0.0488
21500W        W37117   1.736   2.317  12.341  0.1433  0.0669  0.2063
21501W        W37118   0.233   3.130   3.554 -0.2102  0.1029  0.3409
21502W        W37119  17.181   3.443  15.651 -0.1632  0.1035 -0.2664
21503W        W37120  17.896   6.664   4.819 -0.0328  0.2669 -0.0846
21504W        W37121  11.950  14.294  11.547 -0.2268  0.3932 -0.1062
21505W        W37122   8.715  16.811  12.840  0.0748 -0.0520  0.3052
21506W        W37123  12.130  12.130  12.944 -0.0827 -0.1693  0.0902
21507W        W37124  12.598  10.019  13.305  0.2442  0.2403  0.0331
21508W        W37125   9.377   8.208   4.984 -0.2531  0.1361 -0.1426
21509W        W37126   9.740   6.364   2.879 -0.1256  0.1206  0.1196
21510W        W37127  14.798  10.000  11.589  0.0708 -0.1018 -0.1454
21511W        W37128   5.921  10.373   5.787  0.0735  0.2935 -0.2753
21512W        W37129   1.009   0.682  15.657 -0.2127  0.0846  0.3635
21513W        W37130   4.786   6.204  14.516 -0.3719 -0.1106  0.1261
21514W        W37131  16.551  11.157   0.260 -0.0587 -0.0663 -0.0825
21515W        W37132   7.697   3.004  13.452  0.0536  0.1335  0.1029
21516W        W37133   9.517   4.436   2.587 -0.6076  0.0850 -0.2442
21517W        W37134   3.832   2.471  12.982 -0.0518 -0.1356 -0.0188
21518W        W37135  18.115  14.987  14.372  0.0336  0.3380 -0.1982
21519W        W37136   4.741   7.812   2.884  0.2467  0.1477  0.0682
21520W        W37137   3.364   9.340  15.111 -0.0964 -0.0146 -0.2034
21521W        W37138  11.886  10.096  13.431 -0.2708 -0.0412 -0.2276
21522W        W37139  13.970  11.509  11.326  0.2130 -0.1927 -0.0990
21523W        W37140   2.928   1.554  14.704 -0.1236  0.1560 -0.2749
21524W        W37141  12.722   3.801  15.818  0.1032  0.1078  0.0594
21525W        W37142   1.550   5.704  16.116 -0.1260 -0.3674  0.1595
21526W        W37143   7.329  12.167  14.292  0.3264  0.1489  0.1215
21527W        W37144  17.895   0.515   0.994 -0.1969  0.1481 -0.1181
21528W        W37145   1.234  15.106  15.107  0.2997 -0.1521 -0.1114
21529W        W37146  12.367   0.277   2.910  0.2214 -0.0164  0.1159
21530W        W37147   9.212   7.834   3.656 -0.1496  0.0242  0.1580
21531W        W37148   7.580   5.800   0.697 -0.2057 -0.0424  0.0667
21532W        W37149   9.188  18.436  14.110 -0.0573 -0.0552 -0.1600
21533W        W37150   8.276   7.987   0.578 -0.7095  0.0979  0.0611
21534W        W37151  16.245   3.915   3.674 -0.3014 -0.1246 -0.0519
21535W        W37152   5.258   2.016   3.238  0.0972  0.0658 -0.0345
21536W        W37153  17.584  11.810  13.810 -0.0216 -0.2984  0.0404
21537W        W37154   8.194   6.173  10.551  0.4480  0.2305  0.1149
21538W        W37155  16.542   9.115  13.658  0.0437 -0.1552  0.2811
21539W        W37156  12.395  17.904  11.465  0.1479  0.1544  0.3837
21540W        W37157  15.446  12.591   0.779  0.3359 -0.1585  0.1351
21541W        W37158  12.097  17.822   1.040  0.1163  0.0017  0.0758
21542W        W37159   2.737  13.346   0.421 -0.2150  0.3110 -0.0153
21543W        W37160  18.015  14.253  16.103  0.0404  0.0665 -0.3912
21544W        W37161   6.017   4.515   2.065 -0.0973  0.0799 -0.2040
21545W        W37162   1.588   6.238  13.014 -0.2732 -0.2130 -0.0844
21546W        W37163   4.039   5.564  15.087 -0.3872 -0.1468 -0.0696
21547W        W37164  17.204   9.538   3.482  0.2053  0.1377  0.0006
21548W        W37165  14.334   2.464   5.748  0.0657  0.1828  0.2245
21549W        W37166  17.451   0.647   4.314  0.4484  0.1137 -0.0706
21550W        W37167  11.102   1.114  13.813  0.2369  0.1133  0.1647
21551W        W37168  11.585   7.972   2.114 -0.1600  0.2344 -0.1644
21552W        W37169  17.413  18.373  11.771 -0.1509  0.5694 -0.2942
21553W        W37170  12.896   0.288   5.211  0.1072  0.3222  0.5405
21554W        W37171   7.593   6.809   2.393 -0.2036 -0.0203  0.0479
21555W        W37172   7.383  15.948   0.753  0.0001 -0.1669 -0.0239
21556W        W37173  14.476   9.339   2.380  0.0839  0.1178  0.0821
21557W        W37174   1.304   9.444  14.810 -0.1658 -0.3601  0.3188
21558W        W37175   8.285   3.554   0.696 -0.0401 -0.1235 -0.0738
21559W        W37176  14.477  14.267   0.627 -0.0417  0.0576  0.0373
21560W        W37177  11.435   4.689  11.713  0.0071  0.2516 -0.0371
21561W        W37178  13.407   0.844  14.742 -0.0961 -0.0216  0.1660
21562W        W37179   0.186  15.588  13.684 -0.0180  0.0285  0.1221
21563W        W37180   0.925   8.079   1.645  0.1397 -0.0581 -0.0134
21564W        W37181  12.595  12.501   5.451  0.2563  0.0730  0.0954
21565W        W37182  12.952   9.849   5.015  0.1705  0.0640 -0.1640
21566W        W37183   1.385  12.665  12.241  0.2880  0.2729 -0.0221
21567W        W37184   8.633  12.619  13.790 -0.0506  0.0576  0.0120
21568W        W37185  17.035  17.627  12.787  0.0105 -0.3547  0.2854
21569W        W37186  18.168   7.013  13.880 -0.0387 -0.0601  0.0733
21570W        W37187  10.020  13.654   3.081 -0.0567  0.2295 -0.0881
21571W        W37188  16.307   4.005   5.219 -0.2096  0.0773 -0.3679
21572W        W37189  17.839  18.242   6.103  0.2856  0.1846 -0.3441
21573W        W37190  16.857   7.749   1.468 -0.1049  0.1964  0.0065
21574W        W37191  17.233  13.213  13.160 -0.0678 -0.2968 -0.0023
21575W        W37192  15.944   5.543   0.707  0.2908 -0.1038  0.2506
21576W        W37193   3.539  16.146  12.850 -0.0341 -0.1130  0.0123
21577W        W37194  14.830   8.281  12.621 -0.1922 -0.2589  0.2298
21578W        W37195   2.983  15.023   4.090 -0.2809 -0.0917 -0.0779
21579W        W37196  13.624   5.687  11.375 -0.1386 -0.1705 -0.2854
21580W        W37197   4.755  14.450  14.847  0.2493 -0.1958 -0.0591
21581W        W37198  14.502  13.511  12.972  0.0796 -0.3333  0.0930
21582W        W37199  18.266   7.810   2.216  0.1818  0.3753 -0.1718
21583W        W37200  16.091   0.889  12.547  0.0416  0.1521 -0.1370
21584W        W37201   1.462  12.114  15.498  0.0425 -0.3470 -0.0799
21585W        W37202  12.662   3.674   3.419  0.1095  0.1514 -0.1209
21586W        W37203   5.726  14.572   4.628  0.0356  0.3275  0.1706
21587W        W37204   9.576   6.447   4.147  0.1001 -0.0926  0.2953
21588W        W37205   1.406   7.483  12.234  0.2929 -0.1689  0.1671
21589W        W37206  15.312  10.830  10.778  0.0707  0.0978 -0.0356
21590W        W37207   0.965  10.555   0.870 -0.1405 -0.1415 -0.1101
21591W        W37208   8.409  18.224   2.640 -0.2119  0.1722 -0.1704
21592W        W37209   7.312   2.241  11.893  0.3591 -0.0709 -0.0735
21593W        W37210   2.453  16.201   2.424 -0.0465  0.2121  0.1441
21594W        W37211   1.800  15.772  14.060 -0.1936 -0.0341 -0.0439
21595W        W37212   6.824   4.458  13.346 -0.1038  0.1622  0.2430
21596W        W37213   0.808   8.674   4.216 -0.0100  0.1035  0.0902
21597W        W37214   0.643   1.947  11.739  0.1929 -0.1232  0.2666
21598W        W37215   5.890   4.984  12.757  0.2019  0.3966  0.1364
21599W        W37216  10.254  13.147   4.576  0.0345  0.0194  0.1012
21600W        W37217   0.368  16.987  15.532 -0.1269 -0.0215 -0.0463
21601W        W37218   4.399  14.056  14.744  0.1914 -0.2177 -0.0488
21602W        W37219  15.781  18.179  16.138  0.0543 -0.1113  0.0339
21603W        W37220  15.557   6.704   0.035 -0.0076 -0.0918  0.1344
21604W        W37221  14.137  13.051   5.696 -0.1046 -0.2355  0.0209
21605W        W37222  12.055  10.290   4.125  0.1341 -0.2236 -0.0543
21606W        W37223  17.786   9.987   1.420  0.0258  0.1711 -0.1300
21607W        W37224  11.281  11.132   3.753 -0.2016 -0.1417  0.0271
21608W        W37225  17.218  10.539  11.245 -0.1821 -0.2253  0.0595
21609W        W37226  17.107   8.937   3.632  0.0987  0.1651 -0.0913
21610W        W37227   5.212  15.536  14.591  0.0705 -0.3137 -0.0224
21611W        W37228   2.817  16.743   6.620 -0.3823  0.0350  0.1175
21612W        W37229   7.259  11.599   1.268  0.0001 -0.2566 -0.0207
21613W        W37230  17.259  11.929   1.970  0.0347  0.1378 -0.0324
21614W        W37231  11.136   7.329   4.476 -0.1701  0.1160 -0.0964
21615W        W37232  10.553   7.957   4.027 -0.1055 -0.0791  0.1029
21616W        W37233   5.003  17.097   4.494 -0.2494 -0.0039  0.2491
21617W        W37234  12.937   0.673   0.077 -0.1555  0.3800 -0.0787
21618W        W37235  13.387  18.300  15.547 -0.2056  0.1439  0.1903
21619W        W37236   0.408  12.764  11.436 -0.2307  0.1814 -0.0483
21620W        W37237  10.695   2.439   1.583 -0.0547  0.1844 -0.0342
21621W        W37238   5.477  10.689  13.429  0.0961 -0.0417  0.1449
21622W        W37239   6.411   6.259   0.147 -0.0427  0.1579  0.0354
21623W        W37240  10.499  17.866   2.279  0.1521 -0.1259 -0.1341
21624W        W37241   5.577  10.181  13.399 -0.4265  0.0401 -0.0606
21625W        W37242   0.555  13.019   2.103  0.1939 -0.0107 -0.2243
21626W        W37243   0.244  11.189  14.512  0.0123  0.1920  0.0087
21627W        W37244   8.200   5.802   4.606  0.0401  0.1541 -0.0174
21628W        W37245  11.956  11.582   4.925 -0.0914  0.1280 -0.2915
21629W        W37246   3.034  17.091  15.589  0.0624 -0.1119  0.3080
21630W        W37247   4.547   0.890   4.505  0.0176  0.2271  0.1422
21631W        W37248   1.328  11.531  15.346 -0.1127 -0.1078  0.2308
21632W        W37249  17.966   8.212   2.013  0.2056  0.0106 -0.1918
21633W        W37250   5.194   5.171  15.530 -0.2658 -0.3816  0.0325
21634W        W37251   0.454  17.571  15.225  0.1425  0.0693  0.2701
21635W        W37252   7.156   0.275   0.243  0.3360  0.0591  0.0142
21636W        W37253   2.277   3.309  13.367  0.1218 -0.1713  0.1566
21637W        W37254   7.945  12.624  15.048 -0.0015  0.0881 -0.2619
21638W        W37255  14.442   2.795  12.530 -0.2252 -0.1210  0.2149
21639W        W37256  10.171  10.074   4.467 -0.0690 -0.0263  0.0715
21640W        W37257   8.290   3.548  15.473 -0.1152  0.2410 -0.3010
21641W        W37258  15.906   0.679   3.730  0.2414 -0.0485  0.3166
21642W        W37259   4.117  15.027  11.677  0.0655  0.1273 -0.2176
21643W        W37260   1.338   7.482  13.170  0.2027  0.1595 -0.1743
21644W        W37261   1.146   6.202  11.793 -0.0346 -0.3808  0.0912
21645W        W37262  10.778   5.001  14.927 -0.3262  0.1769  0.5542
21646W        W37263   5.879  10.362  13.904  0.2274 -0.4653 -0.3311
21647W        W37264   1.742   2.987   5.332  0.2297 -0.2274 -0.0703
21648W        W37265   3.270   5.604  12.167  0.1338 -0.2500 -0.0320
21649W        W37266   9.760  16.501  15.368 -0.1919 -0.0919 -0.0543
21650W        W37267   0.258  11.918  14.561 -0.1494 -0.1303  0.0626
21651W        W37268   8.345   2.738  13.165 -0.2697 -0.0963  0.0027
21652W        W37269   1.919   0.364  11.896  0.0301 -0.0267  0.0149
21653W        W37270   0.966  17.467   3.098  0.0639  0.2263  0.1236
21654W        W37271  15.642  16.608   4.127 -0.0979 -0.1790  0.0991
21655W        W37272   9.159  18.229  13.031  0.1456 -0.0826  0.0703
21656W        W37273   9.998   9.574   1.821 -0.1143 -0.1047 -0.0267
21657W        W37274   9.286   7.037   3.468 -0.1794 -0.0440 -0.0386
21658W        W37275  18.362   7.872   4.850  0.0747  0.0663 -0.4364
21659W        W37276   1.253  18.028   1.746  0.2408  0.2883  0.1923
21660W        W37277  14.197   5.281   4.328  0.1295  0.1603 -0.2000
21661W        W37278   7.744  17.712  12.784  0.0399 -0.0745  0.0633
21662W        W37279   4.055  16.373  15.313 -0.1451  0.2501 -0.1323
21663W        W37280   1.682  16.740   1.173  0.2499  0.1597  0.0206
21664W        W37281   5.230  10.925   2.611 -0.0503 -0.0165  0.1306
21665W        W37282  12.244  17.785  15.363  0.0470  0.0742 -0.0688
21666W        W37283   6.163   6.766  15.553  0.1371 -0.4600  0.0285
21667W        W37284   2.814  12.788   5.325  0.0273  0.0802 -0.1343
21668W        W37285   5.012   3.094   4.215 -0.2354 -0.2558 -0.3454
21669W        W37286  15.317   2.635  14.069 -0.1384  0.0810  0.1285
21670W        W37287  16.226  13.292  12.804  0.1987 -0.0963  0.0598
21671W        W37288  13.237  17.936   0.393 -0.2493  0.0201  0.2951
21672W        W37289   7.087  16.094  14.226  0.1560  0.2044 -0.0238
21673W        W37290   0.435  14.289  12.996 -0.5410 -0.1095 -0.2846
21674W        W37291  16.460   8.999   4.790  0.2246  0.0574  0.1419
21675W        W37292  18.236  11.597  14.641 -0.1163 -0.1907  0.1344
21676W        W37293  13.211   7.017   0.188  0.1205 -0.2663  0.1785
21677W        W37294  16.340  12.178   4.198  0.3745  0.1131  0.3597
21678W        W37295   4.113   0.443  15.126 -0.1941  0.0738 -0.0825
21679W        W37296  13.896  17.892   2.974  0.0972  0.3323  0.2735
21680W        W37297   3.036   3.885   5.337 -0.1488 -0.0426 -0.0351
21681W        W37298  15.508  15.251  11.263  0.1112 -0.1382 -0.4158
21682W        W37299   6.958   3.672   2.160  0.0094 -0.1702 -0.0820
21683W        W37300   8.496  17.487   3.233  0.1280  0.1275 -0.2992
21684W        W37301   7.528   2.045   2.790  0.3143  0.0658  0.1697
21685W        W37302  16.495  13.509   5.378  0.4041  0.0203  0.1160
21686W        W37303  17.472   3.771  11.568 -0.0980  0.0225 -0.0086
21687W        W37304   3.981   6.775   3.979  0.1392 -0.1147 -0.3991
21688W        W37305  11.569   5.110   4.614 -0.0934  0.1592  0.1299
21689W        W37306   5.204   7.327  10.796  0.2242  0.1558  0.0719
21690W        W37307   5.014   2.078   4.978 -0.0630  0.1626 -0.0285
21691W        W37308   7.316  17.531   5.115 -0.2262  0.0949  0.2114
21692W        W37309   8.731  10.511  13.417  0.1765 -0.0194  0.1618
21693W        W37310   3.025   8.033   5.018 -0.2853  0.1261  0.1234
21694W        W37311   3.967  17.565   5.506 -0.0642  0.1842 -0.4614
21695W        W37312   9.502   9.156   5.296 -0.1634 -0.0375  0.3775
21696W        W37313  16.883   1.189  11.644  0.2505  0.0037  0.0511
21697W        W37314   6.114   8.549   2.158  0.1351  0.2643 -0.1608
21698W        W37315  12.865   9.415   5.295 -0.2817 -0.2034 -0.1218
21699W        W37316  17.465  11.416  13.216 -0.0277 -0.0091  0.2033
21700W        W37317   2.909  16.899  12.343  0.1012 -0.3301 -0.0127
21701W        W37318  17.462  17.976   2.045 -0.2380  0.0085 -0.0355
21702W        W37319   6.160  16.210  14.425 -0.0977 -0.0292  0.2386
21703W        W37320  17.187   5.357  14.270 -0.3283  0.1290 -0.1115
21704W        W37321   0.099   9.397  14.442 -0.0220  0.2734  0.1809
21705W        W37322   3.552   4.777   4.767 -0.2110 -0.0805  0.1840
21706W        W37323  15.209  18.274  14.637  0.0823  0.0102 -0.1605
21707W        W37324   5.137  11.639  15.404  0.1948  0.2228  0.4509
21708W        W37325  10.073  17.129  10.247  0.0616  0.0822 -0.0885
21709W        W37326   1.819   0.954   0.240 -0.1323  0.1594  0.0940
21710W        W37327  12.847  18.097  15.890  0.1204  0.1518 -0.3683
21711W        W37328   5.476  18.454   4.844 -0.1450  0.2816  0.1355
21712W        W37329   0.991   8.929   0.701  0.0265 -0.2647  0.1381
21713W        W37330   5.899   4.842   5.600 -0.0461  0.2435 -0.3044
21714W        W37331   1.583   1.345  16.115  0.1446  0.0767 -0.4226
21715W        W37332  15.284   4.915  11.516 -0.2136 -0.2542  0.0968
21716W        W37333  16.898   4.798  16.096  0.1889  0.1550  0.2920
21717W        W37334  15.321   2.683   4.807  0.0928 -0.2003  0.0270
21718W        W37335  11.029  16.276  16.109  0.0478  0.2534  0.3119
21719W        W37336  11.852  11.898   5.337  0.1700 -0.3825 -0.0045
21720W        W37337   9.422  16.070  13.560  0.0923 -0.1290 -0.3039
21721W        W37338  13.630   5.694   0.298  0.2961  0.0373 -0.0612
21722W        W37339   9.032   0.787   3.683  0.0159 -0.3056 -0.0482
21723W        W37340  13.314   8.226  15.193 -0.3111  0.1529  0.2926
21724W        W37341  17.027   0.418   3.075  0.0520 -0.2153  0.0523
21725W        W37342  11.710  10.155  13.899 -0.0918 -0.1289 -0.2129
21726W        W37343   2.779   8.936  13.180  0.0467 -0.1235 -0.1091
21727W        W37344   3.720  15.765   1.398 -0.2061 -0.0831 -0.1010
21728W        W37345   5.450  15.297  13.702  0.0813 -0.1642  0.0792
21729W        W37346   3.960  16.734  13.900  0.3977 -0.0705 -0.2919
21730W        W37347  12.053   2.696  15.117  0.0564 -0.1408  0.2396
21731W        W37348   2.879   6.527  12.926 -0.1748 -0.0639 -0.0472
21732W        W37349  14.867   0.296   1.986  0.0087  0.2046  0.0290
21733W        W37350  13.256   5.605  13.252  0.2128 -0.0954 -0.2666
21734W        W37351  12.129   9.551   3.685  0.2789  0.1569  0.0548
21735W        W37352   4.365   8.930  14.453  0.1395 -0.4813  0.0546
21736W        W37353   9.647   4.431  10.615 -0.2765 -0.0076 -0.1419
21737W        W37354   4.877   0.919  12.166  0.2863 -0.3400 -0.0696
21738W        W37355   5.672   7.437  10.917  0.1731  0.1283 -0.0151
21739W        W37356  14.806   7.407  16.093  0.1237 -0.1100  0.3841
21740W        W37357   0.331   5.557   3.355  0.1537  0.1356 -0.2654
21741W        W37358   9.936  13.653  13.765 -0.3034 -0.3484 -0.1472
21742W        W37359   8.591   8.915   4.144 -0.2315 -0.1049 -0.2673
21743W        W37360  12.565   1.289   5.205  0.1961 -0.2530  0.0938
21744W        W37361   1.579   6.116  14.258  0.0492  0.2307  0.0425
21745W        W37362   4.103  11.266  16.040  0.0728  0.1823  0.2149
21746W        W37363  13.008   1.216  11.584 -0.2194 -0.3506 -0.1657
21747W        W37364   3.109   5.245   1.857  0.1152 -0.1546 -0.0339
21748W        W37365   1.745   9.676  14.726 -0.4097 -0.1180  0.1797
21749W        W37366  15.386   9.609  14.102 -0.0743 -0.2008 -0.0663
21750W        W37367   4.471   8.083  11.649 -0.2033 -0.0508  0.1819
21751W        W37368   4.765  12.428   4.496  0.1696  0.2107 -0.3399
21752W        W37369   5.991  16.520  11.489 -0.0223 -0.0776 -0.2087
21753W        W37370   5.300   6.945   1.541 -0.1163 -0.3743  0.1116
21754W        W37371  18.132  12.943   1.230  0.2169  0.0459 -0.0586
21755W        W37372   4.118   8.525   0.795  0.1031  0.0016  0.0054
21756W        W37373  12.546   4.069  14.797  0.1674 -0.0856 -0.1934
21757W        W37374   9.389   2.491   3.318  0.2819  0.0599  0.2012
21758W        W37375  12.646  16.822  15.495 -0.1343  0.2188 -0.0689
21759W        W37376   8.456  10.684   2.038 -0.1475 -0.4385  0.2552
21760W        W37377  15.401  13.198  15.733 -0.2544  0.4226  0.1500
21761W        W37378  15.372  11.236  13.426 -0.2591 -0.2683 -0.1174
21762W        W37379   7.068   5.118   4.590 -0.0099 -0.0452 -0.1500
21763W        W37380  13.700   4.249  13.436 -0.1008  0.3356 -0.1368
21764W        W37381   8.188  16.171  10.398 -0.0329  0.0778  0.0305
21765W        W37382   9.758   1.063   4.750 -0.5370  0.0485 -0.0028
21766W        W37383   3.513  13.733   2.831  0.2866 -0.0579 -0.0894
21767W        W37384   5.242   6.068  12.504 -0.1145  0.2415 -0.0651
21768W        W37385   6.498   4.266  13.013  0.1511  0.1013  0.0064
21769W        W37386   7.439   6.942  13.223 -0.2263 -0.0005  0.0913
21770W        W37387   5.309  16.984   0.127  0.3236  0.2470  0.0245
21771W        W37388   1.007  16.467   0.308 -0.1461 -0.3575  0.0705
21772W        W37389   1.076  10.366  15.193 -0.0240 -0.1777 -0.0372
21773W        W37390   5.339  17.743   4.878  0.0749 -0.0716 -0.1942
21774W        W37391  10.562  14.189   4.610  0.1681  0.0396 -0.3864
21775W        W37392   9.068  11.135  13.971  0.2640 -0.1196 -0.0397
21776W        W37393  15.926  15.227   1.229  0.1416 -0.0602  0.1527
21777W        W37394   0.652   8.125   5.548  0.4616  0.1734 -0.1356
21778W        W37395   1.968   1.576  15.249 -0.4455  0.1566  0.0796
21779W        W37396  18.400   3.194   3.066  0.0331  0.0229 -0.2789
21780W        W37397   8.295  13.171   4.544  0.0178 -0.0270  0.0904
21781W        W37398   2.877   9.948   2.375  0.1592  0.2756  0.1590
21782W        W37399   5.349   0.671  13.061  0.0967 -0.2440 -0.0182
21783W        W37400   9.787  13.277   5.393  0.4437 -0.3273  0.0140
21784W        W37401  17.843   7.298   3.753 -0.2347 -0.1601 -0.0186
21785W        W37402  17.060  17.130   1.902  0.5601 -0.2137 -0.0402
21786W        W37403   5.810   2.444   4.615 -0.0271  0.0025  0.0425
21787W        W37404   2.098   0.298   0.231  0.1460 -0.1857  0.1133
21788W        W37405  11.135   9.050   2.670 -0.2505 -0.1265  0.2686
21789W        W37406   8.754   3.305   2.305 -0.2924  0.3697  0.2347
21790W        W37407   6.411   4.537  12.030 -0.1608  0.0839 -0.0796
21791W        W37408   3.840   8.977   0.065 -0.1697  0.0220  0.0648
21792W        W37409   6.051  13.425  13.960  0.0736  0.2455 -0.2091
21793W        W37410  15.938  15.906  12.681 -0.0833  0.1117  0.0826
21794W        W37411   9.711   7.495  16.080  0.0811  0.0849  0.1984
21795W        W37412  17.922   8.151  11.767  0.0816 -0.0526 -0.0043
21796W        W37413  10.999  11.130   4.816  0.0355  0.1219 -0.1242
21797W        W37414  18.147  16.750   5.048 -0.1525 -0.1188 -0.1234
21798W        W37415  17.099   6.632  11.424 -0.2637 -0.1219  0.1324
21799W        W37416  18.180  15.327  15.718 -0.3868 -0.3116 -0.0945
21800W        W37417  16.584   0.091   1.607 -0.0101  0.0808 -0.0306
21801W        W37418  16.718  12.891   0.269  0.2772 -0.0300  0.3348
21802W        W37419  14.606  18.321   6.256 -0.0974 -0.1509 -0.2245
21803W        W37420  12.242  12.352   4.068 -0.0530 -0.0871  0.1208
21804W        W37421  11.823  15.350  12.446 -0.0807 -0.2806  0.2126
21805W        W37422   1.459  12.602  14.155  0.0723 -0.0281  0.1955
21806W        W37423  16.131  13.767   2.336 -0.3385  0.1173 -0.2283
21807W        W37424  10.221   8.910  14.735 -0.0878  0.2800 -0.2964
21808W        W37425  10.598   2.487   3.075  0.0033 -0.0134  0.2958
21809W        W37426   3.012   9.687   5.416 -0.1335  0.3500  0.2629
21810W        W37427  15.558   1.513   2.411 -0.3948  0.3917  0.2799
21811W        W37428   9.814   9.363   3.790  0.0853  0.0278 -0.1968
21812W        W37429   4.381   1.199  12.205  0.0017  0.0739 -0.0455
21813W        W37430  15.043   5.801  12.208  0.0154  0.0820 -0.0376
21814W        W37431   5.712   7.883  15.760  0.0113  0.1693 -0.1824
21815W        W37432   0.488   9.098  14.837 -0.0309 -0.1237  0.0768
21816W        W37433  12.330  12.969   5.298  0.4193 -0.0155  0.2254
21817W        W37434   3.922   1.793  14.893  0.2045 -0.1265  0.2511
21818W        W37435  16.771  15.329   3.826  0.1512 -0.3024  0.1757
21819W        W37436   1.576  11.033  14.163  0.2046  0.0661 -0.3082
21820W        W37437  14.779   7.670  12.486  0.1125 -0.1768  0.1644
21821W        W37438   7.385  11.651   4.549 -0.0632 -0.2211  0.0541
21822W        W37439   5.671  16.676  14.982  0.0890  0.1621  0.1064
21823W        W37440  11.113  11.134   2.855 -0.0533  0.0707 -0.2895
21824W        W37441   0.135  11.822  13.122  0.0908  0.1148  0.1764
21825W        W37442  17.451   6.128  14.107  0.0518 -0.2501 -0.0026
21826W        W37443   3.035  16.398   0.087  0.0380 -0.2267  0.0317
21827W        W37444   0.683  17.873   2.586 -0.0376  0.1789  0.0267
21828W        W37445  10.512   8.079  15.502  0.0199  0.2629  0.0854
21829W        W37446  14.632  17.877   1.626  0.0672  0.0775  0.0211
21830W        W37447  11.652  12.386   5.253  0.1131 -0.0103 -0.0164
21831W        W37448   9.499   0.276  15.778  0.2705 -0.0548  0.1286
21832W        W37449  13.041   4.089   4.583 -0.3012 -0.0131 -0.1922
21833W        W37450  10.707   9.996  14.832  0.0538 -0.1104 -0.3045
21834W        W37451  17.562   4.674  10.928  0.1328  0.0062  0.0686
21835W        W37452   9.720   7.228  15.562  0.2395 -0.1737  0.1334
21836W        W37453   9.419   9.631  11.648  0.0551  0.3184  0.1870
21837W        W37454  12.475  15.739   0.699 -0.2040 -0.0752 -0.1424
21838W        W37455   6.207   3.330   4.941 -0.1640  0.0730 -0.0797
21839W        W37456   6.157  13.848  13.654  0.1122 -0.0731  0.1410
21840W        W37457  12.488   3.317  12.047  0.4955 -0.2008  0.2302
21841W        W37458   3.539   1.431   5.119  0.1701  0.1527 -0.1631
21842W        W37459  16.454   3.427  11.540  0.2789  0.0449  0.0857
21843W        W37460   9.514  12.215   5.128  0.0145  0.0343  0.1878
21844W        W37461   3.289   2.954   1.341 -0.1047 -0.1956  0.0338
21845W        W37462   7.238   4.519   4.454 -0.1267 -0.0019  0.1851
21846W        W37463  15.084  11.711   0.485  0.2050  0.3123  0.0611
21847W        W37464  15.026   1.760  15.447 -0.3461 -0.1588 -0.2376
21848W        W37465   2.053   8.887  11.327  0.1048 -0.0854 -0.0730
21849W        W37466   7.938  12.525  10.734 -0.0943  0.1962 -0.0499
21850W        W37467  14.308  18.127   1.970  0.1791 -0.1250  0.0136
21851W        W37468   2.677   1.674   0.083  0.0721  0.0815  0.0752
21852W        W37469  15.961   1.662  11.378  0.0276  0.0605 -0.1795
21853W        W37470  17.916  15.267   4.368  0.1661 -0.2626  0.1455
21854W        W37471  13.347   6.255  13.086 -0.2010  0.0399  0.0597
21855W        W37472   3.878   1.292  13.936  0.1873  0.1354 -0.1433
21856W        W37473  10.286   4.168   5.007  0.0901  0.0906 -0.0874
21857W        W37474  17.924   5.548  11.523 -0.0007  0.0898  0.0431
21858W        W37475   5.612  15.702   5.907 -0.0930  0.1587 -0.0864
21859W        W37476   7.072   8.763  15.488 -0.0326  0.0450  0.3703
21860W        W37477  11.063   5.947  15.978  0.2261 -0.0211 -0.3132
21861W        W37478  10.211   9.410  13.878 -0.0660  0.0461 -0.1087
21862W        W37479  17.766  10.717   3.428 -0.0920  0.0939 -0.0707
21863W        W37480  17.444   6.106   2.894 -0.2728  0.1570 -0.2066
21864W        W37481   4.394   2.031  12.317  0.1003 -0.1760  0.1891
21865W        W37482  12.595  15.605  14.845 -0.1074 -0.0268  0.0975
21866W        W37483   2.505  12.962   1.137  0.1736  0.3198  0.0909
21867W        W37484   1.073  17.385   6.242 -0.0232 -0.2279  0.0645
21868W        W37485   1.302   2.908  12.940  0.1336 -0.0826  0.1901
21869W        W37486  11.746   5.300   3.544 -0.6030 -0.2840 -0.0952
21870W        W37487   7.433   0.365  12.287  0.2821 -0.1398  0.0978
21871W        W37488   4.135   8.123  15.867  0.2263  0.1046 -0.0992
21872W        W37489   4.199   6.634   5.267  0.3736 -0.0811 -0.2128
21873W        W37490  12.072   3.941   0.009 -0.0300  0.1393  0.0676
21874W        W37491   1.254   7.486  14.293  0.1050  0.0745  0.4524
21875W        W37492  18.165   1.526  13.349  0.2618 -0.1919  0.2808
21876W        W37493  10.142   2.079  13.493 -0.4562  0.1615  0.2246
21877W        W37494  12.328   7.914  14.508 -0.0880 -0.3287 -0.0089
21878W        W37495   9.888   6.683  12.226  0.2473  0.0394  0.3817
21879W        W37496  10.641   7.206   4.342  0.0142 -0.1996  0.1283
21880W        W37497   4.778  10.696   2.426 -0.3254  0.1022 -0.0902
21881W        W37498   0.701  16.691  16.079 -0.2382  0.0478  0.1307
21882W        W37499  17.193  13.327  14.185  0.2749  0.0288  0.2066
21883W        W37500   0.349  16.519  12.927  0.0862 -0.0709 -0.1586
21884W        W37501  12.403   8.923   3.663  0.1188 -0.1911 -0.1507
21885W        W37502   4.402   0.393   3.380  0.0164  0.0615  0.1955
21886W        W37503  12.190   3.745  14.221  0.2381  0.2604 -0.3415
21887W        W37504   2.688   0.166   1.980  0.3458 -0.0181 -0.0030
21888W        W37505  13.214   0.564   3.012 -0.1977  0.0629  0.3696
21889W        W37506  13.474   0.977   4.121  0.2682  0.5300 -0.1288
21890W        W37507  17.307  16.945   2.361 -0.0718 -0.0255 -0.2383
21891W        W37508   4.881   6.145   0.322  0.0164 -0.2395  0.1719
21892W        W37509  18.323   5.949   5.520 -0.1316  0.1054 -0.4027
21893W        W37510   8.576  16.421   5.027 -0.0579  0.0519 -0.0513
21894W        W37511   4.041  10.959   2.873 -0.2385 -0.1483 -0.2503
21895W        W37512   1.771   4.917   5.479  0.4392  0.3591 -0.0806
21896W        W37513   4.822  18.106  15.657  0.2500  0.1005  0.1339
21897W        W37514   7.258  13.412   3.491 -0.0249 -0.1455 -0.1930
21898W        W37515   5.663  15.304  14.716 -0.2565  0.1062  0.1073
21899W        W37516   3.747  11.003   0.237 -0.3134  0.2356 -0.3020
21900W        W37517  18.028   4.907   1.423 -0.2585  0.2346 -0.2448
21901W        W37518  15.057   6.090  14.713 -0.0567 -0.3682  0.0188
21902W        W37519   4.058   4.852   0.704  0.3126 -0.1673  0.0872
21903W        W37520   1.573   9.718   1.014  0.2424  0.1997 -0.0307
21904W        W37521  11.716  16.639  14.924  0.0428 -0.2943  0.0061
21905W        W37522   4.255  11.074   3.858 -0.3480  0.0469 -0.0491
21906W        W37523   6.178   6.657   2.490  0.0415 -0.2110  0.0572
21907W        W37524   6.548   2.021   2.790  0.1863 -0.2168  0.1454
21908W        W37525   7.625   2.533  11.022  0.1681 -0.0156  0.1549
21909W        W37526  15.967   8.409  13.895 -0.0636  0.1395  0.0202
21910W        W37527   9.508   8.498  14.167 -0.0051 -0.0561  0.2170
21911W        W37528  13.845  10.621   4.122  0.2482  0.1606 -0.1123
21912W        W37529  14.235  11.479  14.220  0.0512  0.2645 -0.2059
21913W        W37530  14.573   8.136  13.301  0.0986  0.0749  0.1956
21914W        W37531   4.799  14.432   2.695 -0.1669  0.2055  0.1556
21915W        W37532  10.023   8.528  14.093 -0.0191  0.0934  0.0916
21916W        W37533  16.042  12.962   6.061  0.2921 -0.0445  0.0651
21917W        W37534  18.057   6.968  13.401 -0.1622 -0.0050  0.2581
21918W        W37535   2.606  15.464  11.612 -0.0114 -0.0890 -0.1179
21919W        W37536  12.143   8.229  11.780 -0.1759  0.2923 -0.1848
21920W        W37537  10.923  14.722  15.341  0.1379 -0.1607 -0.1145
21921W        W37538  10.046   6.591  14.588  0.0664 -0.0653  0.1186
21922W        W37539  11.084  11.557  14.034 -0.0920 -0.0156  0.1409
21923W        W37540   9.141   9.908   4.750 -0.2771  0.1797 -0.1797
21924W        W37541  10.377   1.612  13.228 -0.2271  0.0737 -0.0061
21925W        W37542   5.984  16.260  11.978 -0.0525 -0.1140  0.0812
21926W        W37543  11.833  11.875   0.612 -0.1288  0.2629 -0.3734
21927W        W37544  12.150   2.286  15.764  0.1452  0.1536 -0.5837
21928W        W37545   1.244  10.155   2.637 -0.3140 -0.1061  0.2477
21929W        W37546  10.344  12.021  14.286 -0.0886  0.1019 -0.0007
21930W        W37547  12.794   0.026   5.598 -0.0925 -0.1031 -0.1900
21931W        W37548   8.952  13.073   1.992 -0.1334 -0.1084  0.3615
21932W        W37549  17.475   5.365  16.131 -0.1688 -0.3547  0.1549
21933W        W37550  16.868  16.571   3.345 -0.1094 -0.0885 -0.2097
21934W        W37551   6.718   6.403  14.911  0.0686  0.4419  0.3529
21935W        W37552   8.475   4.129   3.009  0.2121 -0.2665 -0.2278
21936W        W37553   9.550   3.545   1.483  0.1912 -0.4499  0.1844
21937W        W37554  11.254   4.673  12.856  0.1447  0.0292  0.0279
21938W        W37555   4.167   4.465   3.095  0.2710  0.0156 -0.0789
21939W        W37556  12.116  16.961  14.206  0.0870  0.2969 -0.1672
21940W        W37557   5.901   2.849   2.687  0.2129  0.1843 -0.0448
21941W        W37558   8.572  16.936   5.300 -0.1048 -0.0727  0.0876
21942W        W37559   2.051   0.707  13.650  0.0527  0.2485  0.0747
21943W        W37560   2.277   6.740  11.535  0.1969 -0.0464 -0.0104
21944W        W37561   2.803  12.338   5.529  0.0450  0.1862  0.1789
21945W        W37562   4.686  12.000   2.519 -0.3695 -0.0931 -0.1419
21946W        W37563   4.608   5.445   5.107  0.0586 -0.2329  0.2599
21947W        W37564  14.302   2.326  14.407  0.3323 -0.2671  0.2367
21948W        W37565  11.257   4.276  14.451  0.1213  0.0300  0.2437
21949W        W37566   8.128  14.858   4.161  0.0517 -0.3622  0.1029
21950W        W37567  17.542   2.966  15.342 -0.0273  0.3300 -0.4088
21951W        W37568   1.493   2.263   4.615  0.1425  0.1607  0.0678
21952W        W37569  11.558   3.331  11.464  0.1402 -0.3294 -0.0009
21953W        W37570   0.455   0.528   0.586 -0.3515  0.1082 -0.3745
21954W        W37571  15.099   1.900   3.398 -0.2006  0.1178 -0.0774
21955W        W37572   5.229   8.449   2.460 -0.0986  0.1780  0.0276
21956W        W37573  17.195  11.856  15.267  0.1650 -0.0237 -0.0648
21957W        W37574  13.999   7.552  15.224 -0.1501 -0.2702 -0.1966
21958W        W37575   6.430   5.338   2.142  0.0284 -0.1602  0.0561
21959W        W37576   1.414  16.653  13.565  0.0387 -0.2228  0.2544
21960W        W37577   3.380  15.008   5.916  0.1946 -0.1279  0.0833
21961W        W37578  10.897   5.867  11.398  0.0939  0.2852  0.5360
21962W        W37579  12.519  16.911  13.711  0.3660  0.1174  0.2568
21963W        W37580   7.150   0.775   1.556  0.0096  0.2329 -0.2137
21964W        W37581   6.567  12.779   4.849 -0.1142  0.0135  0.3484
21965W        W37582   8.176  17.935  11.384 -0.0201  0.1773 -0.4468
21966W        W37583   0.322   9.979   5.042  0.2638 -0.2403  0.1881
21967W        W37584   8.226   6.642  10.930 -0.1626  0.0973 -0.0607
21968W        W37585  11.019   2.574   1.016  0.0187  0.0400  0.0414
21969W        W37586   8.474   3.421  14.974 -0.4255 -0.0357 -0.2773
21970W        W37587  13.967   7.449  10.737 -0.1969 -0.3146  0.0723
21971W        W37588   0.744  14.625  15.798 -0.1746  0.2600  0.0722
21972W        W37589  14.870   1.600  13.153  0.0456 -0.0148 -0.0038
21973W        W37590   6.181  15.004   6.819 -0.0380  0.3621 -0.0037
21974W        W37591   8.084   0.591   1.553  0.0135 -0.0521 -0.2844
21975W        W37592   3.473  17.812   3.727  0.1581 -0.1797 -0.0102
21976W        W37593   6.901  13.348   5.809 -0.1243 -0.0067 -0.0246
21977W        W37594   2.224   1.707   4.372 -0.1034 -0.1195 -0.4566
21978W        W37595   6.787   7.902   4.707 -0.1848 -0.1215  0.0884
21979W        W37596   4.045   1.627   3.717 -0.2466 -0.0853 -0.2962
21980W        W37597   3.137   8.791  11.715  0.5734  0.3082  0.0108
21981W        W37598   8.294   9.036  12.230 -0.0405 -0.0342  0.0027
21982W        W37599   4.342  15.730   4.410  0.0188  0.0035  0.3514
21983W        W37600   4.035   1.000   4.370  0.1586  0.0092  0.2437
21984W        W37601  17.353   2.625   4.206  0.1652  0.2202  0.0406
21985W        W37602   8.376   3.747   1.174  0.0494  0.0630  0.0282
21986W        W37603   2.029  15.665  16.008 -0.0717  0.0158  0.5415
21987W        W37604  18.407   3.961  15.873 -0.4399  0.0409  0.2378
21988W        W37605  12.245   7.558  15.497 -0.2155 -0.1170  0.1730
21989W        W37606  12.977   0.736  14.338  0.2474 -0.2717 -0.0692
21990W        W37607   2.958  15.787  11.559  0.1363  0.0780  0.1400
21991W        W37608  10.171   0.534   0.240 -0.1061 -0.3524 -0.0106
21992W        W37609  15.413   9.718   2.931  0.1596 -0.0968  0.0254
21993W        W37610  14.014   8.088  14.451 -0.0432  0.2099  0.1420
21994W        W37611  14.724   2.332   0.481 -0.0809 -0.1847 -0.3745
21995W        W37612  10.388  17.465   1.810 -0.3073 -0.0153  0.2672
21996W        W37613   8.032   2.696  13.584 -0.5721  0.0655  0.2119
21997W        W37614  10.331  10.775   2.585  0.0327  0.3268 -0.2759
21998W        W37615   9.469  12.500  15.295  0.0377  0.2249 -0.0814
21999W        W37616   0.680   0.832   4.791  0.0686  0.0206  0.2585
22000W        W37617  16.158  14.876  16.045  0.1663  0.0885  0.0381
22001W        W37618   5.059   9.170   2.643  0.0640  0.1586  0.0882
22002W        W37619  16.271   7.812   0.523 -0.2017 -0.1871 -0.2007
22003W        W37620   9.001  14.955   2.162 -0.0369  0.1296  0.2007
22004W        W37621   8.054   6.065   3.729 -0.1136 -0.1360  0.0559
22005W        W37622   6.269  17.839   2.588  0.0906  0.4990 -0.4294
22006W        W37623   0.638   2.776   3.680  0.1172 -0.0845 -0.0895
22007W        W37624  17.991  17.479   4.525 -0.3383 -0.0402 -0.2256
22008W        W37625   9.445   6.682  10.788 -0.1159 -0.4776  0.3309
22009W        W37626  16.735  15.513  15.084 -0.0931 -0.0423  0.0657
22010W        W37627   9.457   1.519  13.222 -0.2483 -0.0577  0.0235
22011W        W37628  17.215   8.318  14.965 -0.1123 -0.1078  0.0398
22012W        W37629  18.275   4.802   4.539  0.3085 -0.2301  0.1579
22013W        W37630   6.425  17.719   0.954  0.0265 -0.1143 -0.2656
22014W        W37631   9.178  15.634   0.545 -0.3500  0.0376 -0.1860
22015W        W37632  13.963   4.921   0.085 -0.0984 -0.0457 -0.1498
22016W        W37633  15.393   2.523  11.499 -0.0615  0.0774 -0.0197
22017W        W37634   8.879   9.987  13.393  0.0988 -0.1871 -0.2204
22018W        W37635  10.483  15.538  11.301 -0.1615  0.1464 -0.1296
22019W        W37636  16.900  13.754   3.061 -0.2833 -0.1982 -0.1626
22020W        W37637   5.490   5.536   1.562  0.0799  0.2243 -0.0498
22021W        W37638   2.842   4.111   1.777 -0.1403  0.3057  0.0276
22022W        W37639   4.604   2.358  12.713  0.0324  0.1140 -0.2589
22023W        W37640  15.642  10.552   4.760 -0.2769 -0.1798  0.0167
22024W        W37641   8.010   0.042  15.863 -0.0691 -0.0142 -0.2449
22025W        W37642  17.499   7.547  14.218  0.0553 -0.1979  0.0819
22026W        W37643   3.362   1.056  13.850  0.0626  0.1500 -0.0551
22027W        W37644   8.579   0.879  13.285  0.2675  0.0801  0.2245
22028W        W37645  11.272   2.295   4.556  0.1016  0.4054  0.1344
22029W        W37646   7.108   7.973   1.037  0.1081  0.1121 -0.3780
22030W        W37647  11.911   7.574   1.204 -0.3564  0.2335  0.2190
22031W        W37648   7.692   6.747  14.074  0.1984  0.2253  0.1422
22032W        W37649   0.424   0.535  14.811 -0.3600  0.0106  0.1783
22033W        W37650   3.214   6.641  10.538 -0.3085  0.1014  0.1070
22034W        W37651   7.196  14.578  13.427 -0.0371 -0.1564 -0.0719
22035W        W37652   5.980  15.633  13.775 -0.4573 -0.1378  0.0239
22036W        W37653  11.436  11.893   1.575 -0.2201 -0.3919 -0.0854
22037W        W37654   7.428   5.805  12.923 -0.3529 -0.1035 -0.3207
22038W        W37655  11.327  12.836  11.080  0.1512 -0.0079  0.0246
22039W        W37656   4.313   3.127   4.531  0.0413 -0.0704 -0.0677
22040W        W37657   6.217  11.676  13.647  0.1305  0.0011  0.0048
22041W        W37658   4.306   9.884  13.847  0.2218 -0.2220  0.2020
22042W        W37659  12.872   1.582   5.519 -0.0542  0.2988 -0.2900
22043W        W37660  13.333   1.891   5.131 -0.2891 -0.1259 -0.2584
22044W        W37661   2.608  17.213   5.561  0.0482  0.0426 -0.2405
22045W        W37662   4.937   5.506  12.852 -0.1344  0.0515  0.0848
22046W        W37663   6.895   1.163  12.581  0.0511  0.1576 -0.0270
22047W        W37664  10.011  11.601   6.046  0.2862  0.1652 -0.0757
22048W        W37665  15.837  17.402  15.103 -0.0875 -0.0250  0.1065
22049W        W37666  16.640   1.955   5.150 -0.1989  0.3039  0.3053
22050W        W37667  13.220   5.695   0.044  0.0160 -0.1133 -0.0252
22051W        W37668  16.894   4.718   2.851 -0.1376 -0.2303  0.1536
22052W        W37669  12.325   7.811   4.966  0.2335 -0.0571 -0.2817
22053W        W37670   1.319   9.966  14.646  0.1193  0.2250 -0.2957
22054W        W37671   6.465  16.635  15.599  0.0631 -0.3670  0.0170
22055W        W37672  18.432   9.095  15.566 -0.3170 -0.1040 -0.0912
22056W        W37673  17.264   0.145  14.313 -0.0350  0.1131  0.0709
22057W        W37674   1.182  15.696   4.878 -0.1339  0.2969 -0.2109
22058W        W37675   3.043   4.683   0.814 -0.1686 -0.1178 -0.3726
22059W        W37676  17.927  10.172   3.630  0.1090 -0.0943  0.1234
22060W        W37677   0.664   7.266  12.611 -0.0142 -0.2390  0.2843
22061W        W37678   9.824   0.372   3.186 -0.2407  0.3460 -0.0098
22062W        W37679  16.758  14.114  11.363 -0.0415 -0.1562 -0.0881
22063W        W37680  13.853  17.019   4.486  0.0984 -0.0285  0.2656
22064W        W37681  12.209  14.929   5.698 -0.0293  0.1910 -0.0520
22065W        W37682   2.512   1.246   5.132 -0.3724 -0.0188  0.0648
22066W        W37683  13.313   3.381  15.113 -0.0733  0.3356 -0.1301
22067W        W37684   1.899   8.858   3.546  0.0707 -0.0925  0.1177
22068W        W37685  14.962   7.043   3.114 -0.1425  0.1585  0.0935
22069W        W37686  17.928  13.001   2.191  0.3561 -0.0575  0.1025
22070W        W37687   4.374  10.927  15.241 -0.1146  0.2705  0.1964
22071W        W37688  13.146   3.446   0.802 -0.2188  0.2174  0.2078
22072W        W37689   9.608   2.564  15.980 -0.0763  0.0313 -0.1704
22073W        W37690   9.999  16.795  11.010  0.0207  0.1280 -0.0801
22074W        W37691   4.480  16.913   4.357 -0.1393 -0.2355 -0.1278
22075W        W37692   0.006   6.889  15.582 -0.0900  0.2065  0.2620
22076W        W37693   6.039   6.260  12.732 -0.2281 -0.1606 -0.2127
22077W        W37694   6.599   1.322  15.481 -0.2306 -0.2377 -0.3875
22078W        W37695   5.171  17.333  11.992 -0.1768  0.3525  0.1521
22079W        W37696   8.876   3.082  15.689  0.2985  0.0313  0.2534
22080W        W37697   6.538   7.648  14.166  0.0516  0.0817  0.2518
22081W        W37698   7.618   8.630  12.791 -0.4024 -0.1742 -0.2827
22082W        W37699   7.029   7.400   2.731 -0.1113  0.4765  0.0825
22083W        W37700  17.787   8.454   2.506  0.1659 -0.0311 -0.4114
22084W        W37701   3.788   5.235   0.933  0.0298  0.2364 -0.2042
22085W        W37702   5.551  12.872   4.785  0.1551  0.2781 -0.0413
22086W        W37703   7.275   4.489   1.133  0.0064  0.0694  0.3219
22087W        W37704   1.212   6.127  12.637 -0.0930  0.0272 -0.1239
22088W        W37705   3.947  17.191  11.917  0.0867 -0.0467 -0.1696
22089W        W37706   2.772   1.635   4.961 -0.0140 -0.4923 -0.0612
22090W        W37707   6.731   8.165  14.201  0.3197 -0.1185 -0.0043
22091W        W37708  16.675   1.341   1.001  0.1470 -0.4192 -0.1337
22092W        W37709  17.326  16.266   4.667  0.1232  0.1337 -0.1206
22093W        W37710   3.219  17.943   0.286 -0.0039  0.2152  0.2657
22094W        W37711  10.056  17.822  12.663  0.0034 -0.1405 -0.2838
22095W        W37712  11.967  10.053  15.839 -0.3122 -0.1242  0.1090
22096W        W37713   2.762   9.298   2.218  0.3903 -0.1008 -0.1137
22097W        W37714  14.243   2.747   0.151  0.1026 -0.1504 -0.1469
22098W        W37715   9.278   5.404  13.452 -0.1060  0.1481 -0.2164
22099W        W37716   5.524   4.994   3.479 -0.2218  0.0894  0.0512
22100W        W37717  15.934   6.484  15.874  0.1489 -0.0426  0.0179
22101W        W37718  17.357  13.740   5.067  0.2250 -0.1109  0.1257
22102W        W37719   5.786   7.664  13.612  0.0798 -0.0597  0.1838
22103W        W37720  11.990   9.483   1.174 -0.2002  0.0792 -0.0527
22104W        W37721  18.311  17.642  15.237  0.2246  0.2141 -0.0018
22105W        W37722  15.760   3.017   4.795 -0.1442 -0.1658  0.0127
22106W        W37723  12.741  10.691   3.531  0.0174  0.4002  0.2809
22107W        W37724   6.818   5.278  12.089 -0.1531  0.2955 -0.1462
22108W        W37725   2.003  18.312   0.082 -0.2449  0.0503  0.0966
22109W        W37726  17.615   9.393  15.349 -0.1118  0.2125 -0.0810
22110W        W37727   3.119  10.563  15.688  0.2069  0.4024  0.1512
22111W        W37728   9.967  10.592   0.167  0.1942 -0.3248  0.0547
22112W        W37729  15.711  11.025   4.923 -0.2139 -0.2133 -0.0542
22113W        W37730  11.245   5.009  12.070 -0.3021 -0.0391  0.0019
22114W        W37731  13.979   4.777   4.154 -0.0096 -0.3848 -0.0881
22115W        W37732  14.269   3.226  15.491  0.0670 -0.2457 -0.1541
22116W        W37733   0.589   2.099  16.135  0.0226 -0.2311 -0.2742
22117W        W37734  10.410  14.511  13.513 -0.1004 -0.3506 -0.1649
22118W        W37735  18.445   8.866  15.102  0.1582 -0.2193  0.0079
22119W        W37736  13.000   4.842  12.893 -0.2238  0.1343 -0.0809
22120W        W37737   4.910   8.090  11.282  0.3154  0.5150  0.0065
22121W        W37738   9.291   0.676  15.608 -0.0919 -0.0465  0.2537
22122W        W37739  12.033   3.559  12.754  0.0694 -0.2286 -0.1155
22123W        W37740  15.100  11.716  15.617  0.1894 -0.2282  0.0153
22124W        W37741  17.377  14.381   3.791 -0.3909  0.1017 -0.3339
22125W        W37742  18.271   0.786   3.451  0.1278  0.0110  0.0513
22126W        W37743  15.848  11.088   3.911  0.2198  0.0947  0.0282
22127W        W37744   7.239  14.250  14.072 -0.1332 -0.0901  0.3050
22128W        W37745  17.932   0.085   1.528  0.1033  0.2225 -0.1848
22129W        W37746  12.293   0.681  11.030 -0.0966 -0.0989  0.2438
22130W        W37747   0.082   3.339   0.159 -0.0835  0.1034 -0.3425
22131W        W37748   6.106   5.194  13.681 -0.0230 -0.3332 -0.1082
22132W        W37749   6.551  11.231   4.553  0.7110 -0.3999  0.0840
22133W        W37750   5.738   5.423   4.407  0.2776  0.2754 -0.3985
22134W        W37751  14.677  12.870   1.311 -0.1383 -0.1967 -0.0460
22135W        W37752  16.725   9.913  14.705 -0.3126 -0.2111  0.1616
22136W        W37753  12.127   6.653   5.501  0.1115  0.0637 -0.1786
22137W        W37754   9.674  18.005  12.893  0.1839 -0.3423 -0.4257
22138W        W37755  15.302   6.101  11.918  0.0679 -0.2884  0.0812
22139W        W37756  10.989   8.717   0.203 -0.0804  0.3085 -0.0997
22140W        W37757   9.187   7.333   0.760  0.1767 -0.0614 -0.0084
22141W        W37758  11.625  18.125   3.353 -0.2070  0.4615  0.1752
22142W        W37759  15.817  10.720   3.452 -0.1787 -0.1004 -0.1846
22143W        W37760  15.136   6.940   0.095 -0.1080  0.3274  0.1922
22144W        W37761   7.192   4.061  11.758 -0.1861  0.0065  0.3180
22145W        W37762   7.453  14.751  14.941 -0.0685 -0.2578  0.1777
22146W        W37763  12.836  14.209   1.236 -0.0217 -0.0051 -0.3231
22147W        W37764   6.629   7.246  13.499  0.0903 -0.2822 -0.0364
22148W        W37765  14.472  12.195   5.148  0.2351  0.2427  0.3116
22149W        W37766  11.137   3.631   4.283  0.0614 -0.1996  0.1070
22150W        W37767   4.694  11.931   4.648 -0.1149 -0.1537 -0.2971
22151W        W37768  11.767   6.354  14.902  0.1318  0.0184  0.0505
22152W        W37769   0.877  12.438   5.320  0.2694  0.2224 -0.1840
22153W        W37770  14.420  13.342   4.231 -0.2396  0.1604  0.0452
22154W        W37771  16.059  10.266   3.295  0.2255 -0.0361 -0.0385
22155W        W37772  16.527  12.817   1.444 -0.0817 -0.2335 -0.1180
22156W        W37773   0.750   4.675  13.356  0.1526 -0.1661  0.0660
22157W        W37774   3.048  15.448  10.738 -0.1534 -0.0028  0.0532
22158W        W37775   8.706  14.351  13.208 -0.0249  0.1676 -0.2033
22159W        W37776   7.063   8.796   3.725 -0.4316 -0.0337 -0.1528
22160W        W37777   7.071   5.019   9.455  0.0221 -0.1056 -0.0267
22161W        W37778  17.385  17.791   5.021  0.6117 -0.0399  0.0566
22162W        W37779   3.136   4.461   1.248  0.0799 -0.1543  0.2759
22163W        W37780   2.642   5.710   2.921  0.0049  0.2138 -0.2131
22164W        W37781   6.930  15.087   4.747  0.0169 -0.0372 -0.0592
22165W        W37782   8.720   9.209   3.769  0.0010  0.0053 -0.1237
22166W        W37783   2.600  13.928   3.919 -0.3022 -0.1318 -0.4526
22167W        W37784  13.360   4.182   3.188 -0.1981  0.2688  0.2755
22168W        W37785  16.245   4.697  15.503  0.2136 -0.3951 -0.1096
22169W        W37786   4.176  11.418   1.009  0.3228  0.0180 -0.1050
22170W        W37787  15.603   4.386  14.651 -0.1411  0.0082  0.2771
22171W        W37788   8.201  12.879   3.509 -0.0986  0.1700  0.1528
22172W        W37789  13.101  14.832   1.279 -0.1599  0.0328 -0.1324
22173W        W37790   1.258   6.633  12.787 -0.3011  0.0861  0.1066
22174W        W37791  17.132   4.481  15.822 -0.0298  0.0729  0.3925
22175W        W37792   0.628   6.038  13.127 -0.1528 -0.0216 -0.0986
22176W        W37793  15.738   6.620  14.570 -0.0539 -0.0329  0.0500
22177W        W37794   5.460  11.247   1.228  0.0720 -0.0479  0.2541
22178W        W37795  13.467  11.249  11.747  0.0003 -0.2765 -0.1891
22179W        W37796  13.924   9.221   2.192  0.1164 -0.1718 -0.1548
22180W        W37797   1.131  16.466   2.080 -0.1890 -0.1042 -0.1709
22181W        W37798  16.810   6.362   0.872 -0.0047  0.1287  0.1115
22182W        W37799  14.388   5.174   4.791  0.3071  0.2072  0.0744
22183W        W37800   3.821  13.829   1.295  0.3166 -0.3058 -0.1939
22184W        W37801   7.257   0.300   3.188 -0.1113  0.0395  0.2007
22185W        W37802  10.302   0.535  14.144 -0.1714  0.3513  0.4099
22186W        W37803  16.743   1.460   5.020  0.2635  0.1393 -0.0418
22187W        W37804   1.488  13.902  15.761 -0.0745  0.0586  0.3011
22188W        W37805   4.206  11.525  14.542  0.2406 -0.3147  0.0057
22189W        W37806   2.798  15.896   2.260  0.1387 -0.0033  0.0105
22190W        W37807   4.094  13.602  14.081 -0.0540  0.0549 -0.0088
22191W        W37808   3.859  12.049  11.736 -0.1182  0.2892  0.2469
22192W        W37809   0.599  12.215  12.334 -0.2068  0.2941  0.0687
22193W        W37810  12.121  10.559   2.695  0.2250  0.1042  0.4246
22194W        W37811   1.651  11.930   0.593 -0.0037 -0.0141  0.1607
22195W        W37812  17.694  17.354   2.644 -0.0638  0.1090 -0.0979
22196W        W37813  12.091   9.843   5.115 -0.1667 -0.3379  0.3185
22197W        W37814  15.405  10.445  13.786  0.0045 -0.1009  0.0789
22198W        W37815   5.363   0.431   4.629  0.0384  0.0498  0.1087
22199W        W37816  16.904  18.126   5.971  0.0162  0.0203  0.0221
22200W        W37817   7.774   4.688   0.034  0.0376 -0.4308 -0.2662
22201W        W37818  14.705   6.542   4.522  0.2944 -0.2666  0.0352
22202W        W37819   9.177  16.739  12.909  0.2386  0.0330  0.2002
22203W        W37820  13.950   7.747   5.347 -0.2597 -0.2833 -0.3212
22204W        W37821  16.532   6.455   5.212  0.0334  0.2880 -0.3435
22205W        W37822  16.697  17.179  15.763 -0.0208 -0.2102  0.0499
22206W        W37823  17.030   9.911   2.163  0.1463  0.0575  0.2487
22207W        W37824  12.890   7.176  12.782  0.2469  0.0530 -0.4896
22208W        W37825   5.169   4.201   1.910 -0.0673 -0.0739  0.1059
22209W        W37826  12.028   0.187   6.261 -0.2649 -0.0236 -0.2412
22210W        W37827   1.078   4.908  12.414  0.3879 -0.5698  0.0814
22211W        W37828  15.387  11.194   4.152  0.1150 -0.0154 -0.1559
22212W        W37829  14.318  16.754  15.951 -0.3469 -0.1160 -0.1106
22213W        W37830   4.654   4.503   4.654 -0.1066 -0.0950 -0.1069
22214W        W37831   1.900  17.032   1.562 -0.3329  0.1644 -0.3496
22215W        W37832  15.578  12.622   4.629 -0.0222  0.2181 -0.1073
22216W        W37833   9.470   2.022  15.652  0.3988 -0.0784  0.0570
22217W        W37834   5.286  12.436  14.620  0.2214 -0.2969 -0.2166
22218W        W37835   5.795   0.222  15.123  0.1763 -0.5604 -0.4985
22219W        W37836  15.601  17.992  14.418 -0.5656  0.2561  0.1241
22220W        W37837  11.210   2.806  14.083 -0.2122  0.1729  0.0288
22221W        W37838  12.662   5.091  13.494  0.1665 -0.0735  0.0095
22222W        W37839  14.719  13.703   1.323 -0.3927 -0.1608 -0.0258
22223W        W37840   8.381  15.334   1.692 -0.0163  0.1849 -0.1846
22224W        W37841   2.422   8.913  15.770  0.0898 -0.1330 -0.0730
22225W        W37842   2.019   9.711  11.427 -0.0707 -0.1540 -0.3619
22226W        W37843  11.259  15.655   2.534 -0.2435  0.1253 -0.3542
22227W        W37844  12.390   5.562   5.773  0.3242 -0.2121 -0.2623
22228W        W37845  10.896   4.852  11.085 -0.0440 -0.1374 -0.3962
22229W        W37846   3.083  10.229   3.086  0.1859  0.1387 -0.0529
22230W        W37847   0.931   7.647   1.394 -0.1049 -0.0625  0.0076
22231W        W37848   6.808   0.686   0.243  0.1714 -0.0635  0.0537
22232W        W37849   5.914   9.483  13.479  0.3433 -0.1050 -0.0318
22233W        W37850  17.050   8.878   5.008 -0.0234 -0.3756 -0.1897
22234W        W37851   9.594   0.902  12.430 -0.0942  0.0102 -0.1711
22235W        W37852  17.115  12.597  12.710 -0.0798 -0.1345 -0.2684
22236W        W37853  14.812  15.451  12.386 -0.0861 -0.1105 -0.3588
22237W        W37854   2.632  13.800   2.268  0.2533 -0.2040  0.1437
22238W        W37855   3.981   5.515  14.607 -0.1805 -0.1412 -0.2342
22239W        W37856  14.559  13.305  10.998 -0.0132 -0.0104 -0.0513
22240W        W37857   3.591   9.822  11.683  0.2389 -0.1695  0.1428
22241W        W37858   9.933  12.465  12.622  0.4575  0.1458 -0.1296
22242W        W37859  17.276  15.309  15.335 -0.0659 -0.1668  0.1300
22243W        W37860  12.018   2.409  11.196 -0.3414 -0.0265 -0.1354
22244W        W37861   8.487  17.497   2.720  0.1274 -0.0143  0.0221
22245W        W37862   2.638   9.672  13.930 -0.3459 -0.0163  0.0752
22246W        W37863   8.441  11.500   5.156 -0.0506  0.1454 -0.0796
22247W        W37864  11.577   5.720   3.993 -0.1250  0.0219  0.2957
22248W        W37865  16.243   2.912   3.648  0.1873 -0.0819 -0.0452
22249W        W37866   3.231  15.950  11.994 -0.3724 -0.0703  0.0218
22250W        W37867   4.372   5.124  10.799 -0.2288 -0.1665 -0.1856
22251W        W37868  16.851  15.760  11.694  0.0770 -0.0422 -0.2020
22252W        W37869  15.314  17.346  11.163  0.1160  0.1510 -0.0624
22253W        W37870  13.782  11.120  14.113  0.2996 -0.1078  0.0143
22254W        W37871   5.167   8.526  12.038  0.0334 -0.1335 -0.0182
22255W        W37872   6.250  11.747   4.066  0.0299  0.0459 -0.3310
22256W        W37873  12.601   9.308  15.632  0.0416  0.1751 -0.1000
22257W        W37874  16.091  14.707  11.837  0.0246  0.1897  0.1790
22258W        W37875   7.557   0.880  14.613 -0.0815 -0.0353 -0.0447
22259W        W37876   7.513   2.916  11.402 -0.1316  0.0187  0.2608
22260W        W37877   8.886   2.315   0.912  0.0478 -0.0901 -0.3777
22261W        W37878   7.787   5.821  15.298  0.1395  0.0113  0.0482
22262W        W37879   1.660   3.640   2.961 -0.2755  0.2419 -0.0861
22263W        W37880  10.910  13.688   6.029 -0.0226 -0.3336 -0.0659
22264W        W37881   5.130   8.818  15.340  0.0194 -0.2041  0.2360
22265W        W37882   9.984  13.176   1.600 -0.3152 -0.1001 -0.0614
22266W        W37883   0.308  15.061   2.888  0.1106  0.0203  0.0893
22267W        W37884   3.006  14.391   2.210  0.3865 -0.0465 -0.2910
22268W        W37885   1.364   1.053   1.218  0.1647 -0.3449 -0.1393
22269W        W37886   1.913  15.651  15.501 -0.0560  0.0467  0.0586
22270W        W37887   7.238  10.676   4.452  0.1902 -0.0215  0.1377
22271W        W37888   2.590  17.106   0.727  0.2957 -0.3277  0.0581
22272W        W37889  14.423  16.874  14.242 -0.3108  0.1425 -0.1513
22273W        W37890  13.097   4.423  10.936 -0.0255  0.0505  0.1385
22274W        W37891   5.487  10.254  14.163  0.4182 -0.0856 -0.0605
22275W        W37892   3.139  10.814   1.824 -0.1078 -0.0941 -0.1785
22276W        W37893   9.039   9.360  11.348  0.5150  0.0483  0.0753
22277W        W37894  15.761   5.853  12.837  0.1470 -0.0068 -0.0893
22278W        W37895  12.395   8.482   1.513 -0.0617  0.1409  0.2389
22279W        W37896   9.856   9.598  12.080 -0.2202 -0.0786 -0.1176
22280W        W37897  14.113  14.921  10.304  0.1120 -0.3335  0.2466
22281W        W37898   2.443  16.532   0.027 -0.1470  0.2606 -0.0817
22282W        W37899   6.350  15.725   4.656 -0.1692  0.3280 -0.1266
22283W        W37900   4.765  16.019   4.508 -0.2303 -0.0972 -0.0992
22284W        W37901   1.678  16.855  15.190  0.0198 -0.0688  0.2598
22285W        W37902  10.801  17.373  10.959  0.0829  0.1048  0.2860
22286W        W37903  11.051  10.312  15.633  0.0287  0.4110 -0.0182
22287W        W37904  10.553   2.832  15.881  0.1037  0.0448 -0.0561
22288W        W37905  17.614  14.195  12.235 -0.1148 -0.3148  0.1467
22289W        W37906   0.418   9.148  13.497  0.0728  0.0376 -0.1522
22290W        W37907  16.271   8.529  13.384  0.1603  0.1368 -0.2227
22291W        W37908  15.226   6.621  11.677 -0.0624 -0.0310 -0.2716
22292W        W37909  12.199  11.642  12.622 -0.1121  0.0999  0.1531
22293W        W37910   3.175   0.003   3.769  0.0469  0.0931 -0.1452
22294W        W37911   9.491   4.930   0.832 -0.1230 -0.0502 -0.1614
22295W        W37912  12.357   2.937   3.168  0.0657 -0.2619  0.2080
22296W        W37913   4.859   7.701   2.182  0.0214  0.1493 -0.2622
22297W        W37914  18.308   5.303   1.573 -0.1438  0.0180  0.3046
22298W        W37915   4.457   7.407   4.013  0.0390 -0.0927  0.2297
22299W        W37916   7.498  15.785  13.028 -0.0412 -0.2749 -0.0216
22300W        W37917   8.230   2.592  12.715 -0.1689 -0.0874  0.3530
22301W        W37918  18.398   7.295  14.800 -0.3081  0.3039  0.1444
22302W        W37919  15.970  13.111  11.759 -0.3070 -0.0342 -0.2990
22303W        W37920   8.100   3.708  11.012  0.1071  0.2233 -0.3737
22304W        W37921   1.204   8.989  11.170  0.3096  0.1433 -0.1026
22305W        W37922  17.354   6.474   5.530 -0.0592  0.2772 -0.0833
22306W        W37923   9.963   3.474   2.357 -0.0877  0.1564  0.3364
22307W        W37924  11.944  15.819   3.937  0.1261  0.1433 -0.1387
22308W        W37925   9.497  17.832   1.711  0.0411 -0.0519  0.2625
22309W        W37926   8.760   7.142  12.963  0.2171  0.1805 -0.1508
22310W        W37927   2.236  10.623  12.594  0.2907 -0.2014 -0.2241
22311W        W37928   1.351  16.875   4.078 -0.1008  0.0407  0.0188
22312W        W37929   5.035   7.711  12.091  0.1176 -0.0742 -0.4716
22313W        W37930   9.764   1.766  12.187  0.4246  0.1282  0.0643
22314W        W37931   6.478  12.413  14.693  0.0129 -0.0423  0.3790
22315W        W37932   3.339  11.955   4.480 -0.0515  0.2098  0.0608
22316W        W37933  11.658   8.176  14.416 -0.0479  0.0731  0.1805
22317W        W37934   3.193   3.354   0.357  0.1433 -0.2453 -0.0923
22318W        W37935   5.973  14.917   4.306  0.4178  0.3491  0.1449
22319W        W37936   9.762   3.078   1.473 -0.1275 -0.1738  0.1875
22320W        W37937   6.324  14.993  13.225  0.0381  0.4052 -0.0174
22321W        W37938  16.802  10.030  13.682  0.2091 -0.1169 -0.0934
22322W        W37939   7.967   3.360   1.121  0.0793  0.0053 -0.0081
22323W        W37940  13.155  15.864  14.550 -0.0725 -0.1015 -0.1906
22324W        W37941   3.487  10.401  13.607  0.5309  0.0238 -0.1285
22325W        W37942   3.006   3.685  14.460 -0.0953 -0.0023 -0.0835
22326W        W37943   6.004  14.920   4.867  0.0573 -0.1978  0.2246
22327W        W37944   9.326  17.069   2.383  0.2197  0.1096 -0.1049
22328W        W37945   1.234   7.898  11.862  0.0795 -0.0140 -0.2812
22329W        W37946  14.227  13.985  14.845  0.1467  0.0286 -0.0826
22330W        W37947   1.903   1.188   4.392  0.2502 -0.0606 -0.1067
22331W        W37948   6.706  15.115  16.031  0.0533 -0.0497  0.4091
22332W        W37949   2.048   9.357   3.236 -0.2602 -0.2384 -0.1429
22333W        W37950   9.688  18.097   4.860 -0.1355 -0.1149 -0.0032
22334W        W37951  15.884  15.794   4.328  0.2838 -0.2990 -0.0918
22335W        W37952  13.026  15.595   3.878 -0.0169  0.2246 -0.0415
22336W        W37953  10.475  15.398   4.993 -0.0584  0.1248 -0.0162
22337W        W37954   3.897   6.142   4.710  0.0850 -0.0730  0.1179
22338W        W37955  13.720  14.353  14.028 -0.0273 -0.1942  0.1381
22339W        W37956  10.686   6.963  15.374  0.0778  0.1029  0.1705
22340W        W37957  13.637   2.387   2.301 -0.1581  0.0019  0.0582
22341W        W37958  18.432   9.703   5.222  0.1190 -0.1513 -0.0650
22342W        W37959   1.031  12.104  15.893 -0.2005  0.1745 -0.0159
22343W        W37960   8.446  17.101   4.087 -0.1712  0.3856  0.1470
22344W        W37961  12.902   8.523  12.867 -0.3066  0.1201  0.0350
22345W        W37962  12.185   1.477   3.759 -0.0690 -0.0105  0.0953
22346W        W37963   8.466   0.424   6.023 -0.2689  0.2519 -0.1300
22347W        W37964   7.441  14.339   5.423 -0.2495 -0.0108  0.2689
22348W        W37965   3.031  10.561   4.267 -0.0836 -0.1550 -0.0747
22349W        W37966   3.908  14.067   3.768  0.0834 -0.0589 -0.3117
22350W        W37967   7.554   7.888  15.115  0.2391 -0.0688 -0.0331
22351W        W37968  12.609  12.071   6.285  0.4387  0.3589 -0.4264
22352W        W37969   4.502  10.126  11.813  0.2339  0.0124  0.4092
22353W        W37970  14.565   1.091   1.522 -0.0954  0.0609 -0.2972
22354W        W37971   6.775   7.678  13.210  0.0114  0.0599  0.2203
22355W        W37972   1.140   7.688   2.341 -0.0257 -0.1036  0.1110
22356W        W37973  15.500   1.874  15.038 -0.0333 -0.2471  0.0665
22357W        W37974  10.469   8.655   0.043  0.0661 -0.1096 -0.2752
22358W        W37975   4.223  16.126   1.996 -0.2314 -0.1230  0.1570
22359W        W37976  12.926  16.564   6.531 -0.3536 -0.1453 -0.4069
22360W        W37977   7.413   8.118   0.553 -0.3571  0.0097  0.0969
22361W        W37978   1.586   9.752  11.716 -0.2012  0.0667 -0.0431
22362W        W37979  10.003   3.579   3.279  0.1925 -0.3802  0.0793
22363W        W37980   6.997   0.953  14.537 -0.0671  0.2370 -0.1663
22364W        W37981   1.946   9.292  12.910 -0.1590  0.0902  0.0023
22365W        W37982   8.650   0.173   2.482  0.1632 -0.0186 -0.0739
22366W        W37983  14.213  15.610   5.536  0.1752  0.1679  0.0214
22367W        W37984  17.771   7.878  13.579  0.2391 -0.2823 -0.0013
22368W        W37985  12.533  15.768   2.148  0.0589 -0.2808  0.0926
22369W        W37986  11.143  13.985  11.899 -0.0234 -0.1826  0.3498
22370W        W37987  14.288   6.585   2.026 -0.2003  0.0631  0.1042
22371W        W37988  16.795  10.853   1.525  0.1486 -0.0682 -0.3773
22372W        W37989  15.641   7.255  14.931 -0.0873 -0.0712  0.0186
22373W        W37990  12.714   4.025   2.593  0.3057  0.1060  0.0245
22374W        W37991  18.344   1.404  11.812  0.3561 -0.1218 -0.1900
22375W        W37992   2.153  14.657  12.413 -0.1854  0.1911  0.2399
22376W        W37993  16.442  11.472  11.765  0.2809 -0.0484  0.0097
22377W        W37994  15.107  17.164   1.017 -0.0665 -0.0048 -0.1810
22378W        W37995  15.688   6.507  13.072 -0.3478  0.0171  0.0537
22379W        W37996  12.670   3.565   4.306 -0.0732  0.0208  0.0306
22380W        W37997   2.561   5.229  11.707 -0.3411 -0.0374 -0.1648
22381W        W37998   3.274   1.553   3.434  0.0622 -0.1431 -0.2560
22382W        W37999  12.327  17.021  12.176  0.1036  0.0419  0.2948
22383W        W38000  11.407  13.546   0.933 -0.3812 -0.0117  0.1518
22384W        W38001  12.560   4.614   0.226  0.1742  0.1721 -0.2325
22385W        W38002  16.637   9.385   1.570  0.1662 -0.5040  0.0169
22386W        W38003   5.570  16.794   4.914  0.3764  0.1840  0.3101
22387W        W38004   9.421   7.178   2.712  0.0312 -0.1210 -0.1503
22388W        W38005   5.747  10.346   1.225 -0.3372  0.0060  0.2195
22389W        W38006  13.351  15.298  13.264 -0.0286  0.1599 -0.0748
22390W        W38007  14.593   6.607   5.769 -0.3727  0.0107  0.2057
22391W        W38008   2.012  12.710   0.673 -0.1808  0.0214 -0.3601
22392W        W38009   1.025   3.572  11.009 -0.1841  0.0901  0.0913
22393W        W38010  11.339  15.149   1.718  0.0577  0.1259  0.0890
22394W        W38011   4.247  18.045   5.342 -0.0579  0.1841 -0.0212
22395W        W38012  14.222   0.338   3.810 -0.0739 -0.2483 -0.0957
22396W        W38013   8.391   6.288   1.030  0.0389 -0.2532 -0.1368
22397W        W38014  15.153   6.061   2.131 -0.0429 -0.2328 -0.0096
22398W        W38015   3.893  10.433  12.291 -0.0543 -0.0896 -0.0150
22399W        W38016   6.169  12.431  15.919 -0.0002 -0.0171 -0.4335
22400W        W38017  10.953   3.824  13.257 -0.2535  0.0004 -0.2411
22401W        W38018   5.825   1.482   2.828 -0.1985  0.2425 -0.3481
22402W        W38019   8.707   1.471   2.938  0.0652  0.1056  0.1947
22403W        W38020  15.570   0.228  12.583 -0.1783 -0.0829  0.0605
22404W        W38021   8.431   0.384  12.779 -0.3046 -0.1363  0.2003
22405W        W38022  10.312  15.474   2.750  0.0103  0.0481  0.1046
22406W        W38023   0.596   9.279  14.351  0.0434  0.1793  0.4400
22407W        W38024   1.354  13.487   3.209 -0.0513  0.0978  0.2982
22408W        W38025   0.529   4.888  15.428 -0.0516 -0.1614  0.1373
22409W        W38026   0.476   5.850  14.004  0.0608  0.1419  0.0591
22410W        W38027   9.732   2.672  15.330 -0.0692  0.0172  0.1480
22411W        W38028  14.196   0.501  15.398 -0.0494  0.1989  0.1452
22412W        W38029   1.080  14.773  15.486  0.0675  0.2237  0.0426
22413W        W38030   6.579  14.700  15.688  0.0069  0.3058  0.0185
22414W        W38031  11.905   2.627   1.752 -0.0091  0.0978  0.1404
22415W        W38032   4.463  11.830  12.626 -0.3032 -0.2571 -0.1846
22416W        W38033   4.358  14.059   3.999  0.2427  0.0257 -0.2822
22417W        W38034   9.007   1.515   4.458 -0.0020 -0.0650  0.0765
22418W        W38035   7.599   7.370   1.825  0.1744  0.2736  0.4031
22419W        W38036  10.930  12.774   6.356 -0.0286 -0.0025 -0.4191
22420W        W38037   2.679   1.862   4.003 -0.0499  0.0893  0.1514
22421W        W38038   4.117   5.406  12.439  0.3006 -0.0972 -0.3091
22422W        W38039  10.747  10.236   1.312 -0.2512  0.1770  0.0837
22423W        W38040   0.266   6.051  14.421  0.1850  0.0590  0.0813
22424W        W38041  17.258   8.885  12.957  0.0870 -0.2473  0.0148
22425W        W38042  10.754  12.252   2.187  0.0248 -0.1148  0.3095
22426W        W38043   9.622  12.975   3.998  0.2220 -0.2929 -0.2450
22427W        W38044   7.713  13.537   3.297 -0.1836 -0.0488  0.0218
22428W        W38045   0.716   2.970  15.149  0.1092 -0.0290  0.0033
22429W        W38046   1.758  14.340   5.179 -0.0528 -0.1439  0.0397
22430W        W38047  17.818   2.548  15.648 -0.0238  0.1620 -0.0134
22431W        W38048  13.676  14.461  11.059  0.1051  0.0460 -0.0017
22432W        W38049   3.839   0.959   0.658 -0.0562  0.3786 -0.0998
22433W        W38050   1.173   1.601  15.642  0.0704  0.2439  0.0997
22434W        W38051   3.901   8.399   2.227 -0.1497 -0.1237 -0.3626
22435W        W38052   6.933   0.630  11.491  0.2409 -0.0664 -0.3121
22436W        W38053   8.415  14.077   1.359  0.2080  0.0431  0.2477
22437W        W38054  15.716  17.046  11.427 -0.1584 -0.1461 -0.3161
22438W        W38055   0.658   4.042  13.499 -0.1673  0.3031 -0.4058
22439W        W38056   3.889  15.091   0.571  0.3190  0.3136  0.1406
22440W        W38057   2.540  17.466   0.335 -0.3190  0.3621 -0.2201
22441W        W38058   8.385  14.851   1.514  0.0701  0.1427  0.1191
22442W        W38059   7.908  18.094   1.489  0.1016  0.2322  0.2908
22443W        W38060   9.066   0.573  14.200 -0.1264 -0.0767 -0.1986
22444W        W38061   8.319  12.024  11.427 -0.1183  0.5749 -0.0841
22445W        W38062  16.732   3.057   3.669 -0.1315 -0.0191  0.1426
22446W        W38063   9.133  10.416   5.119  0.1263  0.1404  0.0194
22447W        W38064  13.690   3.876   2.860  0.0606  0.0800  0.0725
22448W        W38065  14.134  13.080  11.121 -0.1879  0.0042  0.1114
22449W        W38066  13.527  15.966  14.130  0.0793  0.1111 -0.0362
22450W        W38067  14.913   5.021   3.732 -0.1536 -0.2485 -0.1694
22451W        W38068   9.264  11.970   5.533 -0.1329  0.0371  0.2132
22452W        W38069   3.792  10.658  14.427 -0.0359 -0.2019 -0.0887
22453W        W38070   3.433  12.815   4.103 -0.0343 -0.1179  0.2694
22454W        W38071  17.712  18.073  14.409  0.0044  0.1722 -0.1105
22455W        W38072  11.926   0.057  12.530 -0.0752  0.2207 -0.0231
22456W        W38073  18.208   5.160  11.929  0.0416  0.0204 -0.1413
22457W        W38074   1.623   7.645  13.551 -0.0150 -0.3109 -0.2981
22458W        W38075   2.426   7.785  11.957  0.3020 -0.0748 -0.2040
22459W        W38076   9.278   0.963   2.582  0.0338 -0.0804 -0.2943
22460W        W38077  13.599   3.182   2.349  0.2853 -0.0527  0.2334
22461W        W38078   1.663   2.156   5.216  0.0376 -0.2537 -0.0541
22462W        W38079   4.806   1.744  11.591 -0.0571 -0.2807  0.1304
22463W        W38080   8.846   1.462  16.069  0.1888  0.3202 -0.0194
22464W        W38081   7.799   6.001  12.183  0.1587  0.0402 -0.0026
22465W        W38082   0.797   3.842  11.835 -0.0295 -0.0745 -0.0170
22466W        W38083   1.704   9.837  14.221 -0.2556 -0.0040 -0.2049
22467W        W38084   1.591   0.738   4.308 -0.1940 -0.1262 -0.0406
22468W        W38085   1.860  11.298   1.775  0.0218  0.4236  0.0464
22469W        W38086  16.099   5.256   2.618  0.2071  0.0362  0.0892
22470W        W38087  13.965  15.398  13.291 -0.5160  0.1723  0.2006
22471W        W38088   2.381  10.810   4.977 -0.1694  0.2274  0.0806
22472W        W38089   3.679  12.587  14.911 -0.0039 -0.0526 -0.0472
22473W        W38090   2.944   3.341   2.917  0.2415 -0.1978 -0.0077
22474W        W38091   1.829  11.868  16.076  0.1855  0.2322  0.3195
22475W        W38092  15.574  14.965   1.521  0.4366 -0.0561  0.2764
22476W        W38093   8.262   2.868  14.836  0.4320  0.1154  0.0062
22477W        W38094   4.283  10.576   2.482  0.2296 -0.4912  0.0546
22478W        W38095   2.425  14.666   3.274  0.0164 -0.2408  0.1016
22479W        W38096   9.855  10.071   0.285  0.0790 -0.1300 -0.1752
22480W        W38097   2.469   0.497   0.544 -0.1154  0.3464 -0.1474
22481W        W38098  15.200  12.677  13.898 -0.2632 -0.0777  0.4457
22482W        W38099  16.322  16.382  14.287 -0.0356 -0.0098  0.1934
22483W        W38100   8.315  12.106  15.556  0.1487  0.0144 -0.3599
22484W        W38101  17.828  10.184   0.233  0.2002  0.0592  0.0273
22485W        W38102  16.652  16.824  13.382 -0.0971  0.2629 -0.0054
22486W        W38103  15.959  16.868   3.684 -0.1080 -0.3521  0.1616
22487W        W38104   7.394   5.529  15.512  0.0308 -0.5147 -0.2116
22488W        W38105  18.225  15.783  14.050 -0.1045  0.1863 -0.0371
22489W        W38106  10.302   9.970   0.650 -0.2891 -0.0947  0.1549
22490W        W38107   3.521   5.365  14.620 -0.0056  0.1983  0.2503
22491W        W38108   3.154  15.391  12.565  0.0563 -0.3397  0.0938
22492W        W38109   3.091  15.686   3.228  0.4068  0.4058  0.1036
22493W        W38110   7.643   2.806   0.889 -0.0244 -0.0954  0.1067
22494W        W38111  12.368   7.640  11.898  0.1086 -0.1958 -0.1067
22495W        W38112   9.092  17.903   0.933 -0.0940  0.0154  0.0058
22496W        W38113  16.536  10.642   1.887 -0.0503  0.1027 -0.0901
22497W        W38114   8.865   1.366  12.126  0.2815  0.2335  0.1196
22498W        W38115   0.819  14.003   3.993  0.1076  0.0228 -0.1801
22499W        W38116  15.250  13.603   5.746 -0.0652  0.0796 -0.0173
22500W        W38117  11.524   0.097   1.350  0.2800 -0.1724  0.0082
22501W        W38118  17.074   9.887  13.261 -0.2443 -0.2243 -0.0215
22502W        W38119   2.704  16.737  15.777  0.2524  0.1039 -0.0917
22503W        W38120   0.728   7.368  15.517  0.3927 -0.0446  0.1632
22504W        W38121  10.354   5.969  11.962  0.2604  0.2718 -0.2709
22505W        W38122  11.557  16.947  12.134  0.1172  0.1337  0.0817
22506W        W38123   8.124   9.214  13.186 -0.0162  0.2442 -0.2543
22507W        W38124  10.336   4.871  15.117  0.1281  0.0655 -0.3892
22508W        W38125   4.022  12.414   4.060  0.1209 -0.1456 -0.1127
22509W        W38126  18.122  16.170   5.079 -0.0139 -0.1317  0.3975
22510W        W38127  13.822  14.361   3.541 -0.4348 -0.0061  0.0772
22511W        W38128  13.676   0.901   3.653 -0.1136 -0.0447 -0.2847
22512W        W38129  16.526  12.401   2.331  0.1249  0.0029  0.0063
22513W        W38130   6.551   1.416   3.587 -0.1724 -0.0184  0.0887
22514W        W38131   7.788  10.044  13.390  0.2544 -0.0175 -0.0286
22515W        W38132   8.995  18.446  11.546 -0.1735 -0.1427  0.0028
22516W        W38133   2.411  12.622   2.200 -0.1321 -0.1992  0.1419
22517W        W38134   6.790  18.423  14.318  0.4732 -0.0477  0.0830
22518W        W38135  10.271   5.608   1.160  0.3357  0.1990  0.0044
22519W        W38136  11.195   4.874   0.121 -0.0057 -0.3640  0.0585
22520W        W38137  15.752   9.792  12.800  0.1003 -0.0271  0.2604
22521W        W38138   9.840  13.614  12.533  0.0412  0.0675 -0.1789
22522W        W38139   3.071   7.316   4.801 -0.1616  0.3230 -0.0180
22523W        W38140   0.114  13.275   0.644  0.0149  0.3373  0.2644
22524W        W38141   2.514   6.825  13.421 -0.0205  0.2385  0.1012
22525W        W38142  15.125   4.749  13.282 -0.1863 -0.0597 -0.0864
22526W        W38143  15.786  17.194  14.202  0.0715 -0.0372  0.1131
22527W        W38144  12.860   5.930  11.953  0.0278 -0.2591 -0.2645
22528W        W38145   9.013  16.003  12.224 -0.2205  0.0220 -0.0305
22529W        W38146   2.828   7.287   4.354  0.0361 -0.2003 -0.0204
22530W        W38147  12.487   5.725   0.611 -0.1695 -0.0154 -0.1329
22531W        W38148   0.605  11.039   3.667  0.2180  0.0523  0.1164
22532W        W38149  10.877  12.402  15.974  0.0908  0.0194  0.0280
22533W        W38150   9.884   7.044  14.602  0.2170  0.1942 -0.1592
22534W        W38151  17.090  15.873  15.309 -0.1162  0.2412  0.3363
22535W        W38152   3.479  17.560   0.542 -0.2988  0.0471 -0.1200
22536W        W38153   3.457   0.683   0.402 -0.0089  0.2305  0.0369
22537W        W38154  10.610   0.749  13.615  0.0946 -0.0887  0.3026
22538W        W38155   1.216   2.910   1.461  0.0570  0.0974 -0.0610
22539W        W38156   4.653  17.451   2.244  0.1504  0.0045  0.0705
22540W        W38157   2.967  15.869  13.017 -0.0153 -0.1819 -0.3042
22541W        W38158  11.407  10.678  10.624  0.2980 -0.0169  0.0262
22542W        W38159  11.304   1.332   0.025 -0.1036  0.0921 -0.0179
22543W        W38160   9.341  13.093   5.444 -0.0472 -0.3013 -0.0735
22544W        W38161  14.151   9.056   2.680 -0.0411  0.3933  0.1978
22545W        W38162   1.584  10.169   2.172 -0.1243  0.1588  0.2245
22546W        W38163   8.809  12.315  14.809  0.1762  0.1401  0.0798
22547W        W38164   3.498   9.538   1.837  0.1684  0.2438 -0.1748
22548W        W38165  13.827  17.800   3.473 -0.1060 -0.2446 -0.1287
22549W        W38166   3.605  17.730  16.115  0.2946  0.2885 -0.2376
22550W        W38167  15.613   1.267  14.042  0.4051  0.0346  0.1863
22551W        W38168   4.995  10.128  15.059 -0.1512 -0.0242 -0.3277
22552W        W38169  16.629   5.838  11.032 -0.0477  0.2844  0.0742
22553W        W38170  10.263   7.654  15.144 -0.0647  0.0237 -0.1361
22554W        W38171  11.236   6.199  11.803 -0.1224 -0.1184  0.0825
22555W        W38172   7.558   4.794   4.765 -0.1298  0.0161 -0.0324
22556W        W38173   1.024  14.459   2.743  0.1249  0.0138 -0.2937
22557W        W38174  13.611  10.799  15.274 -0.1016  0.2430 -0.1083
22558W        W38175   9.080  10.343   0.676 -0.0106  0.1291  0.2850
22559W        W38176   6.793  14.312   1.851  0.0583 -0.5218 -0.0885
22560W        W38177  12.086  12.029   0.074  0.0623  0.3336 -0.0377
22561W        W38178  11.261  12.394  11.853 -0.1216  0.3576 -0.1940
22562W        W38179  10.940   9.633  12.126 -0.0477  0.1474  0.0257
22563W        W38180  11.280  14.546  13.274  0.0512 -0.4661 -0.1952
22564W        W38181  11.113   7.489  13.718  0.0266  0.0431  0.2911
22565W        W38182   5.897  13.010  15.311  0.0529  0.1768 -0.4316
22566W        W38183   0.797  17.955   4.721 -0.1463  0.0651 -0.0112
22567W        W38184  10.979   9.867  13.429 -0.0599  0.1754 -0.0936
22568W        W38185   2.697   9.709  13.233  0.5425  0.0003 -0.0003
22569W        W38186   4.481  13.554  14.441 -0.0320 -0.0339  0.2424
22570W        W38187  14.594   6.419   1.194  0.0420 -0.3381 -0.1724
22571W        W38188  17.215   4.470  12.682 -0.0543  0.0975 -0.1097
22572W        W38189   8.754  14.287  14.677 -0.1246  0.2075 -0.1201
22573W        W38190  13.469  17.262   4.136  0.1003 -0.0368  0.0479
22574W        W38191  15.179   3.751   2.225 -0.0606 -0.0039 -0.2134
22575W        W38192   3.495   7.825  12.275 -0.2072 -0.0821 -0.4391
22576W        W38193   5.150   8.759  13.993 -0.0000  0.1459  0.2539
22577W        W38194   1.945   9.611  12.504 -0.0119  0.1668 -0.3678
22578W        W38195   2.508   8.040   2.867 -0.1507 -0.0846 -0.0339
22579W        W38196   4.914   9.893  11.561  0.0392  0.2974  0.1524
22580W        W38197   9.396  13.114  14.150 -0.0778  0.0640  0.1760
22581W        W38198   5.234   9.533  11.016 -0.2155  0.1501  0.0367
22582W        W38199  17.499  15.281   6.596  0.2045  0.1924  0.0109
22583W        W38200   1.266  13.971  11.603  0.0502 -0.1787  0.1001
22584W        W38201   8.206   1.593  13.319 -0.1169 -0.0614 -0.1209
22585W        W38202   1.358  10.439  10.494 -0.2634 -0.1553 -0.2716
22586W        W38203  11.297  13.324   4.432  0.0174  0.1567 -0.0986
22587W        W38204   5.193  11.795   0.404 -0.0887  0.0355 -0.1364
22588W        W38205   7.295  10.256  14.153 -0.0810  0.0393  0.0556
22589W        W38206  14.714   5.442  12.131 -0.0188  0.0557  0.2506
22590W        W38207  14.218   2.723   5.361  0.2092 -0.5755  0.2009
22591W        W38208   6.137  12.984   6.813  0.0080 -0.2152  0.1646
22592W        W38209   7.106  10.205   2.647 -0.0534 -0.2614 -0.0258
22593W        W38210  11.508   2.453   1.265 -0.4187 -0.1502 -0.2028
22594W        W38211   9.008  15.961  15.273  0.4753  0.0382 -0.0391
22595W        W38212  11.575   7.300  14.051 -0.0182  0.0483 -0.2603
22596W        W38213   7.597   4.210   5.480 -0.0873 -0.2194 -0.3247
22597W        W38214   7.544   8.672   3.531  0.2586  0.0105 -0.0534
22598W        W38215   4.831  12.039   3.208  0.2206  0.0382 -0.1003
22599W        W38216  15.868  16.427  12.923  0.1688  0.1803 -0.1087
22600W        W38217   4.838  16.105   5.399 -0.0501  0.0559 -0.2615
22601W        W38218   6.568  11.680   2.062 -0.4084 -0.1161  0.0328
22602W        W38219  15.929   7.873   4.501  0.1907 -0.0404  0.0060
22603W        W38220  17.932   3.931  13.167  0.2841 -0.0015  0.1885
22604W        W38221   3.587   4.812  14.607 -0.0104  0.0688 -0.0385
22605W        W38222  12.683   2.026   0.006  0.0492  0.1623  0.2861
22606W        W38223  11.877   5.955  15.163  0.0638  0.1213  0.1171
22607W        W38224   9.945   1.246   1.743 -0.1485 -0.1449  0.2603
22608W        W38225   7.672  14.822   4.824  0.1276  0.1678  0.0363
22609W        W38226  16.679   2.230  12.826  0.2210 -0.2563 -0.1732
22610W        W38227   6.615   9.265  11.557  0.0432 -0.0898  0.0974
22611W        W38228   6.884  16.789  14.673  0.2658 -0.1318 -0.0041
22612W        W38229   5.921  11.380   0.995  0.2038  0.0391 -0.3801
22613W        W38230   7.649  17.616   2.136  0.1236  0.2332  0.1301
22614W        W38231   3.684   2.204   1.129 -0.0454 -0.0322 -0.3861
22615W        W38232  16.416   6.605  10.566  0.0306  0.2728  0.1195
22616W        W38233  18.079  10.954  12.420 -0.1778  0.0273 -0.4028
22617W        W38234   1.773  10.031   5.154  0.1346 -0.0802 -0.5673
22618W        W38235  12.637  11.530   4.230 -0.0222  0.2210  0.2653
22619W        W38236   5.499   1.477  13.390  0.1929 -0.0811  0.0501
22620W        W38237   9.477  11.162   3.750 -0.0262 -0.5572  0.2255
22621W        W38238   8.297  17.218  15.885 -0.1657 -0.1383 -0.0308
22622W        W38239  13.949  15.826   1.898  0.1044  0.1130 -0.2171
22623W        W38240   1.445   5.667  14.160  0.0807  0.3295  0.0889
22624W        W38241  10.386   2.536   2.495 -0.1438  0.0535  0.3086
22625W        W38242  16.237  16.904   2.393 -0.1507  0.1958  0.1192
22626W        W38243   3.846   9.608   0.658 -0.2297 -0.1423 -0.0131
22627W        W38244   4.727  12.524  14.129 -0.1042 -0.3199  0.0190
22628W        W38245  16.700   2.311   0.296 -0.4573  0.1474  0.0331
22629W        W38246  17.700  14.080   0.345 -0.0010  0.0509  0.2417
22630W        W38247   3.620  15.081  14.554 -0.0556  0.1454  0.1651
22631W        W38248   1.647  17.518  11.758  0.2307  0.2066 -0.2144
22632W        W38249   4.481   4.695  15.549  0.0352  0.0996 -0.0906
22633W        W38250   6.075   3.648   2.701  0.2822  0.2680  0.1624
22634W        W38251  18.383  11.770   3.601 -0.1287 -0.0692  0.3949
22635W        W38252   0.479  16.012  11.851 -0.0538  0.1124 -0.0878
22636W        W38253   3.527   7.741  15.167  0.1370 -0.1984  0.0088
22637W        W38254  11.928  11.982  13.801 -0.0041 -0.0453  0.2371
22638W        W38255  14.778  17.591  12.737  0.1160  0.1332 -0.2084
22639W        W38256   0.036   7.319   5.437 -0.0324  0.2109 -0.0849
22640W        W38257   7.730  13.010  15.481 -0.0641  0.2386 -0.2401
22641W        W38258  17.989  17.186  14.267  0.0192 -0.1384  0.0969
22642W        W38259  15.160  10.973   0.052  0.3951  0.2514  0.1285
22643W        W38260   8.909  13.552   0.276  0.2631  0.2852 -0.2885
22644W        W38261   7.378   1.823   3.375 -0.0725 -0.1501  0.1192
22645W        W38262  13.464   5.239  11.265  0.0168  0.0101 -0.2357
22646W        W38263   0.018   4.771  13.794  0.1790  0.1163 -0.2019
22647W        W38264  10.844   5.450   0.571  0.1618 -0.2000  0.2256
22648W        W38265  12.501  12.708   3.305  0.1331  0.1767 -0.1557
22649W        W38266   9.181   5.130  12.995 -0.1604 -0.1787  0.0551
22650W        W38267   2.792  11.380  13.066 -0.0521  0.0066 -0.0077
22651W        W38268   5.467  16.353  15.482  0.2072 -0.4755  0.0239
22652W        W38269  18.031  13.441  14.479  0.2996  0.3853 -0.2713
22653W        W38270  18.016   9.915  14.026 -0.0534  0.1405 -0.2157
22654W        W38271   4.853  13.166  13.676 -0.2458 -0.1334 -0.1264
22655W        W38272   3.643  13.639  12.410  0.0251 -0.1242  0.0962
22656W        W38273  17.848   0.889   5.443  0.2270 -0.0661 -0.0123
22657W        W38274   0.145   6.296   4.245 -0.0923 -0.0875 -0.0619
22658W        W38275  12.152  17.306  15.427  0.1163  0.2273  0.2854
22659W        W38276   1.964  11.353  13.467 -0.3163  0.1085 -0.0389
22660W        W38277   6.979  15.567   4.031 -0.0990  0.2602 -0.2356
22661W        W38278   9.819  12.746   1.548 -0.2433  0.1414  0.0124
22662W        W38279  10.427   3.368   2.073  0.5394 -0.3853 -0.0905
22663W        W38280   1.540  14.615  12.701 -0.1480  0.0951 -0.2772
22664W        W38281   4.310  12.745  13.145  0.0268 -0.2019  0.2602
22665W        W38282  12.123   9.205   3.364  0.3233 -0.2734  0.3797
22666W        W38283  14.001  13.742   2.734  0.1506  0.5363 -0.0016
22667W        W38284   1.838  11.320   3.684  0.1623 -0.2223 -0.1893
22668W        W38285   8.873   4.966  10.812 -0.3051 -0.0420 -0.2504
22669W        W38286  15.363  15.521   3.815  0.3848  0.2741 -0.2716
22670W        W38287  11.443  15.948   4.260 -0.0578  0.1082  0.0341
22671W        W38288   4.808   0.139  15.676 -0.1299 -0.0718 -0.2693
22672W        W38289  18.414  11.846  11.701 -0.2681 -0.1322  0.0194
22673W        W38290  12.542   1.585  11.421 -0.0015  0.0983  0.1429
22674W        W38291   9.846   7.827   3.088 -0.2690  0.0424 -0.0672
22675W        W38292   1.097   6.436   4.525 -0.1227  0.0186  0.1985
22676W        W38293  16.443  15.450  14.631  0.2492 -0.1108  0.2239
22677W        W38294   5.991   8.281  11.418  0.0956  0.1020  0.0326
22678W        W38295  17.733  11.613  11.784 -0.0879  0.3180 -0.0826
22679W        W38296   3.968   5.915  13.729  0.0307 -0.0280  0.1397
22680W        W38297  13.948   4.320   3.276 -0.0257  0.3521  0.1461
22681W        W38298  11.045   9.608   0.939  0.0996 -0.1358 -0.0614
22682W        W38299   7.170  13.107  13.914  0.0095  0.0366 -0.5234
22683W        W38300  18.438  13.586  14.045 -0.0564  0.0522  0.0949
22684W        W38301  11.325  18.043   2.330  0.1252 -0.0413 -0.0427
22685W        W38302  17.905   2.652   0.418 -0.1280 -0.0675  0.1729
22686W        W38303  15.349   7.792   0.638  0.2411 -0.2141 -0.2999
22687W        W38304   5.225   9.016  12.338  0.3480 -0.0174  0.4331
22688W        W38305   2.159  10.306   4.411  0.1526 -0.0810 -0.0006
22689W        W38306  13.931  18.352  11.833 -0.3989  0.0771  0.0959
22690W        W38307  16.025   2.059  13.787 -0.1525  0.2840 -0.1840
22691W        W38308   5.125  11.944  14.515  0.1016 -0.0312  0.2781
22692W        W38309  11.549   3.219   2.476 -0.3232  0.0084 -0.0069
22693W        W38310   2.035  17.972  14.942  0.4012 -0.0815 -0.2500
22694W        W38311  14.956   4.778   2.149  0.1455 -0.0288 -0.1281
22695W        W38312   1.994   9.236  15.859 -0.1278  0.2696 -0.1915
22696W        W38313   3.370   4.702   3.751  0.1087 -0.2800  0.1483
22697W        W38314   3.908   3.661   1.717  0.0590  0.2097 -0.0211
22698W        W38315   8.759   6.231  12.990 -0.1121 -0.0180  0.0187
22699W        W38316  12.745   1.521  16.096 -0.1819 -0.0337 -0.6548
22700W        W38317  16.652  13.674  14.022  0.0514  0.1199 -0.0752
22701W        W38318  14.927   0.933  12.342 -0.0149  0.2040  0.0242
22702W        W38319   0.760   1.674  15.850 -0.0105 -0.1516  0.2556
22703W        W38320   3.599   9.309   3.445 -0.3431  0.2174  0.2297
22704W        W38321   6.452  11.013  13.318 -0.2193 -0.0834 -0.1049
22705W        W38322   4.567  10.850   1.504  0.1048 -0.1190  0.0859
22706W        W38323  13.495   4.748   3.928 -0.2310 -0.1479 -0.0314
22707W        W38324   3.077  16.691  15.224  0.0686 -0.6129 -0.0028
22708W        W38325  15.099  14.699  12.708 -0.4759 -0.4434  0.0573
22709W        W38326   3.787  15.742   2.016  0.1774 -0.0562  0.1870
22710W        W38327   4.212   2.249   2.843 -0.1068 -0.2896 -0.2590
22711W        W38328   0.217  17.487   5.322  0.1163 -0.1020  0.0160
22712W        W38329  11.486   3.648   3.920  0.1398  0.3711 -0.1403
22713W        W38330  17.155   8.801   2.319  0.2710 -0.0787  0.0032
22714W        W38331   6.979   6.301   2.847 -0.0281 -0.2652 -0.1380
22715W        W38332   2.059   5.847  10.683  0.0122  0.2151 -0.0702
22716W        W38333  17.834   6.404   2.760  0.0855 -0.0508 -0.0774
22717W        W38334  12.066   2.744  12.711  0.1019 -0.1934  0.0327
22718W        W38335  12.993   0.301   2.253  0.0614 -0.0444  0.2094
22719W        W38336  10.954   4.909   9.981  0.3542 -0.2861  0.0005
22720W        W38337  15.481   6.724  15.005 -0.0157  0.1399 -0.0422
22721W        W38338   3.146  16.412   1.961 -0.1027 -0.2380  0.0386
22722W        W38339  12.038  15.796   5.789 -0.0591 -0.2508  0.1167
22723W        W38340   7.849  18.187  12.692 -0.2477  0.0642 -0.1139
22724W        W38341  17.311  13.338  15.525 -0.1512  0.1033  0.3633
22725W        W38342  12.038  16.778   6.086 -0.0331 -0.3948 -0.1224
22726W        W38343   8.396  16.193   4.577  0.0927 -0.2815 -0.0658
22727W        W38344  11.622   4.593  16.123 -0.2410  0.1604 -0.3332
22728W        W38345  13.856   3.010   5.023 -0.1249 -0.2313  0.2251
22729W        W38346   9.113   4.072   3.555 -0.0209  0.0446  0.2260
22730W        W38347  16.882  15.575  14.403  0.0109 -0.0559 -0.1985
22731W        W38348  16.243  14.127   0.466  0.0463  0.2174 -0.0352
22732W        W38349  13.956  16.418  15.753 -0.0383  0.5076 -0.0864
22733W        W38350   3.023  12.801   2.897  0.2565  0.1119 -0.1015
22734W        W38351   8.829   8.338   3.400 -0.0185  0.0516  0.3322
22735W        W38352  13.811  16.591  12.321 -0.1067  0.1340 -0.3121
22736W        W38353   9.803   7.296   3.043 -0.1768  0.0547 -0.2283
22737W        W38354  17.785  12.018  12.569  0.1717 -0.1231  0.0790
22738W        W38355  13.415   0.303   2.007  0.0248  0.5640  0.3280
22739W        W38356  15.242  13.583   0.894  0.1493 -0.1346 -0.1387
22740W        W38357   8.981  17.173   4.022  0.1146  0.2094 -0.1625
22741W        W38358   1.907   6.064   4.815  0.0965  0.0410 -0.1313
22742W        W38359   5.638   1.662   3.337  0.0588 -0.1353  0.1855
22743W        W38360   6.299   6.462   0.738 -0.2053  0.0658  0.1948
22744W        W38361   1.618  14.325  14.842  0.0096  0.0586 -0.0613
22745W        W38362   9.149  16.855   3.680  0.0141  0.2565 -0.0398
22746W        W38363   7.953   2.811   0.050  0.0543  0.0892  0.1635
22747W        W38364   5.487   5.409   3.149 -0.0457  0.2678  0.0139
22748W        W38365   3.693  15.250   3.000 -0.2212  0.0494  0.2276
22749W        W38366  18.407  18.346  13.649  0.3063 -0.0186  0.0829
22750W        W38367   5.059  14.944   0.533 -0.0986 -0.2129  0.0722
22751W        W38368  14.333   3.913   0.417 -0.3205 -0.2692 -0.0043
22752W        W38369  18.278  17.937   4.905  0.2174  0.0400  0.1448
22753W        W38370  13.604   0.868   2.116 -0.1398 -0.3459  0.1500
22754W        W38371   8.552  12.057   3.137 -0.2464 -0.1108 -0.0220
22755W        W38372   2.703   7.674   4.785 -0.2330 -0.2785  0.2082
22756W        W38373  11.154  11.709   3.008 -0.0172 -0.1916 -0.3447
22757W        W38374  13.095   8.157  12.558 -0.1197 -0.0207  0.1095
22758W        W38375   7.090   3.561   1.495 -0.1609  0.2844  0.1148
22759W        W38376   9.708   4.027  14.941  0.0955  0.0100  0.0054
22760W        W38377  11.405  11.361  13.714 -0.1594  0.3562 -0.2088
22761W        W38378  10.353  12.341   3.895  0.1972  0.1094  0.0363
22762W        W38379  15.258   0.733   0.246 -0.3103  0.2005 -0.1389
22763W        W38380  13.557   1.742  13.687 -0.1339 -0.1662  0.0989
22764W        W38381  17.504   8.893   0.592  0.0059 -0.1003  0.0656
22765W        W38382   8.222   5.382  11.769 -0.2957  0.0116  0.1105
22766W        W38383   7.557   4.248   0.363 -0.2971 -0.0133  0.2554
22767W        W38384  11.283   4.702  14.156 -0.3525 -0.0797  0.1155
22768W        W38385   4.548   9.254   3.686 -0.0446  0.5529  0.0523
22769W        W38386  15.559   8.199  13.837  0.2617  0.2704 -0.1850
22770W        W38387   1.835   7.060   3.508 -0.0228  0.2425 -0.2815
22771W        W38388   2.386  17.976   6.578  0.0450 -0.1807  0.1421
22772W        W38389  17.437  11.708   5.604  0.0206  0.0529 -0.1857
22773W        W38390  10.835   5.849  11.892 -0.1358  0.0860 -0.0621
22774W        W38391  12.985  13.479   2.938 -0.2281  0.2032 -0.1528
22775W        W38392   9.200   4.905   4.008 -0.3370 -0.0783  0.0244
22776W        W38393  12.581  17.686  10.830 -0.0105 -0.2520  0.1728
22777W        W38394  14.756  12.186  12.096 -0.2723 -0.0114 -0.3390
22778W        W38395   5.298   0.376  15.851 -0.3293  0.4147 -0.1799
22779W        W38396   0.394   0.434   3.114  0.2980  0.2409  0.3036
22780W        W38397  11.857  15.286   3.189  0.2270 -0.2087 -0.0572
22781W        W38398  18.334   3.431   2.144  0.1583 -0.2117  0.0334
22782W        W38399   3.496   8.036  15.957  0.2576 -0.2783  0.0633
22783W        W38400   2.709   0.661  12.388  0.0225 -0.1366  0.0213
22784W        W38401  13.923  16.297  10.537 -0.0477 -0.0731 -0.1276
22785W        W38402  14.518   5.744  15.986  0.1370  0.3410 -0.0025
22786W        W38403   6.318  10.826  15.222  0.1875  0.0383  0.1739
22787W        W38404   2.978   1.476  12.872  0.1669 -0.0717 -0.1162
22788W        W38405  18.349  13.613  11.716 -0.1961 -0.1773  0.1778
22789W        W38406   2.719  17.549  14.349 -0.5401  0.3769  0.1387
22790W        W38407   5.538  11.368  15.288  0.1296  0.1984  0.3328
22791W        W38408  12.953  10.597   4.046 -0.2070  0.0302  0.2267
22792W        W38409   7.493  10.802   3.579 -0.0652 -0.0422 -0.1864
22793W        W38410  11.997  11.235  11.920  0.1323 -0.0021  0.0551
22794W        W38411   1.757   8.120   2.827  0.1092 -0.1770 -0.1784
22795W        W38412   9.797   1.559   4.522  0.1146  0.1429 -0.0713
22796W        W38413  11.908   0.340   4.198 -0.4632 -0.0976  0.0758
22797W        W38414   2.073   4.204   3.578 -0.0949  0.3915 -0.1993
22798W        W38415  14.594   0.072   3.273 -0.0883  0.0271 -0.0966
22799W        W38416   0.659   6.514  11.871  0.3459 -0.0102 -0.0223
22800W        W38417  10.437  12.101   0.523 -0.0255 -0.0257  0.3234
22801W        W38418  12.906  10.227  11.534  0.4100  0.1335 -0.0160
22802W        W38419  10.273   6.120   0.532 -0.2719 -0.2326 -0.3426
22803W        W38420  10.706   7.230  15.921 -0.1957 -0.1529  0.3306
22804W        W38421   3.390   6.607  13.053 -0.3297  0.0451 -0.0614
22805W        W38422   8.014   4.815   2.640 -0.3372  0.1593 -0.0483
22806W        W38423   0.433   8.657   2.313 -0.0240 -0.0845 -0.1214
22807W        W38424  13.110  18.103  15.153 -0.1293 -0.1420  0.1890
22808W        W38425  11.070   5.136   5.281  0.1207  0.1546  0.2203
22809W        W38426   8.741   7.759  14.825  0.2609 -0.2077 -0.0249
22810W        W38427   8.062  13.220  12.766 -0.4378 -0.1426 -0.3915
22811W        W38428  15.362  10.756  14.266  0.1755  0.0525  0.1062
22812W        W38429  16.836  12.139  12.551  0.1828 -0.0464 -0.0438
22813W        W38430   2.915   6.487  12.211  0.3246 -0.2037 -0.3363
22814W        W38431   7.945   2.522   0.601 -0.0851  0.1976 -0.5231
22815W        W38432   5.004  14.816   1.198  0.2756  0.0524  0.1199
22816W        W38433  12.359  12.063   6.719  0.0236  0.0481  0.1348
22817W        W38434   8.107   3.896  13.249  0.3164 -0.1299  0.0015
22818W        W38435   1.574   7.978  15.413 -0.5220 -0.0258  0.1338
22819W        W38436   2.250   0.943   3.578  0.3425 -0.0073 -0.0910
22820W        W38437  12.841   1.833   1.050 -0.0942  0.1996 -0.0024
22821W        W38438   2.264   8.097   1.143 -0.1477 -0.0406  0.4367
22822W        W38439  10.227   0.223   5.766  0.2460  0.2364  0.1752
22823W        W38440   4.734   1.801   3.481 -0.0829  0.0990  0.2204
22824W        W38441  16.832   6.336  12.228  0.3502 -0.1632  0.3023
22825W        W38442  11.481  16.450   4.245 -0.1900 -0.1572  0.1022
22826W        W38443   4.853  13.333  15.442  0.0103 -0.1878  0.3180
22827W        W38444  12.904   3.477  15.397  0.2851 -0.0287  0.0269
22828W        W38445   9.661  12.790  10.323 -0.1026  0.1261 -0.0899
22829W        W38446   9.131  11.482   4.547 -0.0924  0.0680 -0.0827
22830W        W38447  11.159  17.189   4.888 -0.2521  0.1512  0.1097
22831W        W38448  13.306  16.904   6.378  0.0095  0.2461  0.2451
22832W        W38449   7.633  10.472  14.769 -0.1560 -0.1602 -0.1200
22833W        W38450  16.530  17.745  15.560  0.2715 -0.0561 -0.0622
22834W        W38451  13.875   1.524  15.417 -0.1184 -0.1983  0.1029
22835W        W38452   8.953  15.468   3.695  0.0508 -0.1981  0.0797
22836W        W38453  11.174  18.405   0.181  0.0501  0.1452  0.0466
22837W        W38454   4.398   9.772  11.409  0.1252  0.1288  0.0609
22838W        W38455  11.973   1.203   2.971 -0.0959 -0.0633 -0.0088
22839W        W38456   0.976  17.234  13.360 -0.3926  0.0666  0.0585
22840W        W38457   0.887   7.787  14.525  0.2366  0.2850 -0.0963
22841W        W38458  12.362   4.396  13.921 -0.0860 -0.2537  0.2550
22842W        W38459   4.757   2.023  15.440 -0.1696  0.1184  0.3445
22843W        W38460   9.228   3.128   1.512 -0.2850 -0.2015 -0.0489
22844W        W38461   0.458  16.466   3.759 -0.0792  0.0513 -0.0552
22845W        W38462   0.769   2.853  14.525  0.0923  0.4397 -0.1030
22846W        W38463   0.038   9.395  13.159 -0.1215  0.1642 -0.1736
22847W        W38464  15.970  11.605  10.937  0.0525  0.1536  0.2216
22848W        W38465   2.741   7.687   5.285 -0.2150  0.0288  0.1590
22849W        W38466   3.033   6.781   4.696  0.1889 -0.0517  0.1357
22850W        W38467   3.224   9.338  11.033 -0.1401 -0.1196 -0.1765
22851W        W38468   2.876  13.985   0.290  0.3036  0.0279  0.3463
22852W        W38469  11.413   2.033  10.104  0.1211  0.3737 -0.2444
22853W        W38470   2.767   7.607  10.067  0.3669 -0.0822 -0.2332
22854W        W38471  14.356  10.421  12.333 -0.2451  0.0327 -0.3349
22855W        W38472   9.591   3.998  14.372  0.1752 -0.1626  0.1956
22856W        W38473   1.002   4.669  11.451 -0.1967  0.3955 -0.3018
22857W        W38474  18.227  16.216   3.663  0.1183  0.2690  0.1411
22858W        W38475   5.162  17.228  15.293 -0.1401 -0.5576  0.1768
22859W        W38476   1.038  12.899   3.280  0.2982  0.0311  0.3676
22860W        W38477   5.499   7.929   1.458 -0.3114  0.0785 -0.1762
22861W        W38478  16.980  15.575   2.923 -0.0083 -0.0585  0.1430
22862W        W38479  13.509  13.886  11.128 -0.0783  0.0238  0.0599
22863W        W38480   4.466  16.472  14.013  0.0594  0.1469 -0.2807
22864W        W38481   5.387   1.976   2.249  0.0593 -0.2312 -0.0789
22865W        W38482   2.852   4.651   2.036 -0.0932  0.0752 -0.0254
22866W        W38483   0.388   5.079   3.469  0.3802  0.1526 -0.0960
22867W        W38484  15.732   8.437  13.028 -0.0992 -0.1378  0.0829
22868W        W38485   8.883  13.989   1.561 -0.1251 -0.1825 -0.0532
22869W        W38486   0.871  14.577  11.282 -0.2055 -0.3583  0.2998
22870W        W38487  14.267   2.942  11.543  0.0541 -0.1675 -0.1431
22871W        W38488  14.078   6.337  12.242 -0.0391 -0.0673  0.0372
22872W        W38489  10.491  10.531  13.052 -0.0081  0.0490  0.0728
22873W        W38490   3.752   6.947  11.867 -0.0130 -0.2195 -0.0788
22874W        W38491  16.702   3.198  14.776 -0.3308  0.0144  0.0201
22875W        W38492  13.056  12.691  12.293 -0.0057  0.0147  0.0207
22876W        W38493   7.307  13.616   2.526  0.0344 -0.1225  0.1321
22877W        W38494  17.733  17.888   3.007  0.1405  0.2132 -0.2164
22878W        W38495   6.556  10.068  13.598  0.2542  0.2278 -0.2705
22879W        W38496  13.387   3.286  10.659  0.2906  0.1124  0.0400
22880W        W38497  15.077  17.397   5.291  0.1709 -0.2689  0.1877
22881W        W38498  18.039  13.898  12.046 -0.0460  0.3886 -0.1104
22882W        W38499  10.082   9.800  13.317  0.0270 -0.1689  0.4013
22883W        W38500  10.837  16.530   5.741 -0.0980  0.0044  0.1746
22884W        W38501   2.231  16.016  14.048 -0.2037  0.0633  0.1662
22885W        W38502   2.700  13.619  13.760 -0.0887 -0.1662  0.0012
22886W        W38503   1.540   8.337   5.186 -0.3705 -0.3368 -0.0499
22887W        W38504   3.322  11.028   3.499 -0.0070 -0.3680 -0.0554
22888W        W38505   5.092  16.339  10.983 -0.1384 -0.1636 -0.0169
22889W        W38506  11.684  16.468   1.719  0.1309  0.4906  0.1155
22890W        W38507   3.532  18.451  14.447 -0.1063 -0.0038 -0.1966
22891W        W38508   7.018   6.644  13.012 -0.2577 -0.0829 -0.1225
22892W        W38509   5.811   9.522  11.663  0.3381 -0.1844  0.3691
22893W        W38510  12.032   3.600  15.254 -0.0658 -0.0870  0.2233
22894W        W38511  15.066  12.934  12.156 -0.1500  0.1877  0.0350
22895W        W38512  17.752   9.419   2.613  0.1120 -0.1924  0.2305
22896W        W38513  15.646   0.439   4.114  0.1347  0.0588 -0.2659
22897W        W38514   2.707  16.803  13.101 -0.0256 -0.2129 -0.5881
22898W        W38515  17.038   7.700  12.987 -0.2096 -0.0862  0.0876
22899W        W38516   4.407   3.150  11.585 -0.0650 -0.2116 -0.1429
22900W        W38517  10.046  14.199  13.725  0.0979  0.1186  0.0185
22901W        W38518  10.531  13.158   6.412  0.2470  0.1484  0.0738
22902W        W38519   2.008   2.102  11.700  0.1198 -0.3477 -0.2516
22903W        W38520   0.295   3.947   1.419 -0.1210 -0.0538 -0.2512
22904W        W38521   7.094  16.094   1.221 -0.0384 -0.0750 -0.0361
22905W        W38522  13.421  13.419   0.998  0.0213  0.3146  0.1685
22906W        W38523  10.598   8.724  13.131  0.3628 -0.1490  0.0657
22907W        W38524  15.229   0.636   1.254  0.1554 -0.0186 -0.2513
22908W        W38525  10.222   8.684  13.435  0.1558  0.1478  0.1486
22909W        W38526  14.036   7.817  11.693 -0.2991  0.0324 -0.2682
22910W        W38527   7.159   0.966   3.995 -0.0307  0.2167 -0.0969
22911W        W38528  12.404   5.136   2.833  0.2058 -0.2996  0.0832
22912W        W38529   4.549   4.206  11.383 -0.2655 -0.2722  0.1013
22913W        W38530   7.806  17.576   0.544  0.2566 -0.1898 -0.1004
22914W        W38531  16.470   8.375  13.841  0.0407  0.0891  0.1779
22915W        W38532   4.130   0.601  16.096  0.3583 -0.2446  0.0562
22916W        W38533   5.950   8.797  12.578 -0.0579  0.1806 -0.0306
22917W        W38534   7.040  13.408   0.628  0.2514  0.0957 -0.0999
22918W        W38535  15.836   8.164  15.797 -0.0390  0.0453  0.0574
22919W        W38536  17.646   4.536  14.046  0.1729 -0.3351 -0.0649
22920W        W38537   1.901  13.815   0.575 -0.0374  0.0934  0.2691
22921W        W38538   5.854   0.851  15.094 -0.1183 -0.1344  0.3639
22922W        W38539  15.195   0.214  11.689 -0.1991  0.1922 -0.2430
22923W        W38540  10.646   2.940  12.013  0.2043  0.0618  0.0330
22924W        W38541   1.219  14.794  12.201  0.1798 -0.2382  0.0122
22925W        W38542   0.610   3.248  14.715  0.0568 -0.4043  0.1943
22926W        W38543  14.089  10.768  12.753  0.1110  0.1832  0.3768
22927W        W38544  12.042   0.202  14.879  0.3161  0.0219 -0.2512
22928W        W38545  14.691  14.990  13.640  0.1745  0.3826 -0.3713
22929W        W38546  10.586   0.780  11.689  0.0906  0.0571 -0.2901
22930W        W38547   6.455   3.975  10.802 -0.0790 -0.2136 -0.0902
22931W        W38548   9.267  13.390  15.995  0.0609  0.1275 -0.0697
22932W        W38549  18.371  16.725  14.033  0.1437  0.3314 -0.1845
22933W        W38550   4.385  14.413   4.548  0.3590  0.0556  0.0450
22934W        W38551  12.492   5.840   3.736 -0.2884  0.0018 -0.0159
22935W        W38552  16.661   3.494   1.845 -0.2047 -0.1697  0.1731
22936W        W38553   5.949   2.891   5.101  0.0907 -0.1218  0.2266
22937W        W38554   1.280   8.786   0.170  0.0709 -0.0614 -0.2019
22938W        W38555   7.649   6.815   3.185 -0.0617  0.0117 -0.5762
22939W        W38556  10.909   1.577  15.978 -0.3325 -0.0605 -0.0631
22940W        W38557  13.889  17.685   5.354 -0.0738 -0.2508 -0.0019
22941W        W38558  11.475  13.805   0.488  0.1327  0.0741 -0.1420
22942W        W38559   0.059  17.117   2.155 -0.1290  0.0482  0.0609
22943W        W38560   4.382  13.720   1.276  0.2445  0.0297  0.4466
22944W        W38561   6.752   6.511  12.035 -0.0330 -0.0855 -0.0755
22945W        W38562   0.048   3.064   4.386 -0.1053 -0.2606 -0.2525
22946W        W38563  14.563  10.165  14.047  0.0256  0.0083  0.2545
22947W        W38564   9.822  15.146   0.256 -0.1743  0.1264 -0.0569
22948W        W38565   9.921   4.839   1.146  0.1433  0.2174  0.0688
22949W        W38566  17.384  13.539   5.848  0.1607 -0.0220 -0.0422
22950W        W38567   2.689  13.045   3.545 -0.2567  0.2549 -0.0810
22951W        W38568  16.639  13.838   2.578 -0.0221  0.0611  0.3592
22952W        W38569  17.155   2.016  10.595 -0.1400  0.0776  0.2205
22953W        W38570  12.871   3.965  11.289 -0.0970  0.0105  0.1733
22954W        W38571  12.117  10.854   3.128  0.5884 -0.1064 -0.0550
22955W        W38572  11.784  15.841  15.318 -0.0516  0.0236 -0.1593
22956W        W38573   3.948  14.113   1.786  0.1121  0.1215  0.0150
22957W        W38574   1.385   8.012   1.376 -0.3062 -0.0909  0.1732
22958W        W38575   4.059  18.040  13.104 -0.0670 -0.1717 -0.1783
22959W        W38576   1.609  12.171   6.182  0.2743  0.0733 -0.1628
22960W        W38577   2.000   2.286   3.274 -0.0153  0.0261 -0.0357
22961W        W38578   8.312   9.216   4.928 -0.0391  0.0622 -0.3869
22962W        W38579  18.252   5.369   5.959  0.2879 -0.1266  0.1320
22963W        W38580  15.707   4.536  11.528 -0.1795 -0.0511 -0.0707
22964W        W38581   6.997   0.940   4.563 -0.1258  0.1510  0.1279
22965W        W38582   7.501  13.134   0.526  0.1714 -0.0011 -0.3648
22966W        W38583  17.220  12.748   4.595  0.2930  0.0910 -0.0067
22967W        W38584   2.135  13.375   4.603 -0.0963 -0.3339  0.0702
22968W        W38585  15.980  10.208  13.033 -0.1326  0.2094 -0.2383
22969W        W38586   4.587   8.310  15.841 -0.0599  0.1296  0.2380
22970W        W38587  16.471  15.064   0.292 -0.0955  0.0086  0.1997
22971W        W38588  11.651   9.393   2.908 -0.0791 -0.2742 -0.0027
22972W        W38589   2.159   7.600   0.246  0.3156  0.1825 -0.2939
22973W        W38590  13.482  12.443  12.576 -0.1911 -0.1016 -0.1066
22974W        W38591  17.428  10.654   0.296  0.2244  0.0178 -0.4796
22975W        W38592  17.079  17.200  14.757 -0.1918 -0.4790 -0.0610
22976W        W38593  13.982   8.917  12.733  0.2519 -0.1650  0.2052
22977W        W38594   6.992   4.345  10.833  0.1854  0.7138  0.1279
22978W        W38595   6.575  13.609   0.706 -0.0967 -0.0430  0.2168
22979W        W38596   3.902   3.807   4.467 -0.1151 -0.3197  0.2713
22980W        W38597  12.554  12.447  10.464 -0.0236  0.2508 -0.1870
22981W        W38598  15.675   0.209   3.645 -0.0058 -0.0218 -0.0193
22982W        W38599   7.294   0.582   4.265 -0.0668 -0.3481 -0.0330
22983W        W38600  11.596   8.957  13.182  0.2327  0.2372  0.1063
22984W        W38601   6.728   1.047   3.182 -0.0385  0.0906  0.1382
22985W        W38602   5.948  17.729   0.359 -0.1059 -0.3420 -0.0276
22986W        W38603  13.179  13.089  13.031 -0.3113 -0.1967  0.0514
22987W        W38604   4.663   6.422  10.829  0.2757 -0.5515 -0.1300
22988W        W38605  10.604   6.391   3.059  0.1152  0.0284  0.0189
22989W        W38606  12.679   6.121   4.230  0.2914  0.0448 -0.3208
22990W        W38607   8.424  15.531  11.099 -0.2738  0.0343  0.1690
22991W        W38608   1.473  11.075  12.537 -0.0489 -0.0084  0.0776
22992W        W38609  11.344   4.019  12.849 -0.3806  0.0363  0.0519
22993W        W38610  15.313  12.971  15.318 -0.1028 -0.1737 -0.0694
22994W        W38611  17.167   1.451  13.507 -0.1534  0.1159  0.0818
22995W        W38612   1.167  13.613  14.867  0.0422 -0.0300 -0.0899
22996W        W38613   1.789   3.928  14.194 -0.0727 -0.2000 -0.2296
22997W        W38614   5.019   9.492  11.994 -0.1424 -0.2321  0.0453
22998W        W38615   3.335   8.996  12.847  0.0966 -0.3726  0.0722
22999W        W38616  10.814  14.035  15.370  0.0400  0.0935  0.1481
23000W        W38617   8.100  10.133   2.044 -0.2585  0.1414  0.0929
23001W        W38618   3.621   1.951   4.968 -0.1513  0.2664 -0.2046
23002W        W38619   6.066  11.925   2.521  0.1775 -0.2933  0.4233
23003W        W38620   3.003  15.432  14.383 -0.0135 -0.2061 -0.0420
23004W        W38621   7.500   0.703  15.596 -0.0177 -0.1436 -0.3714
23005W        W38622  10.094  12.204   2.873  0.4056  0.3519  0.3225
23006W        W38623   0.367   1.816  14.061  0.5352  0.3750 -0.2921
23007W        W38624   6.145   1.894   3.583 -0.1128 -0.3573 -0.0157
23008W        W38625   2.496  11.061   6.670 -0.1853 -0.1203 -0.1146
23009W        W38626   2.302   3.713   5.140  0.1315  0.1998  0.3189
23010W        W38627   7.007  14.583   4.013  0.2945 -0.1638  0.0067
23011W        W38628  17.235  15.291   0.870 -0.1989  0.0291 -0.2457
23012W        W38629   9.953   8.696   0.106 -0.0788 -0.1841  0.0126
23013W        W38630   9.455   1.208  15.452  0.0256  0.2343 -0.2426
23014W        W38631   9.472  14.737   2.172 -0.0856  0.0731  0.3254
23015W        W38632  17.834  16.314  16.053  0.1154 -0.2879  0.1300
23016W        W38633   6.229  12.959  12.519 -0.0192  0.3694 -0.1449
23017W        W38634   3.922   0.788  15.670 -0.1399 -0.2163 -0.0063
23018W        W38635  15.984   4.457   2.465  0.1366  0.0257 -0.0308
23019W        W38636   2.026   5.116  10.259 -0.1607 -0.3431 -0.0866
23020W        W38637   0.878  11.619   0.877 -0.0458 -0.2410 -0.0622
23021W        W38638  15.041   2.772   0.640 -0.0601  0.0322  0.0100
23022W        W38639  17.170   8.114  15.975 -0.0281 -0.0198  0.2093
23023W        W38640   3.755  12.294   5.202  0.3750 -0.1386 -0.3241
23024W        W38641   0.855  11.193  15.484 -0.2004 -0.2473 -0.3414
23025W        W38642  11.451   9.577  15.838  0.2650  0.1520 -0.3178
23026W        W38643  14.979  16.108   1.253 -0.1235 -0.3007 -0.5602
23027W        W38644  16.248  16.509  12.116  0.0871 -0.1400  0.3062
23028W        W38645   6.231   9.405   5.544 -0.2887 -0.1708 -0.1272
23029W        W38646   5.690   1.237   0.245 -0.0758  0.2708 -0.1672
23030W        W38647  14.167   0.480  13.129  0.4443 -0.0675 -0.2490
23031W        W38648   0.847  18.416   4.512 -0.2329 -0.0605  0.2225
23032W        W38649  14.743  14.775  11.324 -0.1718 -0.2421 -0.2686
23033W        W38650  16.103   4.713  13.781  0.0679 -0.2635 -0.0162
23034W        W38651  15.173   9.326  10.944 -0.0248  0.1185  0.0418
23035W        W38652   2.196  18.431   1.856  0.2609 -0.0219  0.0682
23036W        W38653  14.759  15.548  11.097  0.1002  0.0733 -0.4033
23037W        W38654   1.340   6.816   2.303  0.1895  0.2251 -0.0748
23038W        W38655   7.579  16.545  11.864  0.0450  0.1251 -0.2103
23039W        W38656  13.949   2.048  14.106  0.0269 -0.0810  0.2388
23040W        W38657   0.199   7.067   4.272  0.1533  0.2646 -0.0289
23041W        W38658   5.305  15.052  15.298  0.4267 -0.2347  0.1025
23042W        W38659  12.906  11.752   0.746  0.0816  0.1597  0.3859
23043W        W38660  16.837  11.872  14.489 -0.1080 -0.0261  0.0315
23044W        W38661  12.989  14.216   0.766 -0.0018 -0.0879  0.1512
23045W        W38662  10.277   6.986  14.340  0.1053 -0.3254  0.1849
23046W        W38663  15.605  11.764   3.385 -0.1272 -0.0392 -0.1788
23047W        W38664   1.340   9.128  13.635 -0.0733  0.1746  0.0131
23048W        W38665   7.797   6.392   3.507  0.2300  0.2704  0.0251
23049W        W38666  12.526   9.929   1.825 -0.1496  0.0293 -0.0667
23050W        W38667   8.292   4.570   4.388  0.0532  0.0475 -0.1351
23051W        W38668  13.074   9.351   1.030  0.1741  0.2100 -0.2290
23052W        W38669   8.169   2.143   5.311 -0.3428 -0.0659 -0.0512
23053W        W38670   3.170   8.247   4.552 -0.0311  0.2612  0.3357
23054W        W38671  14.789   7.692   0.443  0.2049  0.1155  0.3508
23055W        W38672  11.841   4.731   3.284 -0.0047  0.0811  0.0859
23056W        W38673  14.233   1.134   0.547  0.0623 -0.0692 -0.0397
23057W        W38674   3.820  11.963   2.278  0.0881  0.0674  0.1314
23058W        W38675  10.315  16.803   4.725  0.1639 -0.0430  0.3010
23059W        W38676   5.108  10.263   2.095  0.0733  0.1243 -0.2094
23060W        W38677  16.630   8.253   3.355 -0.2328 -0.1205 -0.1560
23061W        W38678  10.909   2.179  11.385 -0.1051 -0.0446 -0.3022
23062W        W38679  15.243  17.174   4.836  0.1012  0.2470 -0.0105
23063W        W38680  11.051  18.363  15.596 -0.1089  0.0890  0.0943
23064W        W38681  12.667   0.167  13.000  0.0144 -0.2193  0.2666
23065W        W38682   5.098  12.857   4.517  0.3433 -0.1970  0.0865
23066W        W38683   3.147  16.329  14.305  0.0719 -0.0576  0.1623
23067W        W38684  12.241   8.293  15.956  0.0306  0.1466  0.1424
23068W        W38685   2.284   4.533   2.979  0.1374 -0.0560  0.1409
23069W        W38686   4.394   1.914  13.487 -0.0493 -0.1417 -0.1532
23070W        W38687   8.919  16.004  11.712  0.3393 -0.0557 -0.2632
23071W        W38688   7.090   6.706  12.357  0.0029  0.1070  0.0048
23072W        W38689  14.470   7.951  15.162 -0.5140  0.0035  0.1435
23073W        W38690   5.538  13.339   3.625  0.1747 -0.2187  0.1100
23074W        W38691  13.595   9.067   4.284 -0.0056 -0.0818  0.0168
23075W        W38692   9.001   9.711   2.832 -0.3186 -0.1800 -0.1706
23076W        W38693  10.171   3.632  11.028 -0.2109  0.1357  0.2346
23077W        W38694   6.182  14.175  14.346  0.1019  0.1182  0.1495
23078W        W38695  15.374  17.672  15.517 -0.2099 -0.0449  0.0175
23079W        W38696   1.651   2.536  10.407 -0.0737  0.2174  0.3657
23080W        W38697   3.885  13.687  13.370  0.0283  0.1121  0.0334
23081W        W38698   5.499  13.051  14.527  0.2357 -0.0365 -0.0820
23082W        W38699   7.379   6.291   4.368  0.0168 -0.1561 -0.0680
23083W        W38700   7.382   3.243   3.093  0.1570  0.1419  0.0234
23084W        W38701   0.541   6.087   3.499 -0.1011 -0.1570  0.1318
23085W        W38702  14.448   5.345  14.234  0.4286  0.3485  0.3572
23086W        W38703   4.323   7.144   1.687  0.3144  0.3789  0.1040
23087W        W38704   4.793  13.136   4.764  0.1553 -0.0057  0.0663
23088W        W38705  13.580  13.910  14.272 -0.2638  0.1676  0.3211
23089W        W38706   9.239   0.366  11.862 -0.2003 -0.0204  0.2641
23090W        W38707   1.769   5.353   0.524 -0.2967  0.0206  0.1788
23091W        W38708  10.710   3.348   3.991  0.0111 -0.0783  0.1701
23092W        W38709  10.650  13.159   3.680 -0.1475  0.0587  0.1455
23093W        W38710   3.521  17.716   5.860 -0.0028  0.1428 -0.2834
23094W        W38711   6.344   3.326  11.616  0.1446  0.4144 -0.0462
23095W        W38712  15.012  14.536   1.752  0.0883 -0.0328  0.1520
23096W        W38713  10.776  13.272   4.596 -0.1305 -0.0930  0.0333
23097W        W38714   6.133   0.157   2.306 -0.3034 -0.1489 -0.2860
23098W        W38715   9.530  10.535   3.083  0.1235 -0.2326 -0.0278
23099W        W38716  13.950   3.856  12.481 -0.2197 -0.3295  0.1676
23100W        W38717  11.031  10.603  12.411  0.0557 -0.0492  0.1287
23101W        W38718  14.197  14.872   4.196 -0.3544 -0.2601 -0.0366
23102W        W38719   1.436  12.417  10.521 -0.3034  0.3923  0.1122
23103W        W38720  16.548  13.626  11.302 -0.1849  0.0869 -0.0675
23104W        W38721  13.432   0.089  12.687  0.2050  0.0643  0.0268
23105W        W38722   2.984  16.408  13.040  0.2162 -0.0613 -0.2069
23106W        W38723  10.183  14.974  16.083 -0.0201  0.1335  0.0118
23107W        W38724  12.238  18.210  11.765  0.1656 -0.2668 -0.2353
23108W        W38725   7.288   2.629   1.396  0.2188 -0.1727 -0.0086
23109W        W38726   0.750   7.586  15.024  0.4093  0.3438  0.2533
23110W        W38727   9.835   5.994   1.722  0.0472 -0.1079 -0.0722
23111W        W38728  17.931   5.925   0.353  0.1039  0.1568  0.0158
23112W        W38729   0.160  15.974   0.051  0.1254  0.0306  0.2179
23113W        W38730  16.566   8.186   1.778  0.0733 -0.0101 -0.1085
23114W        W38731   0.615   4.701  15.897  0.1894  0.2185 -0.1771
23115W        W38732  10.845   8.380  11.754  0.0224  0.2104 -0.0616
23116W        W38733   5.513   4.586   2.000  0.0112 -0.0381 -0.1479
23117W        W38734   1.278  15.310   4.177  0.0263 -0.2821  0.2931
23118W        W38735   0.194   6.029  15.785  0.0884  0.0334 -0.1237
23119W        W38736   3.559   3.854  11.267 -0.0144  0.3892 -0.3847
23120W        W38737   4.142   3.289  12.837 -0.0465 -0.0420  0.2612
23121W        W38738  18.192   3.730  14.710  0.1486  0.0560 -0.0192
23122W        W38739  16.582  18.018   5.598  0.1456  0.2792 -0.0130
23123W        W38740   3.076  11.965   5.389 -0.0850  0.1620 -0.0495
23124W        W38741   7.170   0.084  11.535  0.0402  0.2826 -0.0952
23125W        W38742  12.332   6.535  10.412 -0.2909 -0.2844 -0.0720
23126W        W38743   8.494  13.824  15.605 -0.2115 -0.1974  0.0858
23127W        W38744  13.347  17.972   0.960  0.0758  0.1380 -0.0341
23128W        W38745  12.957   6.254   0.752 -0.1699  0.2006  0.0127
23129W        W38746  14.582   9.815  13.651  0.1876  0.0197 -0.1733
23130W        W38747   9.966   3.330  11.369 -0.2112 -0.0110  0.1752
23131W        W38748  10.503  10.277  10.663 -0.0406 -0.1386 -0.1478
23132W        W38749   8.716   0.418  14.594  0.0669  0.2596  0.1793
23133W        W38750  17.342   1.792   3.691 -0.0963  0.3316 -0.0584
23134W        W38751  13.119  13.820   1.099 -0.1864 -0.1039 -0.0199
23135W        W38752   0.627   8.597  11.852 -0.3642 -0.1576 -0.1093
23136W        W38753  17.280   2.430  12.098  0.5222  0.0147 -0.0440
23137W        W38754  12.685   9.465   2.874 -0.1231  0.0889 -0.0325
23138W        W38755   8.211  11.569   4.699  0.1113 -0.2418  0.1362
23139W        W38756  18.308   6.983  14.360 -0.3715  0.0319 -0.2872
23140W        W38757   7.146  12.858   1.409  0.1087 -0.1943 -0.2170
23141W        W38758   3.885  11.049  14.974 -0.2783 -0.3744  0.2657
23142W        W38759  16.695   7.854  15.335  0.1418 -0.3049  0.0853
23143W        W38760  12.920  14.274  13.033  0.1043  0.0129  0.0086
23144W        W38761   5.214  10.645   4.707  0.0204 -0.0039  0.0352
23145W        W38762   2.258   0.010  11.633 -0.1599  0.0829  0.0645
23146W        W38763  15.981   5.022  13.311  0.3232  0.0814  0.3739
23147W        W38764  16.093   4.893  12.324 -0.2320  0.2674 -0.1017
23148W        W38765  10.193   1.777   1.248 -0.3675  0.2219  0.1193
23149W        W38766   6.227   9.182   1.191 -0.0808  0.0732  0.0556
23150W        W38767  11.134   5.632  13.302 -0.0604 -0.3707 -0.0488
23151W        W38768   8.520  10.575   4.804 -0.1300  0.0973 -0.4175
23152W        W38769  13.097   8.005   4.641 -0.0333 -0.1299  0.3745
23153W        W38770   1.281   5.751  12.975 -0.1458  0.2277  0.0390
23154W        W38771  13.419  16.137  11.399 -0.0599 -0.1215  0.2173
23155W        W38772  14.567   1.827  13.631 -0.3598 -0.2578  0.2089
23156W        W38773  16.952  17.030  12.199 -0.3477  0.1922  0.1561
23157W        W38774  15.460   0.325   0.928  0.3228  0.2433  0.0464
23158W        W38775   5.363   2.712   5.561 -0.0398 -0.0418  0.0322
23159W        W38776   2.862   9.780   0.697  0.0743  0.2970  0.1236
23160W        W38777   2.062   0.488   4.083 -0.0281 -0.5115  0.2290
23161W        W38778  12.339   1.966   2.449 -0.0738 -0.1771  0.0158
23162W        W38779  15.390   5.085  14.965 -0.0919 -0.2413  0.3047
23163W        W38780  16.717   2.398   5.365  0.1615 -0.4291 -0.0950
23164W        W38781   3.478  18.245  12.438 -0.0535  0.1295 -0.1094
23165W        W38782  12.232   8.638  14.874 -0.0089  0.2528  0.1589
23166W        W38783   9.963   0.144  14.231 -0.3825 -0.2169 -0.0006
23167W        W38784  17.910  18.432   1.005  0.0935  0.3991 -0.1652
23168W        W38785   0.856  13.637   4.331 -0.1682 -0.0059  0.0353
23169W        W38786   7.358  17.539   3.303 -0.1311 -0.5164 -0.0462
23170W        W38787   3.656   0.136   6.045 -0.0657  0.1249  0.0936
23171W        W38788  17.454   5.441  15.645 -0.1211  0.1505 -0.1410
23172W        W38789   3.820  14.226  12.170  0.1792  0.3139 -0.1817
23173W        W38790  14.305  15.894   3.307  0.1693 -0.1821  0.0640
23174W        W38791   2.334  10.353  14.798  0.1645  0.1667 -0.0527
23175W        W38792   7.147  14.752  13.912 -0.1423 -0.0706  0.3578
23176W        W38793   0.373   0.408   4.716 -0.1270 -0.0932  0.1267
23177W        W38794   2.308   1.601  12.299 -0.0712 -0.1349 -0.1171
23178W        W38795  13.867   9.356  14.204  0.0781  0.5122  0.2814
23179W        W38796   6.388  10.836   5.840 -0.0247  0.4292 -0.2026
23180W        W38797   4.551   0.806   0.906  0.0649 -0.0544 -0.0859
23181W        W38798   7.019   5.082  15.640  0.0186 -0.0640  0.2996
23182W        W38799  14.111   8.132  16.002  0.1871 -0.3809  0.0390
23183W        W38800   2.530   6.125  13.011 -0.0981  0.0989 -0.0395
23184W        W38801   7.169   7.692   3.637  0.1123  0.0371 -0.2622
23185W        W38802  12.656  14.218   3.093  0.0717  0.2661  0.2498
23186W        W38803   9.815   0.673   1.098  0.1643  0.2039 -0.1414
23187W        W38804   1.271  10.711  13.866  0.1287 -0.2745  0.2160
23188W        W38805   3.953   8.445   4.047 -0.1217  0.0334  0.0718
23189W        W38806  14.104  16.560  11.394  0.1765 -0.0060  0.2055
23190W        W38807  13.220   5.819  12.827  0.1480  0.1301  0.2665
23191W        W38808   2.804   9.551  10.862  0.1384  0.0217  0.0074
23192W        W38809   4.293   4.298  13.393  0.0489  0.0096 -0.2884
23193W        W38810   6.869  15.744   0.430  0.1953  0.4132  0.0862
23194W        W38811  17.588  13.355  11.161 -0.1044 -0.0941 -0.4075
23195W        W38812   9.683   4.380  11.864  0.3990  0.0528  0.2774
23196W        W38813   4.720  15.083  12.030 -0.3322  0.0335 -0.0280
23197W        W38814  12.133   3.891  11.913  0.1175  0.1135  0.1524
23198W        W38815   0.661   3.023  12.272  0.1867  0.3148  0.0252
23199W        W38816  10.108  15.346  11.092 -0.1091  0.0354  0.0457
23200W        W38817  10.081  13.552   3.689 -0.0955  0.0019  0.1450
23201W        W38818   9.797  10.738  14.109  0.0964 -0.1849 -0.2732
23202W        W38819   0.685   6.006  11.689 -0.1594  0.0382  0.3063
23203W        W38820  16.560  10.889  15.923 -0.2180  0.0386  0.2090
23204W        W38821   8.850  15.989   0.567 -0.2014  0.1744 -0.0086
23205W        W38822   6.225   7.075   2.773 -0.0162 -0.0718 -0.2479
23206W        W38823  17.195   2.086   0.185  0.0819  0.1904  0.1034
23207W        W38824   6.744   9.864   5.463  0.2638  0.0522  0.0146
23208W        W38825   4.028  14.679   2.993 -0.1814  0.2739 -0.0524
23209W        W38826  16.169   4.225   0.717 -0.1110 -0.1436 -0.2636
23210W        W38827   3.642   7.391  15.502  0.0988  0.2692 -0.0946
23211W        W38828  16.485   5.454   5.163 -0.1618 -0.0569  0.0152
23212W        W38829   3.206  15.270   2.960  0.3856  0.0357  0.2809
23213W        W38830   3.857   6.214   2.243  0.1997  0.3712 -0.0401
23214W        W38831   2.963  17.384  12.948  0.1241 -0.1862  0.1130
23215W        W38832   4.649   8.545  15.338  0.0418  0.0366 -0.0045
23216W        W38833  16.915  14.039   4.379 -0.1967 -0.1446 -0.0961
23217W        W38834  17.266  15.492  16.031  0.2808  0.0027  0.2953
23218W        W38835  13.875   9.192   3.439  0.1552  0.1263  0.2155
23219W        W38836   5.922   3.778   3.478  0.0526 -0.0968 -0.2924
23220W        W38837  15.940  13.678  12.561 -0.4573 -0.0244 -0.0831
23221W        W38838   5.292   9.183  10.526 -0.3118  0.1436  0.1910
23222W        W38839  11.980  10.087  11.852 -0.0486  0.3514 -0.1380
23223W        W38840   9.927   9.375  11.638 -0.1069 -0.1731 -0.0197
23224W        W38841  11.140  14.294   4.509  0.0806 -0.0698 -0.0010
23225W        W38842   4.117  17.865   4.926 -0.0533  0.2691 -0.1284
23226W        W38843  14.315   8.848   0.886  0.1764 -0.2097  0.2137
23227W        W38844  18.054   0.933  11.659 -0.1246  0.0633 -0.0308
23228W        W38845  13.951  13.531   4.122 -0.0372  0.0608  0.0567
23229W        W38846   1.331   7.077   0.644  0.1730 -0.2844  0.0198
23230W        W38847  12.524   2.837  14.725 -0.0228 -0.2547 -0.1286
23231W        W38848  10.199   7.468   0.104 -0.2248  0.1856 -0.0455
23232W        W38849  16.645   8.294  12.585  0.0283 -0.1470  0.0477
23233W        W38850  11.698  11.485   5.486 -0.0574  0.2178 -0.2164
23234W        W38851   9.724  12.645  13.530 -0.2319 -0.2857  0.1186
23235W        W38852  11.759  10.440   4.816 -0.2166 -0.0598 -0.1977
23236W        W38853  14.126   1.923  15.317  0.1594 -0.1253 -0.0217
23237W        W38854  17.357  13.430  14.634  0.0535  0.4381  0.1892
23238W        W38855  12.435   7.545   0.345 -0.0212 -0.0899 -0.1823
23239W        W38856  14.418   8.975   1.476  0.1146 -0.1714 -0.0349
23240W        W38857   4.118   8.687   5.286 -0.3198  0.3972  0.3102
23241W        W38858   3.572   2.671  15.059  0.2755  0.0531 -0.2621
23242W        W38859   7.933   3.140   4.472  0.0651 -0.0139  0.2725
23243W        W38860   7.855   6.135   1.439 -0.1045  0.0684  0.2031
23244W        W38861   4.991  10.095   0.366  0.1070 -0.1014 -0.1707
23245W        W38862   0.682  13.414   5.170  0.1871  0.1091 -0.1417
23246W        W38863   1.641   8.519  10.371  0.1651 -0.1084  0.1361
23247W        W38864   9.430  10.542  11.105 -0.1364 -0.1156  0.0647
23248W        W38865   0.458  11.783   2.430 -0.0805  0.0712 -0.1134
23249W        W38866   1.830  10.180  13.307 -0.3120  0.0659 -0.0576
23250W        W38867  13.825  13.305   2.502 -0.1317 -0.2315  0.0542
23251W        W38868   7.988   6.895  11.311 -0.3327 -0.1207 -0.1215
23252W        W38869   5.630  11.782  12.543 -0.1178  0.1450 -0.3826
23253W        W38870  16.412  14.897   3.078  0.2442  0.1370  0.0697
23254W        W38871   0.151   7.040  16.045 -0.1919  0.3806 -0.1562
23255W        W38872   1.286  11.999   1.908 -0.3809 -0.5341  0.3809
23256W        W38873  15.927  15.423  12.414 -0.0506 -0.0462  0.4209
23257W        W38874  18.005  14.991  12.586  0.0410  0.0328 -0.1866
23258W        W38875  13.256  11.431   4.721 -0.3045 -0.1367 -0.0730
23259W        W38876  13.908   5.156  11.098  0.0484 -0.0240 -0.1173
23260W        W38877   5.863  16.686   4.467 -0.1672 -0.3856  0.1424
23261W        W38878   6.077   1.748  14.431 -0.0140 -0.2725  0.3937
23262W        W38879   4.688  13.795  12.498 -0.0689 -0.0456 -0.0866
23263W        W38880   6.905  18.296  13.860 -0.0471  0.1505 -0.1415
23264W        W38881   5.375  10.883  15.432  0.0382 -0.2673  0.2356
23265W        W38882   3.299   0.393   0.058  0.1039 -0.0101  0.2221
23266W        W38883   5.262   4.512   3.158  0.1836 -0.0157  0.1254
23267W        W38884   3.860  18.308   5.658 -0.2096 -0.1194  0.2735
23268W        W38885   7.054   9.015   2.065 -0.0286 -0.1883 -0.0834
23269W        W38886   3.540   7.379   4.577  0.1545  0.2373  0.2079
23270W        W38887  14.509   6.615  15.687  0.1299 -0.0249  0.1215
23271W        W38888   0.999  11.567   5.026 -0.1606  0.0176 -0.0418
23272W        W38889   3.452  13.895  11.977 -0.2648 -0.0757 -0.2922
23273W        W38890   9.669  17.014  12.277  0.2287 -0.1187  0.0864
23274W        W38891  16.256   9.832   5.084  0.1069  0.2162 -0.1523
23275W        W38892   4.829  14.537   4.567  0.2079  0.1913  0.1642
23276W        W38893  13.963   8.773  11.142 -0.2463  0.1602 -0.0251
23277W        W38894  18.194  14.701   3.229  0.2536 -0.0212 -0.0854
23278W        W38895   2.055   5.922  12.110  0.4609  0.4968  0.5750
23279W        W38896   9.615  13.361   2.475  0.1784 -0.0545 -0.1863
23280W        W38897   8.181   1.422  11.077 -0.1576 -0.3144  0.0300
23281W        W38898  16.509  18.027  12.000 -0.1032 -0.3230  0.2924
23282W        W38899   1.025   7.245   0.263  0.1324 -0.2342  0.0232
23283W        W38900   2.703   4.148  15.511 -0.1699  0.1008 -0.0981
23284W        W38901  17.982  16.919   0.826  0.0366 -0.3798 -0.1090
23285W        W38902   0.513   5.190  12.076  0.3669 -0.1453 -0.1547
23286W        W38903   6.074  15.900   0.395 -0.2200  0.0045 -0.4054
23287W        W38904  18.176   2.520  14.261 -0.0554  0.1475 -0.2406
23288W        W38905   5.649   3.362  14.286 -0.1439 -0.0420 -0.0583
23289W        W38906  11.513   1.880   1.723  0.3263  0.0619 -0.3264
23290W        W38907   2.844   2.849   4.375 -0.1822 -0.0309  0.0668
23291W        W38908  16.128  13.009  13.607 -0.0143 -0.0843 -0.2807
23292W        W38909  11.968  10.569  11.818  0.1706  0.3022 -0.0408
23293W        W38910   9.388   0.700  13.819  0.1083 -0.1408  0.0740
23294W        W38911   8.566   5.190  14.870 -0.4182  0.1690  0.4633
23295W        W38912  10.210  11.704   2.714 -0.1293 -0.0068  0.0866
23296W        W38913  12.438   3.742   2.272 -0.0358  0.0348 -0.1366
23297W        W38914   6.756  17.286  14.516 -0.1472  0.0703 -0.1010
23298W        W38915  11.285  13.290   0.519 -0.0247  0.3972  0.1024
23299W        W38916   5.850   0.818  13.281  0.1590  0.2395  0.2664
23300W        W38917   0.086   0.229   5.084  0.2241 -0.0108  0.2270
23301W        W38918   3.970  15.637   4.815 -0.0805 -0.2887 -0.2020
23302W        W38919   0.702   3.071  15.888 -0.2492  0.2071  0.3417
23303W        W38920  15.447   8.686   4.679 -0.3216 -0.2167  0.0497
23304W        W38921  16.424  12.427  13.423 -0.1211 -0.0640  0.0403
23305W        W38922   5.364   4.761   0.521  0.0041 -0.1242  0.0156
23306W        W38923   6.606   4.816  15.858  0.2576  0.0635 -0.0453
23307W        W38924   0.487  10.574   5.854 -0.2243 -0.2869 -0.2328
23308W        W38925  13.602  14.319  15.522 -0.2981  0.0294  0.4183
23309W        W38926  17.902   6.580  10.803  0.1602  0.2451 -0.1594
23310W        W38927  10.604   0.738   2.885 -0.2324 -0.0658 -0.3172
23311W        W38928  15.039  14.821  11.718 -0.6237 -0.1445 -0.0690
23312W        W38929   2.274  11.412   5.218 -0.0896 -0.0618  0.1678
23313W        W38930   7.558  12.581   5.128  0.3685  0.3684  0.0098
23314W        W38931  18.253   4.235   2.702  0.2030 -0.0632 -0.0021
23315W        W38932   0.973   2.552  15.629  0.0202 -0.0740  0.2520
23316W        W38933   1.318  15.914   3.174  0.0259  0.3793 -0.3097
23317W        W38934   4.985  12.810   2.392 -0.1345 -0.0290  0.0473
23318W        W38935  12.244  11.488   3.877 -0.0293  0.0611  0.1273
23319W        W38936  14.408   6.340  14.046  0.2021 -0.1326 -0.2453
23320W        W38937   2.924  17.074  14.459 -0.4086 -0.2076 -0.0316
23321W        W38938   6.951   8.266   1.883  0.3396  0.1229  0.0858
23322W        W38939  14.986   7.077  11.802  0.2848  0.0611 -0.3671
23323W        W38940  13.115  10.675   9.899 -0.4015  0.1691 -0.1060
23324W        W38941   8.206   1.726  15.104  0.2835 -0.0634  0.0284
23325W        W38942  11.917   6.678  12.162 -0.1021 -0.0906 -0.0225
23326W        W38943  11.511  11.962   2.561  0.3674 -0.1420 -0.3160
23327W        W38944   4.392  11.313  12.776  0.0842  0.1006 -0.2261
23328W        W38945  15.890  15.111   4.940 -0.0626  0.0501  0.0789
23329W        W38946   7.903  15.671   5.686  0.2374 -0.1192  0.0725
23330W        W38947   1.711   7.838   1.685 -0.5059 -0.1041 -0.1317
23331W        W38948  12.353  12.243  14.602  0.2974  0.0752 -0.4398
23332W        W38949   7.419   7.284   3.913  0.1268 -0.0998 -0.3314
23333W        W38950   4.022   8.973   3.595 -0.0566  0.2317  0.2963
23334W        W38951  17.568   3.187  11.003  0.2454  0.2900  0.2239
23335W        W38952   8.319   1.028   3.024 -0.0363 -0.2299 -0.0859
23336W        W38953   8.907  17.039  11.320 -0.1685  0.1811 -0.2210
23337W        W38954  18.362  13.379   5.646 -0.1160  0.0606  0.3728
23338W        W38955   2.904   1.790  15.321 -0.0997  0.1924 -0.1635
23339W        W38956   4.843   1.442  12.304  0.2106 -0.1767 -0.1347
23340W        W38957   3.693  18.147   4.262  0.0302 -0.2451 -0.0266
23341W        W38958  10.229  17.607  14.602  0.1910 -0.0900 -0.3664
23342W        W38959  18.427  13.845  12.350  0.1371  0.0834  0.2969
23343W        W38960   6.226   9.636   1.046 -0.0313  0.0357 -0.1225
23344W        W38961  15.769  17.096   2.026  0.1096  0.1381 -0.0627
23345W        W38962   9.507   8.158   5.497  0.1223  0.1403  0.3049
23346W        W38963   6.786   3.675   0.531  0.0568 -0.0031  0.1962
23347W        W38964   5.205  17.929   5.690 -0.1015  0.1826 -0.1739
23348W        W38965  17.395   2.766  11.403  0.1601 -0.1308  0.0737
23349W        W38966   3.015  12.109   5.927  0.0353 -0.0151  0.3041
23350W        W38967  12.905  17.456   1.495  0.1216  0.4308 -0.0776
23351W        W38968  12.011  16.565   1.040  0.0721 -0.1038  0.0636
23352W        W38969  11.561  11.719  14.037  0.0245 -0.0499 -0.2057
23353W        W38970   2.635   9.525   4.620 -0.1470 -0.1325 -0.3273
23354W        W38971   5.222   9.509   1.800  0.0689  0.0749 -0.1011
23355W        W38972  10.054   4.974  13.599 -0.0212 -0.2293  0.3489
23356W        W38973   2.641   0.021  15.363 -0.0063  0.1550 -0.0934
23357W        W38974   2.578  16.629   5.682 -0.1508  0.1281  0.1148
23358W        W38975  17.176   5.637  13.407 -0.0506  0.1365 -0.0283
23359W        W38976   6.062   4.013   3.038 -0.2207  0.1309 -0.1423
23360W        W38977   1.438  14.435   5.613 -0.0864 -0.1377  0.2689
23361W        W38978  13.929   8.943  14.454 -0.0759  0.0208 -0.1597
23362W        W38979   9.714  11.094  12.874  0.0190  0.0405  0.0224
23363W        W38980  11.629   7.781   3.633  0.0869 -0.0529  0.1274
23364W        W38981   3.635  13.541  11.630  0.0414  0.3971 -0.0148
23365W        W38982   4.387   6.438   4.787 -0.0081 -0.2798 -0.4309
23366W        W38983   2.120   1.272  16.110 -0.0261  0.0452  0.2000
23367W        W38984   3.596  16.814   4.253  0.1292 -0.0812  0.1999
23368W        W38985  17.026  12.215  11.412  0.1329 -0.2074  0.2688
23369W        W38986  10.238   8.384  12.078 -0.1752  0.0274  0.2263
23370W        W38987  13.936  11.800  15.470 -0.1069  0.1597  0.1419
23371W        W38988   1.415  16.938   1.771  0.1273 -0.2664  0.1532
23372W        W38989   3.152  10.672  11.475 -0.1222  0.3850  0.4427
23373W        W38990   9.261  17.341  12.284  0.0775 -0.0190 -0.0935
23374W        W38991   4.637   6.973  16.084  0.1233 -0.0896  0.0659
23375W        W38992   6.272   2.702  14.524  0.2804 -0.1269 -0.1374
23376W        W38993  18.228  18.227  14.518 -0.3489 -0.2024 -0.0010
23377W        W38994   1.133  16.268  13.322  0.1869 -0.2104  0.2204
23378W        W38995   9.665   9.631   1.037  0.1697 -0.1593  0.0171
23379W        W38996   5.263  14.909   0.089  0.5246 -0.2221  0.2698
23380W        W38997   7.339  14.773  12.607  0.1435 -0.1046 -0.0294
23381W        W38998  15.099   2.137   3.900 -0.0819 -0.2414  0.0244
23382W        W38999   0.887  18.123  14.504  0.0042 -0.1316 -0.0392
23383W        W39000   9.680  14.245   2.301 -0.2748 -0.1893  0.0601
23384W        W39001  11.892   8.609  11.822  0.1666 -0.3768  0.1567
23385W        W39002   5.075   0.797  10.453 -0.0644 -0.1056 -0.0090
23386W        W39003   6.317   9.464   2.711 -0.3898  0.0370  0.1814
23387W        W39004   3.416  17.160  15.130  0.0438 -0.1320  0.2929
23388W        W39005   3.489  16.860  15.590  0.2947 -0.0196 -0.1938
23389W        W39006   8.325   6.032   2.359  0.0237  0.2765 -0.1384
23390W        W39007  10.445   7.741  11.137  0.0820 -0.0531 -0.0345
23391W        W39008  10.099   2.991  12.498 -0.1866 -0.2371 -0.0222
23392W        W39009   6.558  15.835  14.861 -0.2946  0.3164  0.0455
23393W        W39010   0.781  15.215   3.242  0.1100 -0.1481  0.0860
23394W        W39011   5.421   4.369  11.491  0.0189 -0.0129 -0.2497
23395W        W39012  18.108  14.167   0.656 -0.1483 -0.1436  0.0570
23396W        W39013   6.852  12.044  14.595  0.2888 -0.1006  0.0100
23397W        W39014   4.670  16.355  15.990 -0.1829  0.2442  0.2350
23398W        W39015  12.007   9.873  14.227 -0.0858  0.1478  0.0615
23399W        W39016  14.083   9.247  11.317  0.1644  0.0195 -0.0034
23400W        W39017   6.160   4.077   2.519 -0.0378  0.2739  0.2065
23401W        W39018   9.589  11.421   0.587  0.0880 -0.0732  0.1979
23402W        W39019   5.336  14.446   1.845  0.0091  0.0121  0.0770
23403W        W39020  16.897   1.642   5.478 -0.2285  0.0256  0.0134
23404W        W39021   1.537   8.853   4.941 -0.0360  0.2727 -0.0376
23405W        W39022   5.925   2.899  13.620 -0.3314  0.0602  0.2134
23406W        W39023   3.465   0.069   2.943  0.2568 -0.1868  0.1116
23407W        W39024  13.510  15.643   1.624  0.1741  0.1324  0.1200
23408W        W39025   4.016  15.895   0.500 -0.3404 -0.1272  0.1889
23409W        W39026  18.420   3.075   1.316 -0.2961 -0.0519  0.0938
23410W        W39027  12.557   3.591  12.839  0.0016  0.5297  0.0072
23411W        W39028   6.598   6.151   3.294  0.1807 -0.1696  0.1007
23412W        W39029   0.220   8.965  16.025 -0.0042 -0.0570 -0.1997
23413W        W39030  16.118   2.763  12.867 -0.0975 -0.4176  0.0053
23414W        W39031  14.266   2.259  10.984 -0.0586 -0.1658 -0.0091
23415W        W39032   1.855   2.677  15.593  0.2124 -0.0301 -0.0190
23416W        W39033   0.580  18.019   2.100 -0.2750 -0.0568  0.2257
23417W        W39034   1.820  11.892   2.525  0.0497 -0.1353  0.0484
23418W        W39035  13.894   2.656  13.269 -0.0822  0.0924 -0.0194
23419W        W39036  13.026   9.750   3.142 -0.0482 -0.1532 -0.0689
23420W        W39037   4.294   1.826   3.194  0.0413 -0.1988  0.4196
23421W        W39038   8.926  13.007   4.575  0.5859 -0.0376 -0.1205
23422W        W39039   3.607   1.043   3.450 -0.1339 -0.2837 -0.1727
23423W        W39040  16.708   7.145   5.793 -0.3106  0.0433  0.1033
23424W        W39041   8.138   3.105  15.746 -0.0069  0.2381 -0.1059
23425W        W39042   6.894  15.188   5.434  0.0460  0.0135  0.3315
23426W        W39043   4.308   5.466   4.441 -0.1315 -0.1915  0.2225
23427W        W39044   6.144   1.565   4.521 -0.2492 -0.0653  0.0797
23428W        W39045   7.256  17.874   2.342  0.1020  0.1521  0.0460
23429W        W39046  17.844   4.265   4.307 -0.2265 -0.1760  0.1243
23430W        W39047  12.236   9.213   2.880  0.0985 -0.0110 -0.1772
23431W        W39048  15.340   6.577  12.676 -0.0459 -0.0358 -0.0364
23432W        W39049   7.661   7.538  10.192  0.0493 -0.3062  0.2106
23433W        W39050   4.289  16.268  11.424  0.0757  0.2278 -0.0033
23434W        W39051  14.350  14.962  15.736  0.0067  0.2149  0.1198
23435W        W39052   7.709  17.757   1.074 -0.0330 -0.1035 -0.0435
23436W        W39053   4.493   5.047   4.674 -0.1597 -0.1986  0.2521
23437W        W39054  18.394   8.467  14.890  0.1630 -0.0528  0.0147
23438W        W39055  12.065   0.613   5.094  0.1948  0.4669 -0.1419
23439W        W39056   8.239  15.232   4.516  0.3115  0.1277  0.1803
23440W        W39057   6.673   7.613  15.347  0.0537  0.0294  0.2455
23441W        W39058  14.949   7.878   3.002  0.0777  0.1139 -0.3940
23442W        W39059  10.249   3.118  10.934  0.2696 -0.0402 -0.0878
23443W        W39060   2.210  13.260   2.959 -0.2763  0.0645 -0.1994
23444W        W39061   1.613   5.025  11.436 -0.3201 -0.0391 -0.0617
23445W        W39062   3.380  17.760   4.233 -0.0008  0.2231  0.1979
23446W        W39063   3.186   6.455  13.920  0.0673 -0.0806  0.0630
23447W        W39064  16.309   2.796   0.470  0.0319 -0.2438  0.0540
23448W        W39065   7.511   3.315  13.868 -0.0478  0.1697  0.0593
23449W        W39066  15.072  11.329   1.900 -0.2849  0.4644  0.1718
23450W        W39067  13.381  10.689  14.845 -0.1806  0.0466  0.4145
23451W        W39068   0.195  15.302  15.366  0.1997  0.2257  0.0561
23452W        W39069   5.189  13.820  14.170  0.1700  0.0329 -0.0667
23453W        W39070  12.804  17.950   5.406  0.0146  0.1034  0.0754
23454W        W39071   1.309   4.052   4.709  0.1107  0.3000  0.1055
23455W        W39072   1.540  17.209  12.823  0.2042  0.0875 -0.1224
23456W        W39073   3.736  14.636   2.399  0.2159  0.1217 -0.0331
23457W        W39074  13.523   4.144   1.226 -0.0119  0.2347 -0.3170
23458W        W39075  15.620  17.767   0.754 -0.0377 -0.0274 -0.1136
23459W        W39076  10.213  12.927   0.594 -0.2707 -0.0821  0.1043
23460W        W39077   1.124  14.271   1.756 -0.4632 -0.1057 -0.1043
23461W        W39078   8.885   5.984   3.212 -0.0258  0.1008  0.2937
23462W        W39079   3.539   0.296  12.322 -0.2880  0.1857 -0.1743
23463W        W39080   6.397  14.449  13.101  0.1241 -0.0222 -0.1121
23464W        W39081  10.532  15.675   5.410  0.0990  0.1589  0.0652
23465W        W39082   9.862  16.756   4.631  0.1155  0.0716 -0.0172
23466W        W39083  12.229   9.833  12.209 -0.1333  0.0308  0.0612
23467W        W39084  13.551   7.933  12.607 -0.4147  0.1675 -0.3541
23468W        W39085   2.515  15.071   1.227 -0.0174 -0.4060  0.3576
23469W        W39086  17.364   7.101   0.621 -0.2745 -0.0840 -0.3499
23470W        W39087   2.920   5.508   0.949 -0.0715  0.3160  0.0419
23471W        W39088   5.675   5.645  12.343  0.0358  0.3448  0.1819
23472W        W39089  13.800  13.009   1.060  0.1727  0.1318  0.2772
23473W        W39090  15.342  15.260   1.178  0.2231  0.1090 -0.1330
23474W        W39091   8.696   4.751   3.662  0.3356 -0.0763  0.0097
23475W        W39092  10.679   6.495   0.636  0.1721  0.1685  0.2145
23476W        W39093  17.160   7.645  15.680  0.3540 -0.1830  0.1735
23477W        W39094  16.064  10.038  15.987  0.0532 -0.1441  0.0372
23478W        W39095   4.839   8.076   0.300 -0.1241 -0.0163  0.1769
23479W        W39096  17.881   9.377   3.088  0.3282  0.2285 -0.2013
23480W        W39097   6.278   9.366  14.016  0.0839 -0.0913  0.0917
23481W        W39098  13.956   8.508   0.731  0.0890  0.0387 -0.1147
23482W        W39099   5.453  18.330   3.879  0.1642  0.0252  0.2929
23483W        W39100   0.285   5.323   0.609  0.0500  0.1586 -0.2820
23484W        W39101   3.284   5.414  12.998  0.0805 -0.3290  0.3407
23485W        W39102  15.746  14.930   2.053 -0.1566  0.0530  0.0740
23486W        W39103   9.030  10.159  14.398  0.0257 -0.5160  0.0911
23487W        W39104  10.565  18.129   4.948 -0.2130  0.1387 -0.1428
23488W        W39105   1.603   3.521   3.459 -0.1268 -0.3532  0.2285
23489W        W39106   7.561   6.435  12.328  0.1080  0.2306 -0.1991
23490W        W39107   0.286   2.289   3.724 -0.0042 -0.1055 -0.2791
23491W        W39108  15.750   7.381  13.166 -0.1696 -0.2483 -0.0322
23492W        W39109  17.697   9.216  12.964  0.2886 -0.0703 -0.0028
23493W        W39110   2.501  17.139  11.973  0.1634  0.0986  0.3316
23494W        W39111  15.171  12.156  14.776  0.4891  0.0599  0.1032
23495W        W39112   3.088  17.155   0.563 -0.0866 -0.2541 -0.2860
23496W        W39113  15.553   1.966  13.511 -0.1832 -0.3802 -0.1277
23497W        W39114  16.602  18.371  15.976 -0.1627  0.1228  0.0797
23498W        W39115  10.157   5.466  14.301  0.0034 -0.4064  0.0573
23499W        W39116   7.243  15.290  13.849  0.0330  0.0655 -0.0652
23500W        W39117  15.003   8.366   2.053 -0.3874 -0.1305  0.3611
23501W        W39118   4.371   2.454  10.748  0.0599 -0.1018 -0.1150
23502W        W39119  15.649  13.240  11.381  0.1654 -0.0138 -0.0155
23503W        W39120  12.816  11.107  13.779  0.1506 -0.0017  0.2052
23504W        W39121   6.398   4.242  11.616 -0.0166  0.1244 -0.3574
23505W        W39122   1.690  14.756  10.506  0.2880  0.1144  0.1576
23506W        W39123  12.857  13.611  15.147 -0.0769 -0.3555 -0.2904
23507W        W39124  17.254   5.407   0.858  0.0756 -0.3204 -0.0724
23508W        W39125   6.325  11.128  12.823 -0.0458 -0.0708 -0.1116
23509W        W39126  14.104  16.676   1.056  0.1827  0.2350  0.0926
23510W        W39127   2.461   8.746   1.162  0.2680  0.1498 -0.2030
23511W        W39128   7.849  12.244  15.363  0.0687 -0.0673  0.2343
23512W        W39129  12.853   5.338  14.048  0.2125  0.0369  0.4045
23513W        W39130  14.228   1.299   3.407 -0.1804  0.1045 -0.0064
23514W        W39131  18.440  10.950  12.071  0.0419 -0.2732  0.1436
23515W        W39132  10.980   7.399   0.176  0.1495  0.0625 -0.1962
23516W        W39133  15.620  17.448  13.533 -0.0118 -0.0034 -0.1815
23517W        W39134  11.499   8.726   1.349  0.2299  0.1091 -0.0962
23518W        W39135  11.876  17.926  11.962 -0.2215  0.1597 -0.2008
23519W        W39136  11.488   8.800   0.823 -0.1879  0.0207  0.0497
23520W        W39137  16.450   0.972  12.950  0.0878 -0.0142  0.1386
23521W        W39138  16.800   4.592   2.326 -0.0870  0.0127 -0.1277
23522W        W39139   2.995  17.062   1.121 -0.1725 -0.4370 -0.1182
23523W        W39140  17.071  14.833   5.933 -0.0622  0.0170  0.0989
23524W        W39141   5.748  11.211  12.598  0.1762  0.2187 -0.0644
23525W        W39142   6.909   8.000   0.500  0.0470 -0.0327 -0.1450
23526W        W39143   3.450  12.292  13.941  0.0476  0.0128 -0.0659
23527W        W39144  14.805   0.208   5.572  0.0121 -0.0333 -0.5090
23528W        W39145  17.513   3.685   0.529  0.1956  0.2451 -0.1824
23529W        W39146   9.472  14.606   3.310  0.1037 -0.0622 -0.2385
23530W        W39147  14.965   8.767  11.736  0.0417 -0.1562 -0.1444
23531W        W39148  12.560  12.469   0.200  0.0934  0.2526  0.1334
23532W        W39149   8.880  17.673  14.638  0.0903  0.0152 -0.2438
23533W        W39150  11.895   2.032   5.425  0.1182  0.0957 -0.1104
23534W        W39151   4.625  16.840  15.041 -0.1200 -0.1245 -0.1181
23535W        W39152  11.562   7.871   4.181  0.2769  0.2239 -0.0740
23536W        W39153  15.906  10.403  12.605  0.3229  0.2591  0.0040
23537W        W39154  10.684  11.908   4.606 -0.2024  0.1729  0.0469
23538W        W39155   8.381  13.594   5.804 -0.2602  0.0532  0.0812
23539W        W39156   1.555  14.855   4.362 -0.0434  0.2548  0.0259
23540W        W39157   9.047   1.183   1.606 -0.2010  0.1937 -0.5441
23541W        W39158  11.490  13.676  12.208 -0.0000 -0.0842  0.1847
23542W        W39159  16.677   9.657  11.492  0.2943  0.0039 -0.2388
23543W        W39160  14.972   7.567   0.922  0.0769  0.1312 -0.1659
23544W        W39161   7.942   3.652  13.691  0.1157 -0.0627  0.5136
23545W        W39162  10.467  10.882   1.759  0.1250 -0.1398 -0.2382
23546W        W39163   8.655  12.759  13.231 -0.2057 -0.2506  0.3000
23547W        W39164   2.849   1.232  13.930  0.1124 -0.0636  0.2080
23548W        W39165   1.513   9.399  10.250 -0.2806  0.1245 -0.0929
23549W        W39166   8.600   4.269  15.226 -0.1044  0.1738  0.2517
23550W        W39167   2.145  11.042   5.861 -0.0924 -0.2240  0.1450
23551W        W39168   7.874   0.808  15.238  0.2959  0.0174 -0.0157
23552W        W39169   9.664   4.885  14.725  0.2528  0.1499  0.2720
23553W        W39170   6.217   1.046  11.837 -0.1909  0.1854 -0.1884
23554W        W39171  11.491  16.381  12.464 -0.3769  0.3257  0.2172
23555W        W39172   5.825   6.121   0.734  0.4771  0.0672 -0.2106
23556W        W39173  11.073  11.225  13.108 -0.0065  0.0014  0.3522
23557W        W39174  17.836   1.850   3.632 -0.0717 -0.1386  0.3175
23558W        W39175   2.472  13.972  10.463  0.0087 -0.1769 -0.0223
23559W        W39176  17.674   1.709  13.242  0.1197 -0.2121 -0.1822
23560W        W39177   8.937  14.521   4.787 -0.0517 -0.0772  0.1811
23561W        W39178   5.091   1.266  15.350  0.0608  0.1012 -0.3094
23562W        W39179  18.181   8.993   4.245  0.2128 -0.0234  0.3717
23563W        W39180  14.337   6.811   2.906 -0.0261 -0.0353  0.1286
23564W        W39181   1.304   8.409   0.833 -0.1247  0.0518 -0.0512
23565W        W39182  12.784   0.673   2.700 -0.1304  0.1740 -0.4159
23566W        W39183   1.472   4.611  11.750  0.1351 -0.1044 -0.1356
23567W        W39184   9.349   2.342   1.333  0.0110 -0.1211  0.0330
23568W        W39185  15.384   9.019   1.270 -0.2954  0.2531  0.1926
23569W        W39186   8.618  14.973  13.728  0.0212  0.1376 -0.1539
23570W        W39187   9.664  13.916  14.510  0.0173 -0.0681 -0.1306
23571W        W39188  17.111  16.308   1.125 -0.0374 -0.4398 -0.1547
23572W        W39189  13.637  16.762  13.723  0.1421  0.3146 -0.0752
23573W        W39190  10.594   9.566  13.093  0.1432  0.0365 -0.2188
23574W        W39191  12.711   3.728  11.820  0.2667 -0.1238 -0.0390
23575W        W39192  10.741   9.774  10.639 -0.1018 -0.0164 -0.1403
23576W        W39193   0.645   5.409   2.944 -0.0355 -0.0089 -0.4824
23577W        W39194   9.814  15.538  11.641  0.2014 -0.2430  0.1333
23578W        W39195   6.206  12.324   0.404 -0.0648 -0.1133 -0.1365
23579W        W39196   2.183   6.364  15.861  0.1961  0.1379  0.2754
23580W        W39197  13.282  15.067   2.405 -0.1966 -0.1101  0.1531
23581W        W39198   5.748   2.187  12.323 -0.2241 -0.0942  0.4968
23582W        W39199   7.528   0.368   1.306  0.0900  0.1187 -0.0702
23583W        W39200   6.782  16.259   5.286 -0.3399 -0.1384  0.0540
23584W        W39201   0.898   8.791   6.113  0.1098  0.3764  0.0399
23585W        W39202  13.832  11.724   2.351  0.0616 -0.1685  0.0710
23586W        W39203  12.700  11.442   0.345  0.2018  0.0846  0.1188
23587W        W39204   7.102  14.082  15.413  0.0175  0.2188  0.2064
23588W        W39205   9.644  16.604  12.739  0.0130 -0.1668 -0.2167
23589W        W39206   2.272   2.023   1.874  0.1334 -0.0588  0.1271
23590W        W39207  14.026   9.419  14.682 -0.0346  0.2100  0.0604
23591W        W39208   9.103   6.085  15.345 -0.1863 -0.3477  0.0082
23592W        W39209  12.787   5.366   3.711 -0.0294  0.0082  0.1590
23593W        W39210   5.823   1.056   1.682 -0.0545  0.4069  0.1755
23594W        W39211  17.738  16.398   5.956 -0.2060 -0.0227 -0.3448
23595W        W39212   8.528  11.782  14.036 -0.2490 -0.2113  0.2831
23596W        W39213  17.854   8.040   4.736  0.1874 -0.1939 -0.1954
23597W        W39214   0.654   4.188  11.460  0.2300 -0.1631 -0.0994
23598W        W39215   6.769   9.722  11.722 -0.2352  0.2024  0.1922
23599W        W39216   6.408  10.162  10.948 -0.0580  0.4046  0.0213
23600W        W39217  13.598   9.211  12.565  0.0258 -0.3045  0.1587
23601W        W39218   3.809   4.122   3.943  0.3854  0.0505 -0.0468
23602W        W39219  18.274   7.759   3.055 -0.0674 -0.2000 -0.0446
23603W        W39220  14.852  15.105   3.350  0.2874  0.3427  0.1820
23604W        W39221   5.502   2.741   2.993  0.0466 -0.3085 -0.0515
23605W        W39222  12.246  12.001   4.939  0.1733 -0.0427  0.3803
23606W        W39223   5.948  10.488   4.261 -0.1046 -0.1756  0.4017
23607W        W39224  16.967   8.024   5.140  0.1573 -0.3423 -0.0980
23608W        W39225  14.367   4.848   4.466 -0.1532  0.0506  0.0729
23609W        W39226  17.510   0.128   4.329  0.2951  0.3010 -0.1554
23610W        W39227   3.113   9.368  13.095  0.2211  0.0509  0.0195
23611W        W39228   6.425   1.845  13.049 -0.0914 -0.1364  0.0607
23612W        W39229   4.987   9.515   3.716 -0.1712 -0.2296 -0.0628
23613W        W39230   8.069   2.410   2.103  0.0783  0.0644 -0.2202
23614W        W39231  12.901  12.704   4.197  0.0784  0.1292 -0.0037
23615W        W39232   4.272  10.401  12.658  0.2238 -0.1103  0.1581
23616W        W39233   9.661   7.615  13.670 -0.1892 -0.2000  0.2508
23617W        W39234  15.666   8.082  11.574 -0.1147  0.2417 -0.1287
23618W        W39235   2.523  12.412   1.145 -0.0274  0.0284 -0.0982
23619W        W39236   9.635  11.112   5.992 -0.2158 -0.0728  0.0364
23620W        W39237  13.424  16.374   1.153  0.1809 -0.2337  0.0228
23621W        W39238   3.741   1.430  11.416 -0.0599 -0.3739  0.0985
23622W        W39239  16.555   9.561   2.121  0.0915  0.0951  0.1560
23623W        W39240  12.148   3.399   3.338  0.1626 -0.3383  0.1491
23624W        W39241  15.200  14.678  13.902  0.2282  0.2890  0.1318
23625W        W39242  17.069  11.977  13.891 -0.2209 -0.3472 -0.2577
23626W        W39243  17.015   2.606   4.584 -0.0366  0.3745 -0.1790
23627W        W39244  15.857  12.288  14.170  0.2783 -0.3066 -0.0625
23628W        W39245   6.136  14.691   1.375 -0.0469  0.1814  0.0010
23629W        W39246  11.295   6.828   3.553 -0.0841 -0.0930 -0.2314
23630W        W39247   5.005   6.876   2.931  0.3097  0.4320 -0.0084
23631W        W39248  13.540  17.291  13.298 -0.0502 -0.1641 -0.2511
23632W        W39249  17.876   6.055  12.439 -0.0307  0.3148  0.1448
23633W        W39250   0.370   2.242   4.298  0.0497  0.0481  0.1573
23634W        W39251   9.479  10.078   4.371 -0.1875 -0.4415  0.0360
23635W        W39252  11.125  12.495  13.903 -0.0918 -0.3621 -0.1048
23636W        W39253   7.619  17.881   3.809  0.1606  0.3509 -0.4453
23637W        W39254  12.013  16.641   2.081 -0.1988 -0.4195  0.0003
23638W        W39255   7.377  15.899   2.249 -0.2002 -0.0151  0.3122
23639W        W39256   7.618   8.929   2.619  0.0170 -0.1422  0.0315
23640W        W39257   8.292   3.272  11.027 -0.1356  0.1692  0.0075
23641W        W39258  15.907   3.160  14.292 -0.2181 -0.1464  0.1734
23642W        W39259  13.421  11.237   3.435 -0.1222 -0.1918  0.1789
23643W        W39260   7.111  13.438  12.255 -0.5183 -0.0644  0.0314
23644W        W39261   5.887   4.744  11.247 -0.0443 -0.5088 -0.2751
23645W        W39262   4.331   3.269   5.019  0.0081 -0.3668  0.0381
23646W        W39263  11.580   2.493  15.170  0.0524 -0.3236  0.1371
23647W        W39264  14.070  12.680  13.296  0.4254  0.0880  0.2704
23648W        W39265   8.954   1.665   4.984 -0.0181 -0.0680  0.1667
23649W        W39266   4.187  13.398  11.729 -0.0046  0.1204 -0.1055
23650W        W39267   6.721  10.236  15.214  0.1296  0.1109  0.1179
23651W        W39268  18.325  17.595   1.178 -0.0848 -0.1619 -0.2165
23652W        W39269  15.244   9.527   2.137  0.0548 -0.3000  0.1137
23653W        W39270   7.167  14.928  15.739 -0.0630  0.0934 -0.1023
23654W        W39271   4.285   7.611   1.823 -0.1292 -0.0687 -0.1346
23655W        W39272   5.514  16.544   0.603  0.2014  0.0387  0.0744
23656W        W39273   6.985   5.599   0.219  0.1568 -0.3821 -0.3298
23657W        W39274  16.139   9.194  14.927 -0.0348 -0.1680  0.1278
23658W        W39275  10.985   3.244  15.347 -0.0077  0.0658 -0.0886
23659W        W39276   2.328   0.516  11.672 -0.0160  0.2785  0.0604
23660W        W39277  15.374  14.240  13.911 -0.5811 -0.1987 -0.1153
23661W        W39278   0.185   0.290  13.845 -0.1720  0.0670  0.1174
23662W        W39279  17.282  11.798  11.492 -0.2471 -0.3400 -0.2273
23663W        W39280   8.527   6.468   4.214 -0.2889  0.1127  0.1646
23664W        W39281  14.600   9.931   5.864  0.1432  0.0957 -0.0687
23665W        W39282   8.250   8.486   4.148 -0.2277  0.2271  0.1716
23666W        W39283   2.475   8.289   1.680  0.0922  0.2402  0.0507
23667W        W39284   2.222   7.620   4.998  0.3041 -0.1598  0.3918
23668W        W39285   7.814   8.893   1.004  0.2751 -0.0198  0.1234
23669W        W39286  14.747  12.539   4.444  0.0365  0.0602 -0.0876
23670W        W39287   5.689  16.242   0.221  0.0934  0.1012 -0.2373
23671W        W39288   2.192  13.798   5.067  0.0251  0.1309  0.0490
23672W        W39289  16.021   3.952  13.253 -0.2898 -0.3338  0.2893
23673W        W39290  15.884   4.007   3.295  0.1204 -0.1742 -0.1302
23674W        W39291  15.778  12.999   2.957  0.2435  0.1295  0.3523
23675W        W39292  16.163   4.224   4.363 -0.2158 -0.1054 -0.1278
23676W        W39293   3.042  12.101  12.824 -0.0008 -0.4474 -0.2530
23677W        W39294  14.379  17.465   6.124  0.3330  0.1885 -0.0221
23678W        W39295   0.785  14.868   4.873 -0.1486 -0.0831 -0.0727
23679W        W39296  15.882  13.594   3.069  0.1441 -0.0582 -0.3543
23680W        W39297  15.978  13.893   4.153  0.0137 -0.1414  0.4750
23681W        W39298  12.257   6.955  12.475  0.0735 -0.3407  0.0261
23682W        W39299  16.482   9.414   1.062  0.1766  0.3368 -0.1600
23683W        W39300  13.295   8.378   2.515  0.0950  0.1384  0.1528
23684W        W39301  16.150   1.166   0.285  0.4305 -0.0065 -0.0874
23685W        W39302  13.113  14.518   3.148 -0.4124  0.2029  0.0608
23686W        W39303  10.601  12.860   4.754 -0.0955 -0.0116  0.3008
23687W        W39304  15.980   0.181  12.947  0.1370 -0.1297  0.0106
23688W        W39305   1.009  12.333  14.874  0.2349 -0.3004 -0.1167
23689W        W39306   9.075   2.946  12.386  0.0797 -0.2755  0.1002
23690W        W39307  10.968   6.327   1.076  0.1694 -0.2851  0.2847
23691W        W39308   5.520  13.577  15.949  0.2906  0.1327  0.2113
23692W        W39309   5.023  13.277   3.645 -0.3322 -0.1401 -0.0376
23693W        W39310  18.123  16.433  14.871 -0.0025 -0.0822 -0.2933
23694W        W39311   3.341  16.053   2.663 -0.3361  0.0974 -0.1682
23695W        W39312  16.957   6.280  11.100 -0.0655  0.1293  0.3276
23696W        W39313  14.964  10.428  14.129 -0.0157 -0.0545 -0.1235
23697W        W39314  10.099  18.440  11.914 -0.1309 -0.2289 -0.0361
23698W        W39315  10.269  17.481  10.529 -0.0525 -0.0985 -0.0191
23699W        W39316   7.866  10.997  13.093  0.0277  0.2383  0.3656
23700W        W39317  16.480   6.493  12.540  0.2555  0.0036  0.0525
23701W        W39318  18.065   2.040  11.891  0.1432  0.1710 -0.2157
23702W        W39319  14.225   6.417  13.483 -0.2893 -0.0666 -0.0327
23703W        W39320   4.749   0.327  11.500 -0.2320  0.2837  0.0609
23704W        W39321  17.092   2.875  14.564  0.2885 -0.2831 -0.1605
23705W        W39322   9.097   4.141  12.385 -0.2165  0.0098 -0.1191
23706W        W39323   9.082  16.166  13.869 -0.0323  0.0432  0.0357
23707W        W39324  12.858  16.079   4.818  0.0012  0.0482 -0.0493
23708W        W39325   9.712  12.317   5.628  0.0743  0.1265  0.3818
23709W        W39326  11.416  12.628   4.845  0.3975 -0.1597  0.0075
23710W        W39327  15.591   0.945   2.342  0.0562 -0.1342 -0.2335
23711W        W39328  17.806   6.680  13.739 -0.1862  0.2467  0.0846
23712W        W39329   9.986   0.626   4.089 -0.1971 -0.1369  0.1513
23713W        W39330  17.964  10.213   1.856  0.1865 -0.0834  0.2081
23714W        W39331  18.045   4.528  15.418 -0.1538  0.0184  0.1447
23715W        W39332   5.492  11.552  14.540 -0.4227 -0.2206  0.2575
23716W        W39333  14.874  13.824  13.684 -0.1775  0.1552  0.0481
23717W        W39334   7.427   6.895   1.953 -0.2122  0.1028 -0.0840
23718W        W39335  14.955   3.550  13.679 -0.0793 -0.0202  0.1071
23719W        W39336  14.186   2.985  13.735  0.0402 -0.0496  0.0237
23720W        W39337   7.943  14.283   2.777  0.0226 -0.0835 -0.1321
23721W        W39338   0.376   7.317  11.415 -0.2365 -0.0863 -0.0412
23722W        W39339   4.703   5.449  11.104  0.0427 -0.0137  0.0232
23723W        W39340  14.785   1.035  11.070  0.1081 -0.2682 -0.0352
23724W        W39341   4.030  15.785  13.496 -0.2303 -0.3467  0.0329
23725W        W39342   3.725   4.518   0.292  0.1624  0.0190 -0.1758
23726W        W39343   8.664  14.164   3.038  0.1584  0.0714  0.5183
23727W        W39344  17.999   8.133   3.204 -0.0888  0.1532 -0.1725
23728W        W39345   0.722  15.806  14.874  0.1148  0.0671  0.3946
23729W        W39346  17.334   3.093   2.839  0.2677  0.1133  0.3599
23730W        W39347   7.482   7.095   1.429  0.1835 -0.1042 -0.2876
23731W        W39348   3.275  14.200  12.557 -0.3311  0.0378  0.1851
23732W        W39349   1.641   0.975  13.584 -0.2330 -0.2175  0.0234
23733W        W39350  12.564   0.746   5.141  0.2008 -0.1242  0.0603
23734W        W39351   8.970  15.327  16.043 -0.0280 -0.1161  0.0562
23735W        W39352   9.441  14.164  13.749  0.0431  0.1933  0.1115
23736W        W39353   5.877   8.816   1.268 -0.2460  0.3057  0.1652
23737W        W39354   9.016   4.694   0.876  0.2128  0.0824 -0.1143
23738W        W39355   5.657   8.297  11.928  0.2515 -0.1778  0.1513
23739W        W39356   6.517  17.251  11.791 -0.3323 -0.0422 -0.0135
23740W        W39357   7.686  11.623   6.221 -0.2937  0.3278  0.3251
23741W        W39358   6.251  12.731  14.374 -0.0174 -0.0087  0.0804
23742W        W39359   5.132   4.296  13.719  0.2251 -0.0407 -0.1073
23743W        W39360   8.823   4.057  11.532  0.0546 -0.3175 -0.1199
23744W        W39361   7.278  12.605   6.023  0.1175 -0.0915  0.2294
23745W        W39362  16.144   6.026   0.942  0.1964 -0.2987  0.0691
23746W        W39363   8.940  13.858  11.966  0.2211  0.0297  0.1188
23747W        W39364  13.861   7.944  12.166 -0.1236  0.0954  0.4725
23748W        W39365  11.418  17.604   5.647 -0.0870  0.0228 -0.0039
23749W        W39366  17.473  10.671   1.903  0.3972  0.2620  0.0941
23750W        W39367  12.390  14.319   5.398  0.0148 -0.1347 -0.0189
23751W        W39368  10.370   2.805  11.426 -0.1521  0.0804  0.0628
23752W        W39369   5.599   2.723   0.891  0.1223 -0.1322  0.1597
23753W        W39370  12.141   8.805   2.052  0.1704 -0.1035 -0.1235
23754W        W39371   8.690   1.502   3.747  0.0425 -0.0964 -0.1962
23755W        W39372   4.899  11.023   4.636 -0.2005 -0.3678 -0.0401
23756W        W39373  15.342   3.315   4.842  0.0039  0.1610 -0.1710
23757W        W39374   6.626   9.902  12.348 -0.0651  0.1841  0.1920
23758W        W39375   6.068   2.049   4.108 -0.0574 -0.0609  0.1306
23759W        W39376   3.587  18.304   3.474  0.1316  0.0350 -0.1184
23760W        W39377   0.180  12.407  13.135  0.1253 -0.2079  0.0815
23761W        W39378   4.123   9.643  11.799  0.1327 -0.0931  0.1136
23762W        W39379  11.080  18.200   2.802  0.3571  0.0660  0.0440
23763W        W39380   8.462   2.354   3.457 -0.1630 -0.0335 -0.2486
23764W        W39381   3.837  17.067   5.603  0.0460 -0.2386 -0.1922
23765W        W39382   1.744   1.888   4.264 -0.0365 -0.1006  0.0367
23766W        W39383  14.891  10.605  11.581 -0.1019  0.1159  0.2698
23767W        W39384  12.901   9.489  15.958 -0.5010  0.1471  0.1324
23768W        W39385   1.001   8.608  14.255  0.1006 -0.2313 -0.1132
23769W        W39386  16.155   1.129   1.278 -0.0502 -0.1505 -0.0785
23770W        W39387   9.470   0.860   0.536  0.1159 -0.1382 -0.3901
23771W        W39388   8.396  10.107   1.059 -0.1573  0.3963  0.0910
23772W        W39389   1.798  13.285   2.286 -0.3171  0.3518 -0.0022
23773W        W39390  10.378  11.930  15.286  0.2270 -0.0469  0.1607
23774W        W39391   2.796  17.473   2.994  0.0557 -0.0075 -0.1297
23775W        W39392  13.447   4.675   1.223 -0.2268 -0.1102  0.0354
23776W        W39393   4.229  12.702  12.584  0.1190  0.0808 -0.1930
23777W        W39394   8.198   8.705   0.715 -0.2827 -0.0264 -0.1627
23778W        W39395   2.464  18.067   2.058  0.2050  0.2330  0.2982
23779W        W39396   7.869  16.606  11.404 -0.1409  0.1798  0.0319
23780W        W39397   7.758   8.962  14.125 -0.0690  0.2115  0.2113
23781W        W39398   3.792  11.881   4.944  0.0324 -0.0339 -0.0585
23782W        W39399   1.309   8.441   3.761  0.2834  0.1641 -0.0830
23783W        W39400   4.583   5.876   4.687  0.1147 -0.3414  0.0650
23784W        W39401   2.303   9.592   3.803 -0.2481 -0.1368  0.0972
23785W        W39402   4.917  11.540  12.420  0.0532  0.0157  0.0026
23786W        W39403  10.850   6.099  10.854 -0.0559 -0.4527 -0.0630
23787W        W39404   8.123  17.098  15.364 -0.1501  0.1647 -0.2379
23788W        W39405   5.685  10.495   5.201 -0.1994  0.0822 -0.1789
23789W        W39406   2.347   6.732   4.534  0.0756 -0.1263  0.2155
23790W        W39407  12.977  16.779   6.039  0.2795 -0.0426  0.0855
23791W        W39408  18.299   4.503   4.087  0.0444 -0.2952 -0.0684
23792W        W39409  14.542   8.848  11.456 -0.0119 -0.0527 -0.0252
23793W        W39410   7.038   7.837  11.631 -0.0903 -0.0862  0.2245
23794W        W39411  17.112   6.845  14.950  0.0785 -0.2046 -0.1174
23795W        W39412  10.782   1.263   4.397 -0.0494 -0.1108 -0.1082
23796W        W39413   6.292   6.961  10.630 -0.2356  0.0266 -0.2670
23797W        W39414  18.060   1.853  16.116 -0.0483  0.2687  0.0868
23798W        W39415   3.214   9.072   3.079  0.1321  0.0583  0.1526
23799W        W39416   4.287  12.668  13.966 -0.1683 -0.1534  0.1080
23800W        W39417   7.437  14.658   1.245 -0.0068  0.0200 -0.0039
23801W        W39418   2.154   6.211  14.021 -0.1783 -0.4715 -0.3396
23802W        W39419  12.930  14.853  13.421 -0.2061 -0.0356  0.1985
23803W        W39420   2.944  15.254   3.385 -0.1259 -0.0105 -0.1527
23804W        W39421   0.417  16.106   0.461 -0.3292  0.2501 -0.0439
23805W        W39422   5.493  10.741   1.315 -0.1999 -0.2180 -0.1828
23806W        W39423  15.683   2.688   4.416 -0.2785 -0.0021 -0.2131
23807W        W39424  10.665   5.546   2.120  0.1921 -0.0803 -0.1634
23808W        W39425  11.838   4.720  15.598  0.0028  0.1937  0.1397
23809W        W39426  14.928   8.443   5.690 -0.0555 -0.0323  0.0284
23810W        W39427  15.520  13.988  13.008  0.1810  0.2933 -0.0569
23811W        W39428   1.111  11.548  12.850 -0.1797  0.1227  0.1819
23812W        W39429   4.080   3.824   3.592 -0.4719  0.2930 -0.6814
23813W        W39430   1.016   9.031   3.362  0.1767 -0.2728 -0.0786
23814W        W39431   7.502  16.480  14.101 -0.1279 -0.0300 -0.1723
23815W        W39432   5.526  16.774   1.837  0.2143 -0.2909 -0.4573
23816W        W39433  18.274  18.023   3.086 -0.2345  0.0426 -0.1143
23817W        W39434  17.919  13.930   4.922 -0.0713  0.0842 -0.0746
23818W        W39435   3.664   7.460   5.423  0.0045 -0.0677 -0.1447
23819W        W39436   2.024   1.801   3.441  0.3045 -0.5240  0.1151
23820W        W39437   9.560  11.978   5.968  0.2609  0.0381 -0.0909
23821W        W39438  10.267  12.332   6.350  0.1837  0.1093  0.0454
23822W        W39439  14.210   7.832   2.610 -0.3774  0.1980 -0.0367
23823W        W39440  18.208  12.377  13.450 -0.1427  0.1506 -0.1893
23824W        W39441  10.574   4.539  10.739 -0.0605 -0.1498  0.1864
23825W        W39442   4.651   8.905  14.927  0.2280  0.0732 -0.0697
23826W        W39443   2.292   7.753  12.942 -0.1847  0.0595 -0.0071
23827W        W39444  14.997  10.627   4.073 -0.1869 -0.0257 -0.1870
23828W        W39445  13.986   2.710   3.523 -0.1155  0.1170 -0.0030
23829W        W39446   3.773   5.410  12.894 -0.1692  0.1072 -0.0142
23830W        W39447  17.185  11.346  10.222  0.0314  0.0297 -0.0614
23831W        W39448   5.042   4.697  11.256  0.2588 -0.0976  0.3518
23832W        W39449  17.536  16.289  11.530  0.2355  0.1941  0.0897
23833W        W39450   3.450   7.110   5.056  0.1531 -0.3584 -0.0609
23834W        W39451  12.274  10.320  14.174  0.0918  0.1234 -0.1512
23835W        W39452  13.398  17.179  10.120 -0.1316  0.0118  0.0403
23836W        W39453  18.270   7.725   3.616 -0.0596  0.2788  0.1466
23837W        W39454  10.334   5.445  12.177 -0.3377 -0.1602  0.1723
23838W        W39455  17.594  15.060  12.238 -0.0699  0.1886  0.1521
23839W        W39456  10.077   8.920   2.756  0.0213  0.0874 -0.0684
23840W        W39457   5.469  10.180  12.768  0.0398 -0.0095 -0.1635
23841W        W39458  17.591  13.193  12.372  0.1486 -0.4907  0.1548
23842W        W39459   2.624  14.679   2.299 -0.1310 -0.2020  0.2513
23843W        W39460   0.414  17.695  11.987  0.1549 -0.3120 -0.1889
23844W        W39461   9.383  16.345   3.612 -0.0512  0.3105 -0.0897
23845W        W39462   2.412   9.815   4.240  0.1427 -0.1502  0.2201
23846W        W39463  14.601  16.931   1.227  0.1842 -0.2204  0.3252
23847W        W39464   5.529  10.375   0.376 -0.2524 -0.0161 -0.0855
23848W        W39465   2.662   2.890  11.615  0.1841  0.3440  0.1800
23849W        W39466   4.115  14.523  13.495 -0.0741  0.2992  0.0932
23850W        W39467  14.584   8.490  13.681 -0.1145  0.1123  0.1781
23851W        W39468   6.672   1.559   2.416 -0.0471 -0.3614 -0.2221
23852W        W39469   3.973   8.985   1.091  0.1807  0.0000 -0.1531
23853W        W39470  18.061   1.609   2.727  0.0664  0.0433  0.0497
23854W        W39471  13.217  12.087   5.355  0.0645  0.0883 -0.1369
23855W        W39472   0.146  14.443   5.623  0.0776 -0.1650  0.0894
23856W        W39473  15.885   4.443  13.323  0.3053  0.1676 -0.0861
23857W        W39474  12.328  13.700  15.137 -0.2406 -0.0458  0.0500
23858W        W39475   5.753   1.257  11.998 -0.0433 -0.1120 -0.4315
23859W        W39476   9.861   4.536   4.534 -0.1271  0.0273 -0.1354
23860W        W39477  14.980  17.871   3.585  0.0033  0.1514  0.1696
23861W        W39478   1.630  16.035   4.944  0.0210  0.2451 -0.1375
23862W        W39479   9.441   6.541  15.933  0.2951  0.1063  0.1545
23863W        W39480   9.595  13.476   3.962 -0.0388  0.2536 -0.2136
23864W        W39481   8.665   1.902   1.164 -0.2214 -0.5936 -0.0935
23865W        W39482   6.376  17.219  14.208  0.1498  0.4234 -0.1440
23866W        W39483   6.067   3.944   1.221 -0.3224 -0.2134  0.4009
23867W        W39484  12.232   8.675   3.271  0.2395 -0.0434 -0.3506
23868W        W39485   8.969  13.713   5.994  0.0135  0.0525 -0.0341
23869W        W39486  10.161  16.551  15.045 -0.2214 -0.1646 -0.4151
23870W        W39487   1.626  16.460   2.195 -0.1421  0.0497  0.1236
23871W        W39488   4.604  11.182  13.261  0.0655  0.3130  0.0636
23872W        W39489   5.563  18.000   3.508  0.0608  0.2906 -0.0083
23873W        W39490   4.398   3.983   3.237 -0.1614 -0.0094 -0.1898
23874W        W39491   3.097  14.441  13.465 -0.1446 -0.0751 -0.1303
23875W        W39492  13.633   1.596  11.215 -0.1635  0.0134 -0.6468
23876W        W39493   8.162  15.326   2.736 -0.0084 -0.0493  0.0416
23877W        W39494  13.197  10.837  11.578  0.0504  0.0931  0.0267
23878W        W39495   8.840  12.926   3.836 -0.2546  0.1150 -0.0790
23879W        W39496  13.697   8.141  14.048  0.2472 -0.0492 -0.1956
23880W        W39497   6.988   1.942   5.802 -0.0889  0.2632 -0.0840
23881W        W39498   1.036  16.624   3.238  0.0987  0.1821  0.0485
23882W        W39499   9.355  16.108  11.909 -0.0678  0.2138 -0.3089
23883W        W39500  16.873   2.922   0.341  0.1536  0.1119  0.3384
23884W        W39501   3.636  14.472   3.336 -0.4073  0.1613 -0.0182
23885W        W39502  13.796   5.695   4.180 -0.3507 -0.3429  0.0672
23886W        W39503  11.006   2.890   4.847  0.1666  0.0753  0.2586
23887W        W39504  12.264   8.560  12.189 -0.0771 -0.0013  0.0588
23888W        W39505   8.562  15.223  12.193  0.0857  0.0821 -0.0084
23889W        W39506   3.539  10.136   3.294 -0.2703 -0.0350  0.1617
23890W        W39507  10.044   3.672  12.567  0.3175 -0.0067 -0.0658
23891W        W39508   5.509  17.095   3.722  0.4716 -0.0268  0.0737
23892W        W39509   7.724  10.362  13.860  0.2115  0.0023 -0.2444
23893W        W39510  15.731   5.800  11.087  0.3040 -0.1580  0.1317
23894W        W39511   3.276  17.371  12.577 -0.1684  0.3393  0.2658
23895W        W39512  15.947   0.925   4.240 -0.2836  0.1314 -0.0664
23896W        W39513  10.066   4.387   3.362  0.1494  0.1895  0.0333
23897W        W39514  18.270   0.912  13.139 -0.2359  0.0713 -0.0838
23898W        W39515  11.203   5.258   1.071  0.2301  0.2248  0.2684
23899W        W39516   5.728   5.540  12.890 -0.0370 -0.0597 -0.1828
23900W        W39517   4.448  18.251  16.030 -0.1334 -0.2107 -0.0484
23901W        W39518   4.917  15.605  15.551 -0.2638  0.3214 -0.2453
23902W        W39519  13.269   8.941   1.214  0.0306 -0.0527 -0.0252
23903W        W39520  14.431  15.917   5.107  0.1709  0.1343 -0.5090
23904W        W39521   3.083   4.620   9.744  0.1098 -0.2010  0.1389
23905W        W39522   5.685  13.233   1.963 -0.2802  0.0245 -0.0519
23906W        W39523   7.873  11.775  14.516 -0.2852  0.0054 -0.2721
23907W        W39524  15.918   7.014   9.908 -0.3218  0.2455  0.2876
23908W        W39525   2.822   7.947   1.927 -0.1236  0.2774 -0.2781
23909W        W39526   8.985  16.273  14.801 -0.0171 -0.0394 -0.0482
23910W        W39527   2.585  16.586  12.128 -0.1106  0.2219  0.0380
23911W        W39528  16.960   9.255   4.614 -0.2486  0.0305 -0.0025
23912W        W39529  14.295   0.345  10.751  0.2637  0.0980  0.1020
23913W        W39530  16.409   2.082  14.184  0.1821 -0.0654  0.0792
23914W        W39531  15.538   0.050  12.095 -0.0989  0.1217 -0.0018
23915W        W39532  16.248  11.196   4.723  0.2561 -0.1369 -0.0893
23916W        W39533   0.843   0.995  12.040 -0.0609 -0.2036 -0.1280
23917W        W39534   4.710   9.606   5.806 -0.0440  0.3573 -0.0091
23918W        W39535   7.091  15.899  11.305 -0.3397 -0.0688  0.2701
23919W        W39536  12.709  12.176   1.222 -0.1696 -0.5772 -0.1833
23920W        W39537   4.186   4.038   2.751  0.2264  0.0545  0.1333
23921W        W39538   4.240  17.131   0.968  0.3038 -0.1599  0.0520
23922W        W39539  13.226  11.387   3.853  0.2039 -0.0327  0.0939
23923W        W39540   1.638   7.601  10.796  0.1350  0.2741  0.0113
23924W        W39541  11.998  16.199   2.226 -0.0292  0.0533  0.0162
23925W        W39542   4.461   7.666  14.815 -0.0952 -0.0187 -0.4286
23926W        W39543   8.013   6.824  14.474 -0.1178  0.0526  0.1003
23927W        W39544  12.465   2.400  10.786 -0.2183 -0.1941 -0.1167
23928W        W39545  14.041   2.892   1.660 -0.0658  0.0199  0.1249
23929W        W39546  12.733  16.427  11.902 -0.0964  0.0522  0.1750
23930W        W39547  15.817  10.977  14.088  0.3371 -0.0163 -0.1257
23931W        W39548  11.828   5.492   1.332  0.3298  0.1316  0.1573
23932W        W39549  16.736   0.386   2.288 -0.0626  0.0304  0.0867
23933W        W39550   4.181  15.559  12.670  0.3628  0.2058 -0.3158
23934W        W39551  10.415   4.051  10.704 -0.1850 -0.0184 -0.0943
23935W        W39552  11.833   0.457  13.355  0.1742 -0.2241  0.2953
23936W        W39553  16.402  14.488   3.856  0.1004 -0.1399  0.0604
23937W        W39554   4.160   5.542  11.077 -0.0852 -0.1900 -0.2547
23938W        W39555   8.151  12.852  13.154  0.1823 -0.0651 -0.0799
23939W        W39556   0.346  16.251   0.948 -0.1677  0.0994 -0.0050
23940W        W39557  18.211   7.114   2.341 -0.2588  0.2334 -0.4339
23941W        W39558  11.872  11.842  10.110 -0.1674 -0.1507  0.0800
23942W        W39559   3.298   7.499  14.800 -0.0113  0.0133 -0.1243
23943W        W39560   1.188  10.823   4.815  0.1118  0.0561  0.0799
23944W        W39561   8.021   0.188   3.790  0.1346 -0.0546  0.0002
23945W        W39562   0.955   3.979  13.875 -0.0987 -0.0144  0.0812
23946W        W39563   3.424  15.723   5.222 -0.0680  0.0917  0.1228
23947W        W39564  13.183   4.587   5.754 -0.1937  0.1247 -0.0218
23948W        W39565  14.510   2.190   5.156 -0.0199 -0.0771 -0.1720
23949W        W39566  14.826  18.317  14.164  0.1396 -0.1035  0.0051
23950W        W39567   9.686  11.016   2.230  0.3603  0.0170  0.2041
23951W        W39568   4.351  10.696  14.254  0.0530 -0.0414  0.0327
23952W        W39569   3.538  13.267  15.432  0.1414  0.3762  0.0569
23953W        W39570  12.808  14.871   3.335  0.2645  0.0643  0.1849
23954W        W39571  13.433   5.930  13.562  0.2932 -0.0153 -0.2345
23955W        W39572  14.894   5.195  14.968  0.0475  0.1997  0.2841
23956W        W39573  12.135   7.303  11.547 -0.2576 -0.0866 -0.1369
23957W        W39574  10.013   9.176   0.131  0.1486 -0.0831 -0.0867
23958W        W39575   2.280  16.996  15.909  0.2018 -0.1164 -0.0654
23959W        W39576   8.863  10.196   3.028 -0.1052 -0.2972  0.0135
23960W        W39577   7.121   2.394  15.504  0.1259  0.0102 -0.1180
23961W        W39578   7.916  18.256  14.587 -0.0775 -0.1920  0.4779
23962W        W39579  13.678  14.090  12.979 -0.0940 -0.0796 -0.2160
23963W        W39580   6.842  16.860  12.078 -0.0718 -0.0659  0.0071
23964W        W39581   4.549   7.744  12.084 -0.4769 -0.1339  0.0465
23965W        W39582   5.113   8.937   4.385  0.0743 -0.0432 -0.1615
23966W        W39583   8.076   7.417   1.898 -0.3028  0.3404 -0.1208
23967W        W39584   4.728   8.804  12.287  0.0243  0.0911  0.0552
23968W        W39585  11.223  16.019  12.670  0.1635  0.2603 -0.1894
23969W        W39586   4.528  14.845   5.574  0.1473 -0.0621 -0.0037
23970W        W39587   2.035  16.782   4.491  0.2195  0.0924 -0.0373
23971W        W39588   0.405  10.732  14.330 -0.0846 -0.0360  0.2074
23972W        W39589   0.999   3.790  15.854  0.2303 -0.1231  0.1082
23973W        W39590  10.817   9.857  14.382 -0.2620  0.2560 -0.1992
23974W        W39591   2.193   5.134   2.363  0.0205 -0.5835  0.1264
23975W        W39592  14.634   3.034  13.820  0.1574 -0.1579  0.0047
23976W        W39593  11.434   6.164   1.974  0.1574 -0.0255  0.0893
23977W        W39594   2.689   9.207   4.250  0.1231  0.3766  0.1046
23978W        W39595   7.969   7.313  14.382  0.4748 -0.2665  0.1393
23979W        W39596   0.901   1.138  15.496  0.1779 -0.4528 -0.1646
23980W        W39597  13.794  18.347  13.894  0.0912 -0.0379  0.3024
23981W        W39598   7.881  12.223  11.127 -0.0167  0.1272 -0.0650
23982W        W39599   9.543  10.718   5.066 -0.1746  0.3852 -0.3066
23983W        W39600  11.466  13.574   2.695 -0.0320 -0.1360  0.1359
23984W        W39601  15.747   5.740  14.535 -0.0907  0.0261 -0.1781
23985W        W39602  17.933   1.616  12.199 -0.0165  0.2300  0.2145
23986W        W39603  16.970  10.276   1.059  0.1804 -0.1539  0.1776
23987W        W39604   1.385   7.429  11.707  0.0707  0.3389 -0.3250
23988W        W39605  11.471  14.743   0.433  0.1561 -0.1642  0.0530
23989W        W39606  13.142   1.451  14.007 -0.1965  0.2124 -0.3430
23990W        W39607   5.678   2.932   4.711 -0.0729  0.0509  0.1525
23991W        W39608   3.772   8.201  12.398  0.1368  0.0097 -0.1961
23992W        W39609  15.707  13.915   5.478  0.1670  0.4570 -0.0719
23993W        W39610   2.972   1.795   5.876  0.2152 -0.0410 -0.2325
23994W        W39611   4.432  18.282   4.888  0.1199 -0.1448  0.0955
23995W        W39612  12.109  17.387  16.024 -0.1189  0.1474 -0.0878
23996W        W39613  15.431  14.957   2.493  0.1641 -0.2204  0.0634
23997W        W39614   5.049  13.407   5.252 -0.2930 -0.0651  0.2039
23998W        W39615   9.456  10.486   0.379  0.0500 -0.1710  0.2045
23999W        W39616   5.659   2.585  13.257 -0.3123 -0.3827 -0.1975
24000W        W39617  14.205  17.817  14.689 -0.0861  0.1556 -0.2483
24001W        W39618   2.257  12.731   1.526 -0.3417 -0.2317 -0.1573
24002W        W39619   6.345   1.299  14.450  0.0483 -0.1782 -0.3985
24003W        W39620   4.202  11.497  13.252  0.1569  0.1912 -0.3126
24004W        W39621   1.693   8.161  14.914 -0.2291 -0.2085  0.1942
24005W        W39622   3.280  17.145   2.960  0.2463 -0.0148  0.0744
24006W        W39623  10.470   4.297   3.047  0.1205 -0.0573  0.3959
24007W        W39624   2.493   6.356   1.650  0.1881 -0.1176 -0.0354
24008W        W39625   7.563   9.176  11.930  0.1421  0.0567  0.0613
24009W        W39626  11.943  15.437  13.389  0.0244  0.0317 -0.2773
24010W        W39627  13.155   5.043  11.565 -0.0073  0.0158 -0.3035
24011W        W39628   9.140   9.026   4.857 -0.2769  0.5043 -0.0798
24012W        W39629   8.063   8.863  10.669  0.0627 -0.1913 -0.0296
24013W        W39630   3.456   0.725  11.573  0.0012 -0.3515  0.3236
24014W        W39631  17.431  14.392  14.706  0.2713  0.0863  0.3440
24015W        W39632   5.942  10.206  12.606  0.0807 -0.0531  0.1130
24016W        W39633  16.355  16.706  14.656 -0.0198 -0.2093  0.2563
24017W        W39634  14.663   5.622  10.654  0.2489 -0.1062 -0.2006
24018W        W39635  16.835   1.022  10.840 -0.4288 -0.2673 -0.1352
24019W        W39636   7.174   9.167  10.986  0.2402  0.2627 -0.2383
24020W        W39637  12.984   0.961  13.827  0.0968 -0.3447 -0.0638
24021W        W39638  16.155   6.895  14.296  0.0286 -0.3276 -0.1753
24022W        W39639   0.852   3.072   5.085 -0.0598  0.0054 -0.2147
24023W        W39640  13.590   4.121   4.630 -0.0173 -0.0558 -0.0205
24024W        W39641   7.088   4.389  15.720  0.1977  0.2824  0.0428
24025W        W39642   3.129   2.133   4.132  0.1429  0.0987 -0.2303
24026W        W39643   0.475  11.152   1.460 -0.3704  0.3891  0.1174
24027W        W39644  14.328  17.353  15.015 -0.3666 -0.2440 -0.0533
24028W        W39645   4.041   6.762  14.051  0.1849  0.1804 -0.0143
24029W        W39646  14.051   6.277  14.987  0.3103 -0.0926 -0.0449
24030W        W39647   9.131   2.323   2.356  0.2033  0.2284 -0.3097
24031W        W39648  16.519  10.701   2.992 -0.4106 -0.2036  0.0625
24032W        W39649   3.677  11.518  14.548  0.3223 -0.3565  0.2418
24033W        W39650  18.250  18.021  12.853 -0.1134 -0.0648 -0.0902
24034W        W39651   4.501   9.903   5.015 -0.1562 -0.0242 -0.2015
24035W        W39652   2.278   8.381   3.105 -0.0111 -0.0540  0.0581
24036W        W39653   4.092   7.606   4.576 -0.0870 -0.0752 -0.0657
24037W        W39654  10.615  11.836  10.950 -0.0148 -0.0073  0.0685
24038W        W39655   5.355  10.162   0.876 -0.0801  0.2388  0.0359
24039W        W39656  10.342  16.049  13.090 -0.0672 -0.0832 -0.0873
24040W        W39657  13.345   6.007  11.085  0.0305 -0.0467 -0.1592
24041W        W39658  12.894  11.792  14.896  0.1927  0.2897  0.0393
24042W        W39659  17.971  12.092  15.328 -0.1479 -0.1635 -0.1061
24043W        W39660   7.634  14.662  16.102  0.1178 -0.0985 -0.2304
24044W        W39661  14.642  13.636   2.400 -0.2065 -0.2288 -0.0180
24045W        W39662   6.903  15.879  10.834  0.0540  0.3295 -0.1956
24046W        W39663   7.314   0.191  15.789 -0.1992  0.1600  0.0545
24047W        W39664   2.065  14.076  14.908  0.1914  0.1781  0.2014
24048W        W39665  10.615   2.874   4.493 -0.1379 -0.0883 -0.0811
24049W        W39666   4.052   6.197   0.064  0.2444  0.1847 -0.2358
24050W        W39667   2.122   0.747  11.190 -0.0224 -0.0871 -0.0583
24051W        W39668  17.891   2.808   4.405  0.0802 -0.0580  0.0059
24052W        W39669  13.685   1.798   3.058  0.3655 -0.0439  0.1155
24053W        W39670  17.588   8.851   1.350 -0.1704  0.2060  0.0754
24054W        W39671   9.321  17.752  13.272 -0.2647  0.1601  0.0245
24055W        W39672  16.205  12.264  13.825 -0.0376  0.2959 -0.1411
24056W        W39673   7.496  13.704   0.853  0.0123 -0.2201  0.0381
24057W        W39674   3.895   5.624   4.574 -0.0071 -0.0097  0.2627
24058W        W39675   8.819   2.502   2.677  0.2503  0.0763 -0.0519
24059W        W39676   1.299  17.434  12.409  0.1974  0.2640  0.1242
24060W        W39677   9.247   6.101  15.805  0.2101 -0.0723 -0.1167
24061W        W39678   9.379   3.054  13.529 -0.1811  0.0267  0.1382
24062W        W39679   5.747   7.778   1.081  0.0178  0.1086 -0.0097
24063W        W39680   7.259  15.152   1.229  0.0835  0.2519  0.4332
24064W        W39681  15.209   7.973   5.959  0.0013 -0.1543  0.1644
24065W        W39682  17.567   2.633  12.557  0.0008  0.1871  0.1582
24066W        W39683  10.232   3.844  12.164 -0.1924 -0.3809  0.0804
24067W        W39684  11.589   7.350   3.271  0.2287 -0.1038 -0.1383
24068W        W39685  15.027   2.900  15.657 -0.1534  0.0152 -0.1727
24069W        W39686  12.528  12.823  15.026  0.1113 -0.0856 -0.0563
24070W        W39687  12.891   4.440   2.519  0.1384 -0.0210 -0.0677
24071W        W39688  15.667  13.485   0.563 -0.0470  0.1755 -0.2669
24072W        W39689   7.513   0.349  10.704  0.0609  0.1198 -0.2740
24073W        W39690  14.860  16.054  11.386 -0.1975 -0.1536  0.1760
24074W        W39691   6.661   2.296   5.581 -0.1745  0.0193 -0.0351
24075W        W39692  18.237  18.427   4.733  0.2561 -0.3292 -0.2367
24076W        W39693   5.966   4.736   4.262  0.1754 -0.0756 -0.3138
24077W        W39694   2.980  12.741  12.168  0.2061  0.1735  0.1904
24078W        W39695  12.037   1.107   5.357 -0.0675 -0.0759  0.1560
24079W        W39696  18.219   1.727  11.458 -0.0855 -0.3385  0.0176
24080W        W39697   4.460   1.284   1.516 -0.1889  0.1245  0.0914
24081W        W39698   8.960  18.142  12.485 -0.2415  0.1216  0.0715
24082W        W39699   1.212   9.508  11.520  0.4893 -0.0293  0.0357
24083W        W39700   2.991  17.814   5.182  0.0585  0.2684  0.2125
24084W        W39701   3.840   5.884  12.792 -0.0291  0.1848 -0.0869
24085W        W39702  11.025  12.798   4.533 -0.3408 -0.0946 -0.0570
24086W        W39703   1.003   0.529  14.740 -0.0063 -0.1158 -0.1283
24087W        W39704  15.743   7.228  14.407  0.0797 -0.0920 -0.0332
24088W        W39705  14.636   9.803  10.476  0.2403  0.1684  0.0323
24089W        W39706   2.631   3.355   4.893 -0.1409 -0.0489  0.1558
24090W        W39707  14.295   9.003  14.854  0.0867  0.1255  0.1352
24091W        W39708  18.024   0.491  12.621 -0.3116  0.0268  0.1008
24092W        W39709  15.130   5.723  11.060 -0.0859  0.1219  0.1884
24093W        W39710   2.298   6.974   5.833 -0.0588 -0.2873  0.2199
24094W        W39711   7.497   4.112   0.936  0.0616  0.0117 -0.1494
24095W        W39712   2.561   1.772  11.929 -0.0422  0.0949 -0.1468
24096W        W39713   5.492   5.210   2.640 -0.0254  0.1192 -0.2859
24097W        W39714   1.820  17.815  14.131  0.0476 -0.2891 -0.0097
24098W        W39715   2.298   6.021   0.493 -0.1475  0.3514  0.3424
24099W        W39716   2.537   1.059   0.815  0.1569  0.2866 -0.0595
24100W        W39717   0.106  16.157  14.887 -0.1482  0.2846 -0.5345
24101W        W39718  12.239  11.808   4.442  0.2059 -0.4953 -0.0401
24102W        W39719  12.853  17.875  11.177 -0.2547 -0.3031  0.0558
24103W        W39720   8.525  14.651  12.101 -0.3252  0.1229  0.0008
24104W        W39721  14.320   0.333  11.650  0.1111  0.2135 -0.1225
24105W        W39722  10.106  16.830  13.454 -0.3404  0.0436  0.1076
24106W        W39723  11.516   5.168  13.918  0.1109 -0.2790 -0.2156
24107W        W39724  12.461  13.558  14.117 -0.0642 -0.0077  0.1674
24108W        W39725  12.555  11.346   0.798 -0.0708  0.2463 -0.0045
24109W        W39726   6.671   5.308  16.094 -0.0774  0.2977  0.0443
24110W        W39727   9.097  14.435   2.329  0.2108 -0.2358  0.1475
24111W        W39728   5.994   5.229  13.200  0.4856 -0.1796 -0.2322
24112W        W39729  14.378  17.012   5.079  0.0905 -0.4017 -0.4687
24113W        W39730  12.491  12.983  15.713 -0.2057  0.2067 -0.0543
24114W        W39731   5.654  10.287   4.664  0.1334  0.1751  0.2876
24115W        W39732   2.159   5.241   1.404  0.0083 -0.2427 -0.2016
24116W        W39733  14.071  12.793   2.285 -0.4667 -0.1578 -0.3821
24117W        W39734   3.204   5.509  15.148  0.1550 -0.1883  0.1107
24118W        W39735   5.666   3.669   5.855  0.3044 -0.1013 -0.2326
24119W        W39736   3.233  17.634  14.295 -0.2284  0.1265  0.0922
24120W        W39737  12.185   9.274   0.235  0.1073  0.0473  0.0801
24121W        W39738  15.061  12.056   1.552 -0.1617  0.0723  0.1724
24122W        W39739  14.423  13.822  11.649 -0.0212 -0.0511  0.0802
24123W        W39740  14.630   7.434   4.677 -0.2881  0.0863 -0.0582
24124W        W39741   5.277   6.046  14.332 -0.3026 -0.2721  0.1815
24125W        W39742  14.515   4.978  12.147  0.0632  0.0165  0.1183
24126W        W39743  15.612   6.969   3.270  0.2806 -0.1288  0.1717
24127W        W39744   6.897  14.419   2.657  0.0588  0.2925  0.2127
24128W        W39745  11.438  12.603   3.383  0.0707  0.0996  0.1047
24129W        W39746  11.686   6.962  15.807  0.0857 -0.0587  0.0309
24130W        W39747   0.488  14.408   3.483  0.0739  0.2956 -0.0119
24131W        W39748  17.650  14.877   5.031  0.4224 -0.1685  0.0900
24132W        W39749  11.510   2.045  15.361  0.1944 -0.3599  0.0283
24133W        W39750  11.774   0.346   1.006 -0.1639 -0.3919  0.0417
24134W        W39751  16.651  12.487  12.921 -0.1511 -0.0273  0.0285
24135W        W39752  12.513  13.419   4.987 -0.0439  0.0747  0.3272
24136W        W39753   3.777   0.317  16.024  0.3815  0.1723 -0.0706
24137W        W39754   0.620   3.377  13.664  0.0270 -0.3336  0.2246
24138W        W39755  13.798   3.998  15.789 -0.0379 -0.5781 -0.0058
24139W        W39756  10.005  12.721   3.019 -0.1001  0.0771  0.3855
24140W        W39757   7.222  12.276  11.513 -0.0318 -0.1476  0.1995
24141W        W39758   2.633  14.269   5.339  0.2943 -0.1703  0.0105
24142W        W39759   1.696   3.020  14.432 -0.1798  0.1343 -0.2984
24143W        W39760  15.949   9.584   0.057 -0.2776 -0.0587  0.0177
24144W        W39761  13.981  17.104  11.228  0.0530  0.1248 -0.1623
24145W        W39762   2.931  11.548  13.563  0.1670  0.0970 -0.3074
24146W        W39763   8.671   3.163   3.882  0.2153  0.1436  0.2554
24147W        W39764   8.689  13.795  14.479 -0.0895  0.2933  0.3120
24148W        W39765  15.392   0.381  13.039  0.2466  0.0281 -0.1381
24149W        W39766   2.151   4.247   4.994  0.1441 -0.0223 -0.1731
24150W        W39767  15.375   3.082   4.018 -0.1180  0.1460 -0.4344
24151W        W39768   1.591  15.209  13.072  0.0338  0.1866  0.0533
24152W        W39769  16.220  14.836   4.183 -0.1685  0.0002  0.0861
24153W        W39770   9.910  10.480  13.708  0.2267  0.1426 -0.1706
24154W        W39771  14.685  15.888   2.832  0.0755 -0.0449  0.1932
24155W        W39772  11.904  12.713   4.048 -0.2599 -0.3881 -0.4105
24156W        W39773   7.025  13.715   4.656 -0.0241 -0.2377  0.2749
24157W        W39774   9.942  12.504  11.569  0.0913 -0.0572 -0.1992
24158W        W39775  10.916  15.119   4.892  0.3784 -0.5271 -0.0982
24159W        W39776  13.382   9.934   3.704  0.3787  0.2395  0.0080
24160W        W39777   4.324  14.208   0.501  0.2833  0.0759  0.1830
24161W        W39778  10.110  17.262   4.699  0.0609 -0.1917  0.4015
24162W        W39779   3.389  15.387   4.099 -0.0466 -0.0245  0.2589
24163W        W39780  16.623   9.577  10.983 -0.2196  0.5385  0.0958
24164W        W39781   1.798   0.798  14.008  0.1989 -0.2846  0.0958
24165W        W39782   7.168  14.120   1.319  0.1756  0.1915  0.0592
24166W        W39783   1.679  11.397  13.900 -0.0303  0.1946  0.1872
24167W        W39784   8.684  15.415  13.510  0.2064  0.0136 -0.1420
24168W        W39785  13.428   5.117  13.160 -0.0349 -0.2890  0.0414
24169W        W39786   5.806   2.718   1.667  0.0996  0.3843  0.0515
24170W        W39787  11.361   7.856  11.076  0.0605  0.1585  0.1463
24171W        W39788   8.489  14.185  11.977 -0.1302  0.0865  0.2634
24172W        W39789  12.457   8.198  13.105 -0.0397 -0.3623 -0.1228
24173W        W39790   8.012   3.299  14.685 -0.1621  0.2103 -0.2711
24174W        W39791   2.419   1.848   1.405  0.2473 -0.3856  0.5291
24175W        W39792   0.445   1.902  14.565 -0.1960 -0.0982  0.1580
24176W        W39793   9.468   4.747   4.908  0.0918 -0.2835 -0.0829
24177W        W39794  11.293   0.411   5.386  0.0040  0.1591 -0.1530
24178W        W39795   4.134   7.745  11.702 -0.0665  0.2582  0.0470
24179W        W39796   7.141  17.880  11.621  0.0357 -0.1170 -0.1878
24180W        W39797   3.228  13.241   3.698 -0.0167  0.0181 -0.1461
24181W        W39798  10.557   3.508  15.294 -0.2465  0.0881 -0.0310
24182W        W39799   0.835  14.361   1.291 -0.1807  0.3772  0.0222
24183W        W39800  15.173  18.259   4.514 -0.2331 -0.0400  0.1630
24184W        W39801   4.873   4.602   4.246  0.1129  0.1216  0.2546
24185W        W39802   5.437   5.518  14.459  0.2046  0.0272 -0.1397
24186W        W39803  14.053   5.702   5.610 -0.0206  0.0203  0.0000
24187W        W39804   1.721   1.970   1.819  0.0207 -0.5507  0.1809
24188W        W39805  12.659   7.890  12.722 -0.0765  0.2490 -0.0944
24189W        W39806  13.136   2.388  13.416 -0.1092  0.1012  0.0802
24190W        W39807   6.495   1.741  13.622 -0.0398  0.3031 -0.0070
24191W        W39808  17.523  14.492   2.563 -0.0211 -0.2119  0.0080
24192W        W39809  15.064  12.639  11.045 -0.0199  0.0924 -0.0187
24193W        W39810   5.294  12.610   3.549 -0.0834 -0.3029 -0.0909
24194W        W39811  14.942   0.465   5.163 -0.0797  0.0236 -0.0248
24195W        W39812   9.927  14.205  15.902 -0.3164 -0.1081  0.0090
24196W        W39813   0.192   4.590   5.406 -0.1722 -0.0537 -0.2291
24197W        W39814   1.608   4.415   0.598  0.1945 -0.1291 -0.1480
24198W        W39815   7.819  17.349  11.997 -0.1672  0.1408  0.0929
24199W        W39816   4.279   5.566  11.986 -0.1014 -0.0542 -0.0763
24200W        W39817   8.530  12.364   5.058  0.0264 -0.0028 -0.3239
24201W        W39818   0.036   1.725  13.064  0.1688 -0.2502  0.2184
24202W        W39819   0.621   6.182   1.555  0.0228  0.3015  0.1183
24203W        W39820  11.551   5.939  12.149  0.0223 -0.1908  0.3327
24204W        W39821   8.071  17.025   5.655 -0.3151 -0.3701  0.0099
24205W        W39822   0.869   2.622   5.429 -0.1357  0.2216  0.0073
24206W        W39823  15.887   3.437  14.915  0.2801  0.2959  0.1794
24207W        W39824   9.668   0.374   3.774  0.0465  0.0435  0.0239
24208W        W39825   4.996   5.428   2.497  0.2610 -0.0440 -0.0346
24209W        W39826   1.538  13.565   1.434 -0.0567  0.1534  0.0561
24210W        W39827   8.698  14.720   0.901  0.2599  0.5348 -0.0154
24211W        W39828   7.871  18.275  13.631 -0.0520 -0.2198  0.1307
24212W        W39829   7.823   9.556   0.352 -0.1783 -0.0670  0.0515
24213W        W39830   9.386   9.754   2.002  0.1408 -0.1154  0.0804
24214W        W39831   8.733   7.878   6.121  0.1958  0.2191  0.1642
24215W        W39832  11.683   2.552   3.515  0.0309 -0.0761 -0.0829
24216W        W39833   0.008  16.023  11.617 -0.3109  0.0924  0.1143
24217W        W39834   3.642   7.522  16.020 -0.1501  0.0403  0.2335
24218W        W39835  17.571   7.408  15.900 -0.0343 -0.1635 -0.0634
24219W        W39836   7.380  18.104   1.392  0.2106 -0.1416  0.1019
24220W        W39837   1.403  15.785   2.688 -0.0123  0.1860  0.2964
24221W        W39838   2.635  17.491   1.079  0.2243 -0.2041  0.0621
24222W        W39839   4.378  17.230  12.297  0.2982 -0.0480  0.0435
24223W        W39840   7.881   7.271   5.445  0.3446 -0.1365  0.0780
24224W        W39841   9.231   8.712  15.718 -0.0792  0.2072  0.0726
24225W        W39842  10.538  10.598   2.169  0.1663 -0.6111 -0.0604
24226W        W39843   8.915  17.435  15.839  0.0440  0.0142  0.3098
24227W        W39844  14.612   3.593   0.186  0.2549  0.1642 -0.3567
24228W        W39845   1.047   4.817  11.936  0.1979  0.2411  0.2117
24229W        W39846   1.834   4.055   1.615 -0.0974 -0.0353  0.1763
24230W        W39847  13.150  15.236  12.781  0.1202  0.0054 -0.0372
24231W        W39848  13.016   0.707  11.092  0.1188 -0.1596  0.2125
24232W        W39849  14.682  14.874  12.983  0.3928  0.2063 -0.3085
24233W        W39850   1.431   9.778   4.689 -0.0349 -0.1247  0.1038
24234W        W39851   7.531  17.956  15.857 -0.1580 -0.3534  0.2210
24235W        W39852  14.800   0.572   3.073 -0.0699 -0.2410 -0.1483
24236W        W39853   6.735   0.138  11.786 -0.1650 -0.0866 -0.0549
24237W        W39854   1.723   0.838  11.900 -0.1215 -0.3309  0.1454
24238W        W39855   6.756  16.301   3.508 -0.0979  0.0785 -0.0725
24239W        W39856   0.309   1.831   3.921 -0.0468 -0.2128 -0.3058
24240W        W39857  15.656  15.809   2.055  0.1922 -0.1527  0.3957
24241W        W39858   0.761   3.501   0.027  0.1346 -0.0084  0.0668
24242W        W39859   9.660  12.892   2.058 -0.1826 -0.2640 -0.1942
24243W        W39860   0.962  18.157   0.822  0.1253  0.0554 -0.1562
24244W        W39861  14.876   9.571  11.322  0.0246 -0.2127 -0.2247
24245W        W39862  13.023  11.186   4.272  0.0727  0.1686 -0.3594
24246W        W39863  17.245  13.494  12.689 -0.0489  0.0594  0.0883
24247W        W39864  17.329  16.796   1.169 -0.2904  0.1819  0.2898
24248W        W39865  10.673   3.764   1.198 -0.0083  0.0474 -0.0895
24249W        W39866  11.945  16.641  12.134  0.0732  0.1605 -0.1602
24250W        W39867  15.966   4.623   4.101 -0.0948  0.2254  0.2054
24251W        W39868   6.091   9.963   4.683 -0.1044 -0.4277 -0.0195
24252W        W39869   1.453   1.072  14.784  0.2422  0.0587  0.1132
24253W        W39870  13.962   0.079  12.790  0.0611 -0.2155 -0.0733
24254W        W39871   7.547  11.763   5.598  0.2845 -0.1557 -0.1697
24255W        W39872   9.506  11.920   3.072  0.2348  0.1397 -0.1352
24256W        W39873   4.686  18.042  14.777 -0.5800  0.2557  0.2774
24257W        W39874  17.502  16.626   0.767 -0.0833  0.0941  0.0091
24258W        W39875   7.290  10.029   4.119 -0.0730  0.2394  0.4918
24259W        W39876   0.318  14.196   4.524 -0.0516 -0.0986  0.1711
24260W        W39877   5.836   9.998   0.834  0.1274  0.1991  0.0740
24261W        W39878   5.875   9.105  15.017 -0.1233 -0.2100 -0.1227
24262W        W39879   0.910   6.635  14.608 -0.2026  0.0558 -0.1659
24263W        W39880   6.927   3.821  10.834  0.2171  0.0899  0.1018
24264W        W39881  11.176   3.240   3.867 -0.3167 -0.1416 -0.1144
24265W        W39882  14.265   8.394  15.329  0.0324  0.0455  0.2899
24266W        W39883   7.267   9.847   2.059 -0.2604 -0.1431 -0.2007
24267W        W39884   5.430   8.412   1.488  0.1009  0.2597 -0.1102
24268W        W39885  15.487  11.801   0.787  0.0283  0.1034 -0.2314
24269W        W39886  13.344   5.113   2.063 -0.4511  0.1239  0.3744
24270W        W39887   6.646  12.907  14.661 -0.2776 -0.0015  0.1974
24271W        W39888   8.108  10.545   5.438  0.1916 -0.1947 -0.0598
24272W        W39889   0.372  14.889  12.899 -0.2008 -0.3821 -0.1528
24273W        W39890   7.696   5.150  13.423 -0.2143  0.2744 -0.0214
24274W        W39891  10.703   5.622  15.661 -0.3745 -0.0592  0.1877
24275W        W39892   6.568   5.538  10.840  0.2270 -0.1592  0.2195
24276W        W39893   1.149   7.333  15.832  0.2368 -0.2976 -0.3557
24277W        W39894  10.629  13.581   0.134  0.2286  0.0733 -0.2381
24278W        W39895   1.901   2.921   0.545 -0.2808 -0.0796 -0.3834
24279W        W39896   8.036   3.125  11.472  0.2371  0.1259 -0.0492
24280W        W39897   0.284  10.702  13.018 -0.2469  0.0136 -0.0637
24281W        W39898   3.083   2.271   0.247  0.0707 -0.0674  0.3464
24282W        W39899   3.035  11.156  12.593 -0.1101  0.3012  0.2081
24283W        W39900   9.028   4.302   4.722  0.2317 -0.0609 -0.1549
24284W        W39901   3.385   3.100  15.856 -0.1755 -0.1223 -0.2790
24285W        W39902  13.954   4.636   1.090 -0.2456 -0.0381  0.0762
24286W        W39903   2.468   7.524   2.912 -0.1231  0.1181  0.1319
24287W        W39904  12.888  10.795   1.671 -0.0707 -0.0135  0.1130
24288W        W39905  12.591  11.895  15.377  0.1572 -0.1578 -0.0622
24289W        W39906   4.173  16.059   4.114  0.4278 -0.3029 -0.2482
24290W        W39907  13.153   1.327   2.529  0.0925 -0.0303 -0.0405
24291W        W39908   7.983  13.355   4.890 -0.2472  0.2037  0.1117
24292W        W39909   3.305   9.929  15.515 -0.3195 -0.3140 -0.4167
24293W        W39910   7.016   3.473  13.367  0.2007  0.0216  0.4132
24294W        W39911  13.379  10.465   4.372  0.1321  0.0222  0.3759
24295W        W39912  13.344   8.107   1.366 -0.1596 -0.0256  0.1339
24296W        W39913  10.337   7.394  10.132  0.4800  0.1392  0.0172
24297W        W39914   8.753   1.577   1.725 -0.0160  0.1547 -0.1700
24298W        W39915  13.000   3.765  14.963 -0.1356 -0.1025 -0.0101
24299W        W39916   7.137  17.987   4.830  0.1284  0.2082  0.0616
24300W        W39917   0.281   8.801   5.061 -0.2310 -0.2118  0.0667
24301W        W39918   9.408  16.108   1.359  0.3373  0.1022  0.2248
24302W        W39919  16.611   9.055   5.282 -0.1137 -0.0953  0.1042
24303W        W39920  13.909   1.942   1.822  0.1134 -0.0544 -0.2664
24304W        W39921  14.811   4.489   0.866 -0.6065  0.1313 -0.0491
24305W        W39922  13.717  13.399  14.300 -0.0675 -0.0988 -0.1919
24306W        W39923  10.324  17.550  12.331  0.2248 -0.1161  0.1037
24307W        W39924   9.414   2.387   0.856 -0.2320 -0.0237  0.1576
24308W        W39925  15.492  13.245   1.665 -0.1735  0.4695  0.0769
24309W        W39926  11.563   9.814  11.056 -0.1236  0.0420 -0.2519
24310W        W39927   0.043  18.078   1.307 -0.0917  0.1690  0.0429
24311W        W39928  10.551  13.177  10.178  0.1318 -0.0247 -0.0811
24312W        W39929   0.781   8.128   0.223  0.1202  0.3698  0.0903
24313W        W39930  13.043  13.770  11.574  0.0354 -0.4184 -0.1661
24314W        W39931  15.760  13.746  15.267 -0.0464 -0.2139  0.0429
24315W        W39932  17.773  14.121  11.171  0.3303  0.0761 -0.0486
24316W        W39933   3.499  14.321  12.986  0.0118 -0.1272 -0.1318
24317W        W39934  13.441  16.930   0.343 -0.1138 -0.0033 -0.1963
24318W        W39935   6.363  14.272   1.607  0.1364  0.1641  0.1444
24319W        W39936  12.520  12.350   5.872 -0.2672  0.0277 -0.0061
24320W        W39937   0.888  13.373  13.217  0.1000 -0.0534  0.0156
24321W        W39938  13.098  15.772   3.041 -0.0093 -0.2132  0.1921
24322W        W39939  16.749   3.846  14.270 -0.0227 -0.1152 -0.1699
24323W        W39940   6.979   9.901  14.476 -0.0490 -0.1905  0.2165
24324W        W39941   0.757  11.014   5.030  0.2323 -0.0859 -0.4301
24325W        W39942   8.285  15.971   0.425 -0.0438 -0.0122  0.0960
24326W        W39943   4.794  17.513   4.274 -0.1336 -0.1128  0.0096
24327W        W39944  13.633   6.536  12.173  0.4547  0.1292 -0.2680
24328W        W39945  12.363  10.250  15.620 -0.3217  0.2421 -0.3311
24329W        W39946  11.457  15.189   0.646 -0.0987 -0.0243  0.0198
24330W        W39947   2.612   0.772   2.799 -0.2680  0.1502 -0.1533
24331W        W39948  14.273  17.986  15.525 -0.1902  0.1861 -0.4074
24332W        W39949   7.648   3.067  10.926 -0.1381 -0.0866 -0.0705
24333W        W39950   7.976  14.046  14.402 -0.3015  0.1515  0.1222
24334W        W39951  15.577   1.409   3.526 -0.3138  0.0975  0.1846
24335W        W39952   0.372  13.902   4.165  0.2286  0.3325  0.2157
24336W        W39953  17.735   0.767  12.344 -0.1004  0.1137  0.1376
24337W        W39954   9.114  14.911   3.132  0.1080 -0.0789  0.2038
24338W        W39955  15.258   0.954   3.325 -0.2068  0.2971 -0.0199
24339W        W39956   0.146   5.482   4.716  0.1045  0.0398 -0.1112
24340W        W39957  17.647   5.115   3.146 -0.1793  0.0647  0.1833
24341W        W39958   7.507  14.002   3.449  0.0327 -0.2262  0.2487
24342W        W39959   2.937   8.894  15.843 -0.0095 -0.0532  0.2699
24343W        W39960   7.821  13.761   4.577  0.4001 -0.1080  0.1363
24344W        W39961   5.705  16.273  14.538  0.0153 -0.0521 -0.0042
24345W        W39962   9.374   9.897   0.713 -0.0777 -0.0687 -0.1842
24346W        W39963   6.442  13.087  12.950  0.2700 -0.0247 -0.0597
24347W        W39964  15.672  13.762   1.628  0.0116  0.0490  0.1143
24348W        W39965  18.269  14.931  15.425 -0.5536 -0.2550  0.0594
24349W        W39966   9.542  11.867   0.170 -0.3730 -0.4453 -0.0258
24350W        W39967  13.319   6.113  11.937 -0.0408 -0.0718 -0.0336
24351W        W39968  10.125   5.001  14.557  0.1107  0.2181 -0.2083
24352W        W39969   0.698   5.219   1.870 -0.0886 -0.2803 -0.0587
24353W        W39970  13.751  12.971   6.036  0.1520  0.1896 -0.3730
24354W        W39971  11.793   1.454  12.231  0.0965 -0.0900 -0.1067
24355W        W39972   7.120  11.219  14.018  0.1148 -0.0619  0.2295
24356W        W39973   4.399  17.384   0.017 -0.1330  0.2174  0.0867
24357W        W39974   1.262   1.862   1.110 -0.2068 -0.3282  0.0873
24358W        W39975  15.853  10.343  13.523 -0.1367 -0.2043 -0.1179
24359W        W39976  18.213  14.035   1.250  0.1802 -0.2531 -0.2966
24360W        W39977   9.773  17.262  11.257 -0.3122  0.3441  0.1965
24361W        W39978   3.963   5.256   3.061  0.0881  0.1500 -0.2050
24362W        W39979   7.790   2.835   4.026  0.0241  0.1189 -0.1372
24363W        W39980  18.275   5.348   0.417  0.1038  0.1425  0.1385
24364W        W39981  16.062  17.711   4.495 -0.1621  0.0419  0.1898
24365W        W39982  17.063   0.322  16.089 -0.4090  0.2352  0.0139
24366W        W39983   0.501  12.439  14.545 -0.1796  0.0903 -0.1122
24367W        W39984  14.033   7.913   5.831  0.0270 -0.1099 -0.3099
24368W        W39985   1.444   2.220  11.896 -0.1986  0.2430  0.2010
24369W        W39986   5.894   9.943   4.246  0.0110 -0.1186  0.0526
24370W        W39987   7.978   3.648   5.420 -0.0160  0.1043  0.3867
24371W        W39988   1.157  12.581   4.882 -0.0310  0.3182 -0.1098
24372W        W39989   2.762   1.897  13.211  0.0957  0.3656  0.0668
24373W        W39990   1.977   7.869  15.767  0.1624 -0.2401  0.3887
24374W        W39991  16.470   3.086   2.716  0.1034  0.1407  0.0879
24375W        W39992   4.707   2.975  13.808  0.0406  0.0581 -0.0884
24376W        W39993   7.360  17.514  11.929 -0.0668  0.1285  0.0485
24377W        W39994  14.747   4.012   1.192 -0.0580  0.1216 -0.3004
24378W        W39995   8.587   3.616   3.283 -0.0778 -0.0886 -0.0623
24379W        W39996   5.399  16.071   1.174  0.0950 -0.2563 -0.0730
24380W        W39997  13.955   1.835  14.674  0.0030 -0.0195 -0.3712
24381W        W39998   5.655   8.820  14.125 -0.0344 -0.1345 -0.0378
24382W        W39999  11.320   0.989  11.355  0.0593 -0.2780  0.0345
24383W        W40000  13.824  16.858  16.075 -0.0419  0.0669  0.1832
24384W        W40001  12.112   2.766  10.795  0.5442  0.0645 -0.1328
24385W        W40002  13.907  10.607  12.314  0.1209  0.0037 -0.0918
24386W        W40003  15.289   8.354   2.938 -0.1786  0.1041  0.4486
24387W        W40004  15.690   8.492  11.184  0.2737  0.0677  0.1501
24388W        W40005   0.009  15.630   2.313 -0.0918 -0.0781  0.1149
24389W        W40006   7.081   4.871  12.153  0.3167  0.0062 -0.1447
24390W        W40007   5.565  17.175   4.345  0.3103 -0.1049 -0.1925
24391W        W40008  10.264   4.118  13.404 -0.4629 -0.0282  0.2311
24392W        W40009  17.690   0.919   3.188  0.0596  0.0980 -0.0891
24393W        W40010   5.962  11.884  14.084  0.1576  0.3160  0.0122
24394W        W40011   9.805   4.237  11.377 -0.1440 -0.0460  0.0416
24395W        W40012   5.603   6.782   1.171  0.0096 -0.0699 -0.1940
24396W        W40013  13.919  12.777  14.554 -0.3531 -0.1693 -0.3540
24397W        W40014   6.232  11.174  16.014  0.0678  0.1606 -0.0543
24398W        W40015   3.197   9.366   1.418  0.1181  0.0024  0.2732
24399W        W40016  13.638   4.890  14.756  0.1073 -0.0478 -0.2534
24400W        W40017  17.890  11.442  16.124  0.0893 -0.0010  0.0668
24401W        W40018   9.262   5.300  11.847 -0.1717 -0.2625 -0.1248
24402W        W40019  15.005   3.001  14.205 -0.3696  0.1729  0.0140
24403W        W40020  13.103   9.282   5.767 -0.2952  0.2482  0.0121
24404W        W40021  10.444  13.867  13.894  0.0342  0.3136 -0.1683
24405W        W40022   7.494  17.487  11.458 -0.2987  0.1407 -0.2279
24406W        W40023   5.736  12.057   4.704  0.1904  0.0599  0.0205
24407W        W40024   3.600  14.505  13.420 -0.0017  0.1433 -0.0725
24408W        W40025  13.628  10.792   5.559 -0.4659 -0.2513 -0.1695
24409W        W40026   4.124  12.697   1.137 -0.1604  0.0420 -0.0165
24410W        W40027   4.764   9.738  13.859 -0.0833  0.1639 -0.0213
24411W        W40028  12.231   6.475  13.575 -0.1314 -0.0838 -0.2910
24412W        W40029   1.895   4.337   0.187 -0.1257  0.0330 -0.2445
24413W        W40030   8.792  10.053  15.122  0.2382 -0.4789  0.3177
24414W        W40031   6.914  12.477  14.461 -0.0710 -0.2696  0.2322
24415W        W40032  13.530   6.136  12.517 -0.2725  0.2682  0.0372
24416W        W40033  17.456   1.141  12.123  0.0608 -0.0571  0.0330
24417W        W40034   3.303   3.589  14.040 -0.0852  0.1565  0.1519
24418W        W40035   2.674   5.620   2.331  0.1184  0.1638  0.1133
24419W        W40036  17.325   7.931  10.947  0.1728  0.2887 -0.0822
24420W        W40037   6.859   4.222   3.592  0.1027 -0.2482 -0.1835
24421W        W40038   6.767  12.193   0.867  0.1191 -0.2177 -0.1887
24422W        W40039   5.283  11.431  12.858  0.1838 -0.0026  0.1305
24423W        W40040  10.253  14.630   4.723  0.0109  0.1058  0.3674
24424W        W40041  17.183   9.563  15.511  0.3073 -0.0338 -0.0477
24425W        W40042   6.302   0.819   1.433  0.0545 -0.0308 -0.0176
24426W        W40043   4.804  16.920   2.320 -0.0927  0.1012 -0.1976
24427W        W40044  15.970  17.608  12.439  0.0282  0.1931 -0.0096
24428W        W40045   3.089   2.907  14.395  0.3267 -0.0551 -0.2127
24429W        W40046   4.339   9.226   5.363  0.2754 -0.0355  0.2494
24430W        W40047   4.828  12.087  13.178 -0.0642 -0.4427  0.0018
24431W        W40048  12.671  16.520   2.879 -0.1406  0.0692  0.1914
24432W        W40049  12.686  13.114   4.019  0.0485  0.4621 -0.1825
24433W        W40050  12.654   9.201  13.916 -0.2579  0.2918  0.1162
24434W        W40051   3.965  17.572   3.743 -0.1760 -0.0523  0.0905
24435W        W40052   6.369   9.099  16.052  0.0952  0.3894 -0.1331
24436W        W40053   8.909   4.711  13.170  0.1278  0.2424  0.1046
24437W        W40054  13.452  13.570   1.506  0.0670 -0.1606  0.0121
24438W        W40055   8.465  12.801   4.833  0.1075 -0.1309 -0.3226
24439W        W40056   6.313   3.786   0.492  0.0088  0.3794 -0.2391
24440W        W40057   8.409   1.549   0.849  0.1234 -0.0955 -0.0624
24441W        W40058   4.881   4.033   3.125 -0.0020  0.0484  0.2577
24442W        W40059  10.624   7.844  13.947 -0.2811 -0.6235  0.3463
24443W        W40060   2.615  13.712  13.223  0.1391  0.0826  0.0367
24444W        W40061  17.258   6.591  12.362  0.1140 -0.2030 -0.1361
24445W        W40062   7.840  13.309   0.860  0.0504  0.0619 -0.0028
24446W        W40063   4.291  14.391  15.749 -0.0055  0.0209  0.2995
24447W        W40064   5.853   4.206  11.317 -0.3008  0.0059 -0.1024
24448W        W40065  10.441   8.703  14.295 -0.3201 -0.2121  0.2424
24449W        W40066   1.519   2.335   1.515  0.3092  0.2553  0.1893
24450W        W40067   6.526  18.238  16.112  0.3316  0.0944 -0.2984
24451W        W40068  10.672   1.536  14.389 -0.2106  0.2508 -0.1405
24452W        W40069   5.873  12.973   0.884  0.0674 -0.0621 -0.0768
24453W        W40070  10.870  10.984   0.093 -0.2176  0.0028  0.4321
24454W        W40071  13.934  12.069   4.393  0.1006  0.1086  0.0530
24455W        W40072  17.805   5.096  10.927 -0.1427  0.1015  0.3090
24456W        W40073   3.392   0.652   3.102  0.2404 -0.1103 -0.3296
24457W        W40074  16.149  13.730   1.533 -0.1432 -0.0665 -0.1596
24458W        W40075   0.281  16.052  11.145  0.2125  0.0923 -0.0723
24459W        W40076   1.577  14.764  15.690 -0.2072 -0.0617  0.0900
24460W        W40077  14.209   3.805   1.928 -0.1899 -0.0497 -0.2975
24461W        W40078  16.175   0.308   2.783  0.0119 -0.2386  0.2016
24462W        W40079  17.212  14.722   4.086 -0.1669 -0.4431  0.2996
24463W        W40080   3.447  16.440   5.114 -0.3042  0.0184  0.0329
24464W        W40081   7.484  10.467  11.504 -0.1876  0.0314  0.0318
24465W        W40082   7.310   8.625   4.676 -0.1466 -0.5138  0.2161
24466W        W40083   6.195   0.396   1.848 -0.4694  0.1983  0.1593
24467W        W40084   6.290   0.278   2.787  0.0382  0.0483 -0.2779
24468W        W40085   7.486  16.852   1.002 -0.1268 -0.2148 -0.3706
24469W        W40086   6.102  17.052  11.534 -0.0402  0.2599 -0.1611
24470W        W40087  18.031   5.663   2.471  0.0822 -0.2639 -0.1266
24471W        W40088   1.338   5.833   1.690 -0.1680  0.2441 -0.0502
24472W        W40089   9.443   1.207  11.339 -0.0037 -0.2020 -0.1530
24473W        W40090   8.029   0.984   3.427 -0.3359 -0.1656  0.1400
24474W        W40091   3.043   7.750   2.279 -0.0288  0.2911 -0.0610
24475W        W40092   0.788   9.273   6.345  0.2088 -0.2275  0.1877
24476W        W40093  17.859  12.044   4.262 -0.1128  0.0413 -0.1066
24477W        W40094  12.912   2.854   5.983 -0.0814 -0.1441  0.1085
24478W        W40095  18.078   9.847   4.897  0.1489 -0.2372  0.1023
24479W        W40096   2.587   3.253   4.302  0.0594 -0.3646 -0.1997
24480W        W40097   7.073  11.289   3.718  0.1911  0.4644  0.1419
24481W        W40098   0.493  13.326  12.878 -0.2808  0.1555 -0.3366
24482W        W40099   5.811  16.801  11.960  0.1092 -0.0979 -0.0775
24483W        W40100  10.106   0.527  10.739  0.2397 -0.0124 -0.0803
24484W        W40101   6.512  14.020   5.309  0.0806 -0.1195 -0.1962
24485W        W40102  17.524  17.589  12.813  0.0906  0.0088  0.0475
24486W        W40103  14.970  17.383   2.277  0.1636  0.1344 -0.0203
24487W        W40104   0.086   2.749  15.142  0.2303  0.0228  0.2288
24488W        W40105   9.981   7.692   4.005 -0.2839 -0.0352  0.0103
24489W        W40106   9.939   2.378   4.009 -0.2718 -0.0983 -0.0742
24490W        W40107  10.062  17.028  15.989  0.3092 -0.0057  0.0315
24491W        W40108  14.243   8.167   9.860 -0.0519 -0.0268 -0.0299
24492W        W40109   0.513   5.805  12.110 -0.1283 -0.1303  0.0354
24493W        W40110   8.803   3.633   0.798 -0.0871  0.1977  0.0339
24494W        W40111  15.104  10.087   3.369  0.0041 -0.3187 -0.1101
24495W        W40112   8.375   5.374  12.773  0.2141 -0.2227  0.1105
24496W        W40113   0.892   2.209   0.398  0.0395 -0.1766 -0.1956
24497W        W40114   8.533  15.707  16.066  0.1813 -0.0654 -0.2095
24498W        W40115   8.546  17.200  13.627 -0.0249 -0.0019 -0.0280
24499W        W40116  16.893  15.131   3.279  0.2188  0.3146 -0.1105
24500W        W40117  18.198  10.678   1.808 -0.2370  0.0283 -0.3730
24501W        W40118   9.432   3.488  14.455 -0.1534 -0.0782 -0.0087
24502W        W40119   6.925  12.160  13.434 -0.1363  0.0642  0.1509
24503W        W40120   1.884   4.627   3.269 -0.2222 -0.5002 -0.0014
24504W        W40121   3.951  11.200  15.484  0.3716  0.1900 -0.0872
24505W        W40122  16.558  16.244  15.724 -0.1245  0.1435 -0.1622
24506W        W40123  11.405   5.221  11.628 -0.0279 -0.2391  0.1593
24507W        W40124   2.157   2.799  13.566 -0.1179 -0.1787  0.3513
24508W        W40125   2.102   8.747   0.051 -0.2705  0.0471 -0.1015
24509W        W40126   0.663  14.988   6.273  0.0452 -0.0576  0.1733
24510W        W40127   4.505   6.636   0.382  0.0146  0.0668 -0.2227
24511W        W40128  12.542   0.285  11.181 -0.0494  0.0579 -0.4712
24512W        W40129   7.651  10.775   3.040 -0.0336  0.2257 -0.1382
24513W        W40130  12.975  16.987   0.582 -0.0112 -0.2183  0.2131
24514W        W40131   6.047   3.108  15.022  0.0084  0.0579  0.0162
24515W        W40132   0.247  17.133   3.149  0.1587 -0.3241 -0.2296
24516W        W40133   6.003  18.201   4.572  0.0266  0.0771 -0.1290
24517W        W40134   1.792   4.480   1.828 -0.0973  0.1829 -0.1477
24518W        W40135   1.199   1.421  12.533 -0.0307 -0.5690  0.0699
24519W        W40136   1.667   6.119   1.955  0.1747  0.0490 -0.2187
24520W        W40137  16.788   1.692  12.447  0.2417  0.0284 -0.0296
24521W        W40138  10.313   2.637  10.760 -0.0809  0.1121  0.0820
24522W        W40139  12.109   6.920   2.869  0.3065  0.1456 -0.2917
24523W        W40140  15.617   8.859   3.179  0.0547  0.0068 -0.1018
24524W        W40141   1.164  11.751   3.708 -0.0802  0.2188 -0.0543
24525W        W40142  18.400  14.353  10.974  0.1383  0.2875 -0.0492
24526W        W40143   1.705  17.969   3.131 -0.2028  0.0332 -0.0432
24527W        W40144  17.355  16.273   6.314  0.0646 -0.0731 -0.1557
24528W        W40145   1.058  14.104  14.759  0.1383 -0.3441  0.1449
24529W        W40146   3.660   8.212  14.251 -0.1423 -0.1342 -0.2015
24530W        W40147   9.264   8.563   2.754 -0.4267  0.1034  0.1579
24531W        W40148  12.560   1.303  14.794 -0.0773 -0.1930  0.2353
24532W        W40149   2.184  14.852   1.990 -0.2559  0.1289  0.2628
24533W        W40150   9.140  15.025   4.888 -0.3656 -0.3038  0.0301
24534W        W40151   4.317  10.687  10.962  0.0788  0.1534  0.1760
24535W        W40152  12.677   0.363  10.728  0.1577  0.2642 -0.0669
24536W        W40153   1.240  11.888  14.592 -0.1041  0.0499  0.2106
24537W        W40154   0.720   3.194   0.543  0.5408 -0.0976 -0.0564
24538W        W40155  14.547  10.420  11.276 -0.2647  0.1870 -0.3700
24539W        W40156  15.967  12.642  10.790 -0.0693  0.0967  0.0275
24540W        W40157   1.485   3.982  14.591  0.1341  0.1258  0.0877
24541W        W40158  14.497  11.120  14.064 -0.4033 -0.1990 -0.2714
24542W        W40159  17.362   1.229   2.198  0.1018  0.1066  0.3522
24543W        W40160   5.473   1.574  11.565 -0.1246  0.2340  0.1287
24544W        W40161  13.083   2.009  15.872 -0.1900 -0.0301 -0.3035
24545W        W40162   9.682   1.999   4.207  0.0495 -0.2651 -0.0391
24546W        W40163  12.219   6.725   3.630 -0.1827 -0.1324 -0.0375
24547W        W40164  14.813  12.794   0.857  0.0790 -0.0095  0.2198
24548W        W40165  10.275  15.270  11.649  0.0571  0.1579 -0.3604
24549W        W40166  12.632   4.027  14.309 -0.1040 -0.0618 -0.2835
24550W        W40167   1.628  18.417   4.764  0.0708  0.0785 -0.0661
24551W        W40168  13.490  13.588   2.785 -0.0408 -0.2921 -0.0335
24552W        W40169  11.282  13.713  14.310 -0.0719 -0.2205 -0.4386
24553W        W40170   3.016   2.504  11.836  0.0123 -0.2377 -0.0117
24554W        W40171   8.318  14.586  13.475 -0.2618  0.3311  0.0924
24555W        W40172   4.693   8.941  11.438  0.4300  0.2164 -0.0911
24556W        W40173  13.507   2.523  14.216 -0.4397  0.2291 -0.2205
24557W        W40174   3.297  12.213  15.922 -0.3103 -0.1556  0.0101
24558W        W40175   5.762  18.189  15.032 -0.0233 -0.1181  0.2315
24559W        W40176   5.929   7.323   4.089  0.2085 -0.3876 -0.3195
24560W        W40177   8.905   3.524   2.690  0.3450 -0.0796  0.0557
24561W        W40178  11.163  10.057  11.348  0.0900  0.2807 -0.2633
24562W        W40179   3.531  14.316   2.019  0.1139  0.3317  0.2204
24563W        W40180   7.536   1.290   3.396  0.1684  0.4048 -0.1907
24564W        W40181  14.124   9.838   4.491 -0.0102 -0.0896 -0.0379
24565W        W40182  16.132   3.205   4.598 -0.2664 -0.3140 -0.0676
24566W        W40183  15.500   5.462  15.777 -0.0587 -0.0262 -0.0462
24567W        W40184   5.115   6.460  10.882  0.1507 -0.1276 -0.0083
24568W        W40185   9.156   4.752   5.387  0.0716 -0.0710  0.1611
24569W        W40186   4.076  12.315   5.595 -0.2573  0.2116  0.3201
24570W        W40187  17.485   9.902   4.529  0.0114 -0.0764 -0.1222
24571W        W40188   2.556   4.193  11.524  0.2317  0.1490 -0.2013
24572W        W40189   1.325  14.283  13.004 -0.0677  0.1050 -0.0562
24573W        W40190   8.366   9.536  11.726  0.1834 -0.3822 -0.1816
24574W        W40191   7.263   1.466   3.886  0.1159  0.0237 -0.1517
24575W        W40192   1.581   2.771   3.917  0.3463  0.3011  0.2069
24576W        W40193   2.087   1.310  12.667  0.2262  0.2547 -0.2151
24577W        W40194   5.354   5.265  11.026 -0.0995  0.0007  0.0633
24578W        W40195   7.516   7.087  12.153 -0.1872  0.1142  0.1109
24579W        W40196  13.245  18.358  12.191 -0.1549 -0.3128 -0.0262
24580W        W40197  13.976  16.580   3.760 -0.2565  0.4111 -0.1158
24581W        W40198  14.048   0.203   5.534  0.1424 -0.0521 -0.0703
24582W        W40199   1.273   4.206   2.969  0.1173  0.0188 -0.1050
24583W        W40200   0.598  10.290  15.447  0.0257 -0.0116 -0.2954
24584W        W40201   3.491   3.174   4.791 -0.0160 -0.1032  0.1000
24585W        W40202   4.564   6.789   2.082 -0.0971  0.3416  0.3386
24586W        W40203  15.649  14.460   3.429  0.1161  0.0108  0.4600
24587W        W40204  12.173   3.808   4.173 -0.1248 -0.1404 -0.0408
24588W        W40205   1.227  11.030   0.829  0.5306 -0.0090  0.0518
24589W        W40206   5.298   7.547   3.566 -0.2670 -0.0263  0.1515
24590W        W40207   9.190  10.883   1.002  0.1417  0.0262  0.2693
24591W        W40208  17.733   3.924   5.311  0.0552  0.1259  0.1373
24592W        W40209  13.370  15.710  12.033 -0.1226  0.0939 -0.1487
24593W        W40210   3.070   0.172  14.506 -0.1782 -0.2257 -0.1088
24594W        W40211  11.127  17.053  13.691  0.1748 -0.0227 -0.3290
24595W        W40212  18.325  11.931   1.249 -0.1376  0.0096 -0.0058
24596W        W40213   0.828  12.628  15.458 -0.1614  0.0622 -0.0790
24597W        W40214   2.441   2.127   3.513 -0.2364  0.2001 -0.0062
24598W        W40215   9.652  17.362  14.681  0.2239  0.1469 -0.0881
24599W        W40216  14.113   0.305  14.915  0.0557 -0.1819  0.1662
24600W        W40217  11.895  13.338  14.550 -0.0138 -0.2180 -0.1746
24601W        W40218   8.736   2.280  14.454 -0.0665 -0.2056  0.0582
24602W        W40219  10.931  15.974   6.490  0.2821 -0.2854 -0.0205
24603W        W40220   3.072  14.189  11.919 -0.0295  0.1601  0.1880
24604W        W40221  17.303  17.510   0.860 -0.1262 -0.1239  0.1286
24605W        W40222  13.703  16.865  15.600  0.2332  0.1257 -0.2547
24606W        W40223  10.708   5.200  12.484 -0.2427  0.2805 -0.0304
24607W        W40224   9.578   0.029   0.546 -0.1766  0.3709 -0.1237
24608W        W40225   8.473   2.887  13.718 -0.1484  0.0498 -0.0539
24609W        W40226   7.115   0.817  14.037  0.0639 -0.4526  0.0808
24610W        W40227   1.754  16.741   2.707  0.0289 -0.0532  0.4454
24611W        W40228   0.080  14.159   3.294 -0.0771  0.0312 -0.0193
24612W        W40229  13.945   6.100  14.525 -0.2853 -0.1334  0.0966
24613W        W40230   7.887   8.386   1.209 -0.2308 -0.1905  0.1081
24614W        W40231   9.043   1.532  15.522  0.1396 -0.1764 -0.0519
24615W        W40232  14.011  12.028   1.842 -0.0022  0.0690  0.1169
24616W        W40233  14.711   1.565   3.500  0.2201  0.0626 -0.0892
24617W        W40234   7.514  12.503   3.967  0.0900 -0.1562  0.0760
24618W        W40235  14.304  10.624  14.686 -0.5556 -0.0524  0.3514
24619W        W40236   7.820   7.628   4.055 -0.1932  0.3043  0.2245
24620W        W40237  18.364   0.817   1.838  0.1662 -0.2426  0.0805
24621W        W40238  13.307   6.740   9.265 -0.2734 -0.2755 -0.1246
24622W        W40239  15.458  15.876   0.871  0.4131 -0.2621  0.3106
24623W        W40240  14.670  18.232   3.657 -0.0497 -0.1523 -0.0417
24624W        W40241   9.837  16.073  12.676 -0.4229  0.2689  0.2867
24625W        W40242  15.572  16.008  11.150  0.3065  0.1424 -0.1095
24626W        W40243   7.134  17.597  11.179  0.1305 -0.2149  0.2418
24627W        W40244   4.259   6.719  15.834 -0.0716  0.3469  0.0938
24628W        W40245  12.302  11.481   3.397 -0.0930 -0.0907  0.0543
24629W        W40246   9.066  16.584   4.969 -0.0128  0.0078  0.0972
24630W        W40247   5.743   7.351  13.207  0.1248 -0.2856 -0.0879
24631W        W40248  17.418   1.598   1.283 -0.1604  0.1135  0.0845
24632W        W40249   7.709   6.435   4.041 -0.2909  0.2177 -0.3511
24633W        W40250  12.264   0.341   1.097  0.2973 -0.1202 -0.2851
24634W        W40251   8.386   9.944  13.112 -0.2453 -0.2101  0.0275
24635W        W40252   6.044  17.336  13.375 -0.0550 -0.1023  0.1934
24636W        W40253   6.074   3.084  14.081 -0.0291  0.0575  0.0073
24637W        W40254  10.969   7.576   5.698 -0.0306  0.2436 -0.0796
24638W        W40255  15.648  14.687   5.018  0.1012 -0.1480 -0.1323
24639W        W40256  11.861   3.562  15.772 -0.0316 -0.0938 -0.3084
24640W        W40257   3.456  10.718   1.067 -0.3802  0.1986 -0.2601
24641W        W40258  15.606   1.063   0.123  0.0560  0.0710 -0.2789
24642W        W40259  11.109   1.647   4.154 -0.0934  0.2384  0.0864
24643W        W40260   0.004  14.038  15.896  0.2004 -0.1395  0.0544
24644W        W40261   6.936   5.425   3.289 -0.1035 -0.0802  0.0688
24645W        W40262  13.248   9.517  12.201 -0.3722  0.3267 -0.0857
24646W        W40263  12.629   4.256  15.652  0.1629 -0.0257  0.1574
24647W        W40264   0.347   0.010   4.467  0.0377  0.4199  0.2572
24648W        W40265   4.532  12.375   5.431 -0.0099 -0.3125  0.2265
24649W        W40266  13.368   3.052  12.476  0.1536 -0.1839  0.1102
24650W        W40267  14.627   0.728   2.152  0.2879 -0.0790  0.0964
24651W        W40268   2.480   5.648  12.808  0.0146  0.2466 -0.2983
24652W        W40269   5.840   3.898   0.810  0.3517  0.1623 -0.1495
24653W        W40270  13.792   9.464  15.738 -0.0406  0.0557 -0.0210
24654W        W40271  17.105  16.748   1.592 -0.1772 -0.0339 -0.2690
24655W        W40272  16.170  12.921   4.819  0.1145  0.1175  0.0348
24656W        W40273  10.284  17.387   0.728 -0.0877 -0.2574 -0.0314
24657W        W40274  15.752   6.950  15.784 -0.2501 -0.1801 -0.1116
24658W        W40275   3.549   5.266   4.617  0.1409 -0.1011 -0.2545
24659W        W40276   3.305   4.102  13.045  0.0938  0.1479 -0.0333
24660W        W40277  12.249  11.372   1.423  0.0101  0.0342 -0.1344
24661W        W40278  10.534  14.520   4.155 -0.0118 -0.2976 -0.0001
24662W        W40279  16.003  17.759  14.715 -0.1041  0.3401 -0.1552
24663W        W40280   4.739  11.510  14.426  0.0866  0.3525 -0.1609
24664W        W40281  12.206  18.235   4.857 -0.0409  0.0789  0.3268
24665W        W40282  14.524   5.959   1.422 -0.0484 -0.1979 -0.0069
24666W        W40283  13.855   7.012   2.758  0.0375  0.0523  0.2286
24667W        W40284   0.303   8.521   3.699  0.1803  0.2607  0.0224
24668W        W40285   7.666  11.868   2.551  0.2191  0.2520  0.3932
24669W        W40286   5.291   6.021  10.698  0.0698  0.1562 -0.1157
24670W        W40287  12.751  10.377  12.961  0.0009 -0.0366 -0.6553
24671W        W40288   0.886  17.812  11.838 -0.3285  0.1586 -0.1424
24672W        W40289  12.291  16.227  12.941  0.3478  0.1548  0.1750
24673W        W40290   9.968  13.060  13.647  0.1134  0.0140 -0.1575
24674W        W40291   1.343   9.560  14.354 -0.1872 -0.1638 -0.0014
24675W        W40292   6.833   7.044  12.110  0.1422  0.1813 -0.0336
24676W        W40293   0.717   5.181   0.143  0.0613  0.0601  0.1733
24677W        W40294  17.639   5.614   2.841  0.3045 -0.1965 -0.0733
24678W        W40295   9.178   6.473   2.044 -0.3963  0.2721  0.3383
24679W        W40296   9.503   8.417   2.268 -0.0983 -0.2966  0.1490
24680W        W40297   7.275   2.059   5.099 -0.0260  0.1827 -0.0850
24681W        W40298   2.283   2.722   5.261  0.2912 -0.0214 -0.1689
24682W        W40299   0.535  12.456  15.112 -0.1302  0.0998 -0.1892
24683W        W40300   9.037  10.453   1.826  0.4446 -0.0475 -0.2132
24684W        W40301   8.754   1.254  10.405  0.0011  0.1997  0.1804
24685W        W40302  14.255  17.866   3.751  0.1218 -0.0067  0.2894
24686W        W40303   6.095   7.034  14.681  0.0022  0.1186 -0.3152
24687W        W40304   4.315  11.485   3.560 -0.3767 -0.0790  0.1358
24688W        W40305  14.740   1.474  14.474 -0.1593  0.3912 -0.1050
24689W        W40306  16.502  16.516   2.831  0.1223 -0.0945  0.1279
24690W        W40307  16.349  17.901  11.075  0.2332  0.1484 -0.2492
24691W        W40308  10.927  14.712   2.455  0.0506  0.2527 -0.0218
24692W        W40309   1.988  13.847   1.463  0.1851  0.1921 -0.0357
24693W        W40310  11.757  12.053  12.034 -0.0013 -0.0252  0.1994
24694W        W40311   8.909  11.406   5.027  0.1903  0.2179 -0.1716
24695W        W40312   9.333   5.939  11.005  0.2574 -0.4668 -0.0893
24696W        W40313  12.117  17.064   4.199  0.2541 -0.1434 -0.0413
24697W        W40314  12.397   3.994  11.522 -0.2583  0.1201  0.2138
24698W        W40315  10.425   3.776   5.339 -0.0397 -0.2139 -0.1685
24699W        W40316   5.851   6.865  13.927 -0.0216  0.0572 -0.2417
24700W        W40317   5.398  11.713   1.343 -0.1630  0.4488  0.0877
24701W        W40318   5.974   3.845   5.003 -0.3783 -0.0723 -0.0270
24702W        W40319  13.405  14.959   0.145  0.1198  0.1069 -0.0049
24703W        W40320   8.022  18.250   2.284  0.4141  0.1223  0.3816
24704W        W40321   7.155  10.822  10.876 -0.0594  0.2328  0.0202
24705W        W40322   1.256   6.404  15.454  0.2381  0.0964  0.1395
24706W        W40323   7.684   6.473  11.762  0.0976  0.3910  0.2130
24707W        W40324   7.779  17.219  15.809  0.1336 -0.1124 -0.1343
24708W        W40325   4.399   7.082  12.434 -0.1067 -0.3745  0.1603
24709W        W40326  10.860  12.041   5.618  0.0728 -0.2103  0.1732
24710W        W40327  12.334   3.258   0.677  0.4656 -0.0916  0.1738
24711W        W40328  11.533   5.572   5.021 -0.1099 -0.0444 -0.0547
24712W        W40329  15.100  14.347   4.893 -0.2121  0.1817  0.0225
24713W        W40330   8.088   5.534   3.650  0.0879  0.1549  0.0685
24714W        W40331   6.728   4.366   0.926 -0.1086 -0.2239 -0.2570
24715W        W40332  13.173   2.011  14.913 -0.1753 -0.2082  0.0649
24716W        W40333  13.850  15.993   2.343 -0.0544  0.0665 -0.3384
24717W        W40334   0.630   7.607   5.466  0.0324  0.1186 -0.1928
24718W        W40335  12.402   6.174  11.930  0.2590 -0.1725 -0.3741
24719W        W40336   2.535   4.204  12.661  0.0109  0.2534  0.0642
24720W        W40337  13.774   9.683  12.541  0.1097 -0.1137  0.2027
24721W        W40338   2.420   9.964  13.597 -0.5788  0.0706  0.2110
24722W        W40339  15.914   1.943  12.195 -0.2805 -0.1402  0.0855
24723W        W40340   3.446   6.070  11.928  0.1799  0.0585  0.0766
24724W        W40341  12.753   7.613   5.132 -0.5214  0.1424  0.3016
24725W        W40342  10.550   4.558   5.786 -0.2517  0.0981 -0.0774
24726W        W40343   6.422  16.624   0.413 -0.0442 -0.0151  0.3353
24727W        W40344  15.714  18.403   1.208  0.1759  0.0492  0.0538
24728W        W40345   3.128  13.625  13.288 -0.0493  0.0590 -0.0268
24729W        W40346  17.823   0.803   3.668 -0.3030 -0.0162  0.2524
24730W        W40347   9.404   4.141   2.077  0.1997  0.0430 -0.1441
24731W        W40348  18.106  14.205  13.872  0.3546 -0.3733  0.0924
24732W        W40349   5.614   3.970  14.590 -0.3112  0.2744  0.1781
24733W        W40350   0.598   1.723   0.338 -0.4401 -0.0905  0.2021
24734W        W40351   2.722  12.551  11.285 -0.0206 -0.6123  0.0892
24735W        W40352   0.240  17.334  12.309 -0.2408 -0.0133  0.0889
24736W        W40353   5.153   9.033  14.822  0.0025 -0.1057 -0.1258
24737W        W40354   3.049  14.286   6.453  0.0512 -0.1271  0.2291
24738W        W40355  10.875  16.753   4.597 -0.0973 -0.1236 -0.1203
24739W        W40356   5.094   3.225   1.432 -0.2542 -0.0676  0.2207
24740W        W40357   7.583   3.167  14.376 -0.1385  0.1273  0.0012
24741W        W40358  17.043  17.570   3.405  0.1028  0.0243 -0.1792
24742W        W40359   5.460  15.356   3.571 -0.2571 -0.1551 -0.3670
24743W        W40360   5.862  13.164   5.931  0.2204  0.0004  0.0585
24744W        W40361   7.328  17.732   0.515  0.0819 -0.1263  0.1410
24745W        W40362  17.165   0.861  15.941 -0.0774 -0.0302  0.2074
24746W        W40363   1.139  15.212   4.664 -0.1478 -0.0914 -0.2095
24747W        W40364   0.724   0.527   2.306 -0.2210 -0.1065  0.1301
24748W        W40365   0.561   6.946   1.707 -0.3829  0.1517  0.1443
24749W        W40366  14.762  12.492  14.718  0.1257  0.2268 -0.1420
24750W        W40367  12.628  16.939   5.137  0.0593  0.3312  0.1217
24751W        W40368   4.908  11.847   1.264  0.0318 -0.2084  0.0280
24752W        W40369  10.354  10.193  11.213 -0.2562  0.0960  0.1663
24753W        W40370   6.285   7.169   4.977 -0.1134  0.1289 -0.3579
24754W        W40371  15.181   6.626   3.235  0.1611 -0.0756 -0.2740
24755W        W40372  16.390  13.034   1.935  0.0298 -0.0956 -0.1260
24756W        W40373   8.909  12.435  12.213 -0.1300 -0.0254  0.1260
24757W        W40374   3.815  12.915  12.960  0.1745  0.0047 -0.2294
24758W        W40375  14.445   4.751   0.039  0.0192  0.2315 -0.0080
24759W        W40376   5.295   3.557  13.063 -0.0423  0.0521 -0.2631
24760W        W40377   2.363  17.344   4.385  0.1686 -0.1603 -0.0891
24761W        W40378   1.357  12.646   5.340 -0.1170  0.2054 -0.0428
24762W        W40379  12.126  13.406  15.561 -0.1693 -0.1371  0.0907
24763W        W40380  16.322  14.982   3.596 -0.0338  0.0130 -0.0089
24764W        W40381   6.174   7.420  11.091 -0.3739 -0.0161 -0.0035
24765W        W40382   3.072   0.649   2.146 -0.2393  0.1049  0.1537
24766W        W40383  17.745  13.485   1.735  0.0999 -0.1045 -0.1398
24767W        W40384   2.248  11.105   2.788  0.0510  0.0162 -0.1494
24768W        W40385   3.905  15.667   5.301  0.2419  0.2105  0.0526
24769W        W40386  14.550  15.893  13.892  0.0050  0.0123  0.0498
24770W        W40387  11.874   0.109  15.726 -0.1853  0.1366  0.0527
24771W        W40388  12.984   8.267  11.078 -0.1830  0.0824  0.2147
24772W        W40389  15.915  15.340  13.844  0.1485  0.2767 -0.1385
24773W        W40390  13.650   3.149  12.066 -0.0502 -0.2382  0.0780
24774W        W40391   9.025   2.583  11.425  0.2944  0.2214 -0.3802
24775W        W40392   6.002   3.324  13.270 -0.1504  0.2622  0.2605
24776W        W40393  16.171  11.626   4.496 -0.0642  0.2119 -0.0491
24777W        W40394   5.327  11.155   4.952  0.2430 -0.0968 -0.2359
24778W        W40395   0.029  15.061   3.679  0.1257 -0.1756  0.0394
24779W        W40396   3.093  16.766  14.000  0.1755  0.1406  0.2402
24780W        W40397  11.187  16.416  14.684  0.1968 -0.1746 -0.1482
24781W        W40398   8.215  12.911  14.531 -0.1085  0.2384 -0.0075
24782W        W40399   3.038   2.856  11.341  0.1932 -0.0569  0.0366
24783W        W40400   9.010   4.179  14.034 -0.0121 -0.0440 -0.3626
24784W        W40401  15.545   6.840  10.773 -0.1680  0.1354  0.0236
24785W        W40402   0.717   8.736   1.281  0.1337 -0.0162  0.1664
24786W        W40403   1.165  15.095  11.534  0.0993  0.1076 -0.1658
24787W        W40404   9.503  14.416  14.703 -0.0492  0.1116  0.1848
24788W        W40405   7.347   9.614   3.816  0.0849  0.0267 -0.0618
24789W        W40406  17.123  17.314   2.686  0.2475 -0.2415  0.2482
24790W        W40407  10.764   9.371  15.426  0.0288  0.1218  0.1163
24791W        W40408  11.445   0.295  11.656 -0.1652 -0.0129  0.0712
24792W        W40409   2.901   4.364  14.076  0.1036 -0.3394 -0.2162
24793W        W40410  17.109   3.478   0.936  0.2429 -0.0069  0.1601
24794W        W40411   4.611  15.218  15.448  0.1996  0.0023  0.0384
24795W        W40412   0.244   5.868   3.819 -0.0826 -0.1892 -0.2628
24796W        W40413  12.185  15.349   1.140 -0.0629 -0.0896  0.4232
24797W        W40414   6.179   3.098   3.605 -0.0742 -0.0098  0.2897
24798W        W40415   6.842  18.014   1.286 -0.0208  0.3486 -0.1216
24799W        W40416   8.437   6.751  11.787 -0.0782 -0.1951 -0.0187
24800W        W40417  17.143   8.526   4.096 -0.1122  0.0830 -0.3142
24801W        W40418  16.861  17.631  14.818 -0.0210  0.0653  0.0785
24802W        W40419   8.359   8.815   0.248 -0.0909 -0.0096  0.3392
24803W        W40420   1.015   3.398  14.381 -0.2397  0.4250  0.0162
24804W        W40421   1.587  12.223  12.376  0.1654 -0.1226 -0.1496
24805W        W40422  16.156   8.647  10.946 -0.2730  0.0031  0.3326
24806W        W40423   9.868  17.996   1.305  0.0480  0.2285 -0.2553
24807W        W40424  13.769  10.820   1.003 -0.0981 -0.0105  0.1020
24808W        W40425   5.897  18.429  15.563 -0.0310 -0.3166  0.1468
24809W        W40426  13.485   6.748  14.459 -0.1865 -0.0732 -0.0747
24810W        W40427   2.738  11.122   1.236 -0.0566 -0.0648  0.2413
24811W        W40428  11.970  13.193   2.564 -0.0653  0.6070 -0.1387
24812W        W40429   0.701  18.373   3.541 -0.1660 -0.3007  0.1084
24813W        W40430   1.491   9.742   0.467  0.0613 -0.0912 -0.1479
24814W        W40431  11.215  15.675  15.292  0.2669 -0.0920 -0.1307
24815W        W40432  13.452   2.227   3.991  0.2222 -0.2525  0.2693
24816W        W40433   8.199  14.944   0.882 -0.1672  0.4173  0.3690
24817W        W40434  14.866   9.053  10.651 -0.0895  0.3107 -0.1467
24818W        W40435  11.606   1.288  14.908  0.0810 -0.0402  0.3129
24819W        W40436  12.733   4.721  12.085  0.1335 -0.1538  0.2070
24820W        W40437   8.758  17.954   5.004 -0.0089  0.3357 -0.0540
24821W        W40438  13.782  18.226   4.606 -0.0080 -0.0596 -0.2247
24822W        W40439  14.631   9.309  16.032 -0.1478 -0.4265 -0.0828
24823W        W40440   7.940   0.294   1.955  0.1149  0.1890  0.3882
24824W        W40441   1.649  13.018  14.420 -0.0616  0.0729  0.0188
24825W        W40442   3.438  10.997  11.724 -0.0096 -0.0205 -0.1444
24826W        W40443  10.841  12.098  14.135 -0.5549 -0.3154  0.2452
24827W        W40444  14.476   0.758   2.696 -0.2352 -0.1513  0.0561
24828W        W40445   0.485  13.440   0.930  0.3391 -0.0210 -0.1540
24829W        W40446   1.713  17.425   0.964 -0.0477  0.0816  0.0082
24830W        W40447  15.170  11.500   3.325 -0.2354 -0.0964 -0.0382
24831W        W40448   5.118  14.850   3.752 -0.3950  0.2751 -0.1758
24832W        W40449   8.083   8.933  11.676  0.0187  0.3125  0.0917
24833W        W40450   6.196   7.585  11.991 -0.2003  0.3773  0.1896
24834W        W40451  15.660   2.201   0.333  0.0095  0.0411  0.0033
24835W        W40452  11.083  12.641   1.281 -0.1906 -0.0957  0.0886
24836W        W40453  15.920  14.377   4.111  0.1841 -0.0162  0.0727
24837W        W40454   1.248  12.898   4.535  0.1202  0.0805 -0.0169
24838W        W40455  14.456  14.264   1.600  0.0799 -0.2366  0.0977
24839W        W40456   7.318   5.574   4.839 -0.1001 -0.0375  0.0594
24840W        W40457  18.183  16.334   0.244  0.3080 -0.1115 -0.1536
24841W        W40458   1.103   0.278  10.671  0.0661  0.2952  0.0098
24842W        W40459   5.524  13.114  11.537  0.0046  0.3056 -0.2623
24843W        W40460   4.787  15.814   4.036  0.1989  0.0444 -0.1640
24844W        W40461  12.684  12.412   3.825  0.1905 -0.0201 -0.2386
24845W        W40462  14.422   8.528   0.523  0.1054 -0.2094 -0.3254
24846W        W40463   2.191  16.267   3.084  0.0324  0.0688 -0.0446
24847W        W40464   1.774   9.958  15.591  0.1742 -0.0809  0.2018
24848W        W40465  15.116  12.937   2.804  0.1698  0.1672 -0.3807
24849W        W40466  11.746   9.474  14.106  0.1592  0.0318 -0.0340
24850W        W40467  13.072  13.160  15.032 -0.5381 -0.0981  0.3723
24851W        W40468   5.182   4.127   2.734 -0.2305  0.1778  0.0588
24852W        W40469  14.741   4.014  14.946  0.0390 -0.2898 -0.5650
24853W        W40470   9.369  15.202   1.835 -0.3009 -0.2210 -0.4740
24854W        W40471  13.368   0.105   3.203  0.2714  0.0668  0.2457
24855W        W40472  17.264  16.016   2.124 -0.2373  0.2956  0.0095
24856W        W40473   9.118  15.113   0.828  0.0474  0.3336  0.2597
24857W        W40474  13.085  15.859   5.657  0.0422  0.1408  0.1119
24858W        W40475  17.827   8.349  13.876  0.2467  0.2215 -0.1406
24859W        W40476  17.635   8.555  14.893  0.3755  0.0228  0.2245
24860W        W40477  14.197   6.259  15.973  0.3368 -0.2544 -0.0280
24861W        W40478   0.172   2.607   4.574  0.0012  0.2536 -0.0443
24862W        W40479   9.075  18.105   5.306 -0.0406 -0.1116 -0.2041
24863W        W40480   0.105  10.922   3.654 -0.0183  0.1467 -0.2799
24864W        W40481  11.745  12.074  11.154  0.0931  0.1790  0.0533
24865W        W40482  13.148   6.341   1.663  0.3662  0.1574  0.0065
24866W        W40483   5.064   2.528   2.352  0.2142  0.0620  0.0793
24867W        W40484  14.175  10.612   5.070 -0.2621 -0.0946  0.0251
24868W        W40485   8.514   1.843  12.997  0.2490 -0.2703 -0.0749
24869W        W40486   6.504  14.726   1.741 -0.1260  0.1173  0.3333
24870W        W40487  12.564  11.044   3.211  0.0163  0.0561 -0.2393
24871W        W40488  11.625  15.301  12.949 -0.2871 -0.0426  0.3561
24872W        W40489  14.737   0.212  13.790  0.0467  0.3355 -0.1237
24873W        W40490  15.930   4.698  11.063  0.1045 -0.0560  0.0829
24874W        W40491  16.183   6.207   3.166 -0.0857 -0.2958 -0.1183
24875W        W40492  13.487  13.394  12.257  0.0689  0.2240  0.0843
24876W        W40493   8.840  17.339  11.929 -0.0571 -0.2709 -0.1602
24877W        W40494  13.961   7.764   0.203  0.3344  0.1022 -0.1273
24878W        W40495  13.492   7.496  11.942  0.0203 -0.0646 -0.2060
24879W        W40496  11.633   0.830   5.359  0.2721 -0.0933 -0.0910
24880W        W40497  15.063   9.450   4.548 -0.2078 -0.0963  0.1445
24881W        W40498   5.161  12.036   4.597 -0.1727 -0.1386 -0.1073
24882W        W40499   3.179   7.134  11.081 -0.1433 -0.1169  0.0340
24883W        W40500  13.345  17.257  11.463 -0.2775  0.1222 -0.0221
24884W        W40501   2.729   1.114   3.173 -0.1053 -0.0689 -0.0885
24885W        W40502   1.754   6.559  13.848  0.0972  0.1133  0.0324
24886W        W40503   9.258  13.631   1.509  0.2233 -0.2151 -0.1869
24887W        W40504  17.019   7.766   2.612  0.0989  0.2846  0.1001
24888W        W40505   5.193   6.493  14.705  0.1621 -0.0128 -0.0616
24889W        W40506   4.394   7.874  15.390  0.6843 -0.4438 -0.1945
24890W        W40507  15.058   8.652  10.473 -0.3539 -0.1486 -0.0012
24891W        W40508   8.219  12.152   3.505  0.0904  0.1968 -0.1222
24892W        W40509   6.448  17.585   3.537 -0.0799  0.1486 -0.2843
24893W        W40510   7.542   5.723   1.305 -0.0864 -0.1571 -0.0942
24894W        W40511   2.920   1.971   3.540 -0.2113 -0.1802  0.0023
24895W        W40512   6.561   9.822   4.649 -0.3630  0.2877  0.2202
24896W        W40513   9.397  17.140  13.985  0.1339 -0.1179  0.1982
24897W        W40514   8.696  15.175   1.206  0.1446  0.1993 -0.0023
24898W        W40515  15.837   2.001   5.309  0.0773  0.1486  0.1115
24899W        W40516  13.595   6.747   0.860  0.1763  0.0464  0.1276
24900W        W40517  10.308  13.982   3.976  0.2390 -0.0503 -0.0540
24901W        W40518   9.313   2.305   1.876  0.2091 -0.2100 -0.0577
24902W        W40519  10.126   1.754   1.849 -0.2058 -0.0866  0.1666
24903W        W40520   1.282  10.760   1.249 -0.1588  0.0208 -0.2727
24904W        W40521  14.999  16.362   3.986  0.3317 -0.0029  0.2489
24905W        W40522   6.919  18.427   3.109 -0.1485 -0.1011 -0.2322
24906W        W40523  13.616  12.695  14.233  0.1255  0.1786  0.4632
24907W        W40524  16.599   1.032   0.512 -0.1135  0.2517 -0.0509
24908W        W40525  15.834   0.073   2.473 -0.1246 -0.1626  0.1416
24909W        W40526   3.295   6.452   1.230 -0.0749 -0.0741 -0.0958
24910W        W40527   6.323   9.096   5.104 -0.2630  0.2723  0.2011
24911W        W40528   3.609   8.616   1.869  0.1387  0.3046 -0.2503
24912W        W40529   1.499  13.010   3.460  0.0756 -0.1979 -0.2397
24913W        W40530  12.278  11.431  14.956 -0.2691 -0.0098 -0.0404
24914W        W40531  15.998   6.587   5.769 -0.0731 -0.1522 -0.0694
24915W        W40532  17.933  14.728  13.891  0.1127 -0.0228  0.3169
24916W        W40533   7.929   9.069  15.699  0.0200  0.3467 -0.1620
24917W        W40534  11.443   2.745   4.704 -0.1287  0.3117  0.0516
24918W        W40535  14.628  13.015  14.725  0.2015  0.1689  0.0214
24919W        W40536   7.220   9.139  14.188  0.0857  0.2740  0.2102
24920W        W40537  10.491  13.543   3.400 -0.1422 -0.0662  0.0724
24921W        W40538  12.576  17.622   3.798  0.0465 -0.3738  0.0133
24922W        W40539   0.774  17.737   5.955 -0.1035 -0.1347 -0.3076
24923W        W40540   6.871   2.344   3.294  0.0381  0.3197 -0.1153
24924W        W40541   2.859  15.266   0.970  0.0289 -0.0607  0.1247
24925W        W40542   0.089   6.915   1.938  0.0519  0.1644 -0.2988
24926W        W40543  13.885   1.313   3.855 -0.0220  0.1834 -0.1119
24927W        W40544   4.436   4.057   0.937 -0.2971  0.3027 -0.3134
24928W        W40545  18.209  16.856   0.400  0.1735 -0.1242  0.0332
24929W        W40546   1.272  18.234  13.303  0.3465 -0.2260  0.3408
24930W        W40547  16.314  18.342  11.648  0.1340  0.2447 -0.0226
24931W        W40548  11.234  18.459   3.250 -0.0095 -0.2695 -0.1402
24932W        W40549  12.426   5.047   1.975  0.0224 -0.0328 -0.2749
24933W        W40550   0.936   1.903  14.854  0.2144 -0.1568 -0.2426
24934W        W40551  15.773   2.133   5.833  0.2468  0.1308 -0.1458
24935W        W40552   0.694  15.486   1.331  0.0956  0.0319  0.2117
24936W        W40553  16.251  15.430  15.894 -0.0391  0.1664  0.3362
24937W        W40554   6.160   4.749  13.411 -0.0428 -0.0134  0.5465
24938W        W40555   9.134   7.831   5.236 -0.0129  0.1102 -0.1730
24939W        W40556   9.778   9.487  13.550  0.3144 -0.1872 -0.1019
24940W        W40557   7.807  16.106   3.292  0.0275  0.1060 -0.3873
24941W        W40558   7.850   1.507   0.182  0.2799 -0.4199  0.4505
24942W        W40559   9.275   5.988  13.454  0.2809 -0.1101  0.0425
24943W        W40560   9.634   9.678  13.104 -0.0869  0.1052 -0.0519
24944W        W40561   6.231   4.330  16.010  0.2816  0.2883  0.2660
24945W        W40562   3.424  14.433  15.898 -0.3295 -0.1737 -0.0506
24946W        W40563   9.956   4.705  11.594 -0.1961  0.1417  0.0526
24947W        W40564   8.468   8.907   2.682 -0.0541  0.1413 -0.1948
24948W        W40565   2.568   5.021  11.079 -0.1007  0.0042 -0.0569
24949W        W40566  15.279   1.060   1.908 -0.0929 -0.3705  0.0441
24950W        W40567  16.113   3.920   1.646 -0.0573  0.2903 -0.1514
24951W        W40568   3.117  10.616  13.385  0.5534  0.1930 -0.0598
24952W        W40569   8.389  16.678  15.523 -0.2940 -0.0932  0.2685
24953W        W40570   4.403   5.711   3.295 -0.0950 -0.0693  0.1392
24954W        W40571  15.675  12.955   0.255 -0.0256  0.0997  0.0741
24955W        W40572  10.183  16.640   1.671  0.2010 -0.2339 -0.2012
24956W        W40573  17.310  12.496  10.949  0.0344 -0.1244  0.2761
24957W        W40574   3.378   5.331  15.808  0.0890 -0.0567 -0.0545
24958W        W40575  11.807  15.344   5.771  0.0581  0.0899 -0.5068
24959W        W40576  18.063   7.587  11.666 -0.2176 -0.4356  0.0672
24960W        W40577   0.546   5.963   4.837  0.1044  0.2589 -0.2158
24961W        W40578   6.053   8.432  12.262 -0.2183 -0.0959 -0.1811
24962W        W40579   1.768  12.763  11.793 -0.0048 -0.5238 -0.2255
24963W        W40580   5.135   3.095  14.934  0.0448 -0.0387  0.1107
24964W        W40581   9.112   8.254  10.640  0.1788 -0.1325 -0.1418
24965W        W40582  13.130  10.069  13.183  0.0390  0.3354  0.2956
24966W        W40583   2.058  16.956   3.516 -0.2352 -0.1767 -0.0212
24967W        W40584   4.915  18.056  12.119  0.2176  0.0878  0.0296
24968W        W40585   2.997   1.143   1.034  0.0862 -0.4094 -0.2315
24969W        W40586   8.010   9.817   5.796  0.0333 -0.3628  0.0920
24970W        W40587  16.588  11.977  13.691  0.1747 -0.0040 -0.1322
24971W        W40588  13.511  13.093  14.645  0.3401 -0.1779  0.2849
24972W        W40589  14.785   8.124  10.624  0.2605  0.0289 -0.0619
24973W        W40590   1.411   0.022   5.352  0.2680 -0.1148  0.0188
24974W        W40591   9.399  15.397   0.168 -0.2621 -0.2823  0.2662
24975W        W40592   4.237  16.288   2.950  0.3644  0.0653  0.1305
24976W        W40593  12.455   4.728   2.408  0.1076 -0.0810 -0.2371
24977W        W40594   7.882   8.298   0.669  0.1056  0.1409  0.1356
24978W        W40595  13.751   5.451  16.046  0.3069  0.1469  0.2095
24979W        W40596   0.661   4.565   4.800  0.1192 -0.1238  0.0486
24980W        W40597   5.078  11.492   1.012 -0.0162  0.0681  0.1196
24981W        W40598   4.150  13.647  12.440 -0.1734 -0.0910  0.3235
24982W        W40599  16.970   7.893   3.450  0.0740 -0.0261  0.0657
24983W        W40600  11.241  15.950   5.058 -0.0026  0.1678  0.1647
24984W        W40601  15.625   4.002   4.445  0.0418  0.2384  0.5600
24985W        W40602   8.031  17.410  14.927 -0.3018  0.3193 -0.0759
24986W        W40603   2.364  15.540   1.290 -0.1767 -0.0553  0.0115
24987W        W40604  14.473   4.126  11.871 -0.1808  0.0007  0.0306
24988W        W40605  18.304   0.143  14.149  0.2496 -0.1620  0.2211
24989W        W40606   3.373   2.364  11.397  0.2012  0.0200 -0.0626
24990W        W40607   9.328   7.239  11.915  0.1186 -0.0914  0.3758
24991W        W40608   0.811   0.930   1.257 -0.4989  0.3066  0.2029
24992W        W40609  10.421  17.873  15.001 -0.0703  0.0311 -0.4797
24993W        W40610   0.911   6.638  11.439  0.1094  0.0891 -0.1141
24994W        W40611  13.441   6.188  15.005 -0.0518  0.0875  0.2520
24995W        W40612   8.749  16.356  13.097 -0.2331  0.0384  0.2028
24996W        W40613  13.259   9.359   4.944  0.1991  0.1042  0.1530
24997W        W40614  13.090   3.858   3.506  0.0304  0.0060  0.0300
24998W        W40615  16.491  17.765   1.065  0.0649 -0.0434 -0.4825
24999W        W40616   5.789   9.489  15.356  0.4603 -0.1037 -0.0861
25000W        W40617   8.656  16.591   1.663  0.2590 -0.3185  0.1255
25001W        W40618   5.028  12.978   0.567  0.2500 -0.0775  0.2402
25002W        W40619  13.561  15.955   0.423  0.1250  0.2711  0.0913
25003W        W40620   6.561  16.004  13.614  0.0113  0.2292 -0.0156
25004W        W40621  16.603  10.836  13.184  0.1903  0.1628  0.0556
25005W        W40622  13.109   2.767  15.731  0.1071 -0.0234  0.1300
25006W        W40623   2.886   7.425   1.979  0.3168 -0.0449  0.0699
25007W        W40624   4.527  13.334   3.764  0.3162  0.2092  0.1586
25008W        W40625   8.055  13.927   3.745 -0.4753  0.3021  0.0781
25009W        W40626   8.524   2.270  15.887 -0.0436 -0.0709 -0.1555
25010W        W40627  13.411   9.566   0.642 -0.0144  0.0095 -0.1241
25011W        W40628   1.049  10.905  15.085 -0.2903 -0.1224 -0.2045
25012W        W40629   3.312  13.352   0.560 -0.1792  0.0946  0.2125
25013W        W40630   1.990   1.068   1.117  0.2325  0.3105  0.1328
25014W        W40631   2.503   2.815   2.529 -0.0850  0.2511  0.1042
25015W        W40632   7.745  15.432   6.148 -0.2440 -0.1246  0.0489
25016W        W40633   0.541  16.621   6.142 -0.1782 -0.1823  0.3972
25017W        W40634  17.485   0.463  12.696 -0.0680 -0.2354  0.0109
25018W        W40635   2.588  16.752  14.099 -0.0370 -0.0930 -0.1282
25019W        W40636  12.436   0.834   3.688 -0.2005 -0.2765  0.0622
25020W        W40637  16.892  12.345   4.754 -0.0236 -0.1714 -0.0401
25021W        W40638  16.611   4.057   1.546 -0.3281 -0.1207 -0.1434
25022W        W40639  15.813   3.589   3.480  0.1990  0.0320  0.0369
25023W        W40640   8.409   7.443  13.187  0.0753  0.0987  0.0144
25024W        W40641  10.857  10.585   4.060 -0.2494 -0.0015 -0.2782
25025W        W40642   3.052  14.724   2.710 -0.0430 -0.2015  0.3070
25026W        W40643  14.841   4.962   1.006 -0.2662  0.2076  0.0788
25027W        W40644  15.222  11.557  12.294 -0.0798 -0.1919 -0.5186
25028W        W40645  15.523   3.986  14.258 -0.2444  0.1541  0.1551
25029W        W40646   1.325   1.762  13.533  0.2824 -0.0753 -0.3246
25030W        W40647   6.454  13.460   1.319  0.0486 -0.1058  0.0149
25031W        W40648   0.185  12.195  16.018  0.1088 -0.0062  0.0944
25032W        W40649  12.679  13.909  15.529 -0.0839 -0.1082 -0.0412
25033W        W40650  17.394   2.403   3.743 -0.0974 -0.2589 -0.1458
25034W        W40651  15.690   3.691   2.999  0.0296  0.1603 -0.2927
25035W        W40652  11.244   2.614   5.222  0.0965  0.1610  0.1685
25036W        W40653  10.395  18.176   1.774  0.1387  0.1229 -0.1283
25037W        W40654  14.505  17.153  12.843 -0.0888  0.1265 -0.2427
25038W        W40655   3.468   0.736   5.640 -0.3194  0.0210  0.0971
25039W        W40656   3.161   2.993  11.895  0.2274 -0.0739  0.4113
25040W        W40657   2.563  15.811   3.822 -0.0245  0.2268 -0.1413
25041W        W40658  10.055   1.633   4.057  0.0101 -0.1248  0.0000
25042W        W40659   3.597  17.141   3.485  0.0238 -0.2589  0.0951
25043W        W40660  10.217   0.721   0.750 -0.2332  0.0283  0.0438
25044W        W40661  17.167   3.216  11.933 -0.0884 -0.1923 -0.2125
25045W        W40662   9.057  11.406  15.983 -0.1326  0.0591  0.1601
25046W        W40663   1.947   2.751   3.111  0.1613  0.1610 -0.1049
25047W        W40664  12.847   0.559   3.681 -0.0888  0.2768  0.0493
25048W        W40665  12.662   4.590  12.596  0.1700 -0.0417 -0.2480
25049W        W40666  15.429   5.476  15.278 -0.1577  0.2027 -0.0683
25050W        W40667   9.798  16.456  14.266 -0.2750 -0.3758 -0.0211
25051W        W40668   5.703  13.595   1.659  0.2242 -0.4162 -0.1840
25052W        W40669   5.831   3.379   3.791 -0.1528 -0.4055 -0.1763
25053W        W40670  10.492  13.396  11.159 -0.0564  0.0421 -0.0875
25054W        W40671  16.297  16.108   2.568  0.1737  0.1365 -0.1031
25055W        W40672   2.012  17.287  13.397 -0.0335  0.2267 -0.0070
25056W        W40673   3.835  15.141  15.618 -0.0461  0.0094 -0.0874
25057W        W40674  18.076  10.428  11.487 -0.2691 -0.0616 -0.0454
25058W        W40675   8.148  15.372  13.473  0.0052 -0.1064 -0.3097
25059W        W40676  13.328  10.198  16.015  0.2251  0.1086  0.0236
25060W        W40677   0.751   4.312   4.325 -0.3021 -0.1489  0.1461
25061W        W40678  14.913  12.098   4.210 -0.0617 -0.0461  0.1733
25062W        W40679   1.060   3.891  14.903 -0.0091  0.0819  0.1100
25063W        W40680   7.528   7.528  12.461 -0.1134 -0.1103 -0.2940
25064W        W40681   1.599   7.679   0.166 -0.1524  0.4459 -0.2428
25065W        W40682  16.330  15.888  13.057 -0.2991  0.0391 -0.1047
25066W        W40683  11.453   7.610   2.535  0.0901  0.1213  0.0378
25067W        W40684  16.431  14.337  15.918  0.0197 -0.2157  0.1426
25068W        W40685  11.134  13.053   5.000  0.3595  0.2475  0.0445
25069W        W40686   4.495  14.603   1.008  0.1055  0.0416 -0.0540
25070W        W40687   9.880   9.456   0.585  0.0580 -0.2063  0.0392
25071W        W40688  10.961   7.915   3.697 -0.0496 -0.0838 -0.2129
25072W        W40689  15.675   4.093   6.167 -0.0209 -0.0240 -0.0781
25073W        W40690   5.322  13.754   5.524  0.2875 -0.1363 -0.1547
25074W        W40691   6.011  11.684   2.042  0.1834  0.3030 -0.1561
25075W        W40692   2.462   8.704  13.568 -0.1868  0.0316  0.3102
25076W        W40693   9.725  17.776  11.872  0.1734  0.0923  0.3083
25077W        W40694  17.642   0.720   2.167 -0.0976 -0.0696 -0.1490
25078W        W40695  18.430   8.218   3.452  0.1008 -0.1108  0.4928
25079W        W40696   1.150  16.944  14.868 -0.1670  0.0864 -0.1472
25080W        W40697  15.269  16.924   5.595  0.2492 -0.0822 -0.0977
25081W        W40698  16.418   2.554  13.228 -0.2418 -0.0387  0.3240
25082W        W40699   3.051   7.583   3.930  0.1423  0.3333 -0.2351
25083W        W40700   2.677  14.278  12.692 -0.0117 -0.0071  0.0244
25084W        W40701  12.384  15.116   6.472  0.0337 -0.1488  0.2293
25085W        W40702  17.443  10.165   1.890 -0.1819  0.3455 -0.0593
25086W        W40703   0.371   7.944   3.661  0.5088  0.2447  0.1979
25087W        W40704   2.992  14.753  11.949 -0.0047 -0.2079 -0.2760
25088W        W40705  12.328  17.348   5.211 -0.3297 -0.0292  0.0273
25089W        W40706  12.115   4.003   1.998 -0.2056  0.0120  0.2239
25090W        W40707  10.578   4.699  14.168 -0.5366 -0.2289  0.0081
25091W        W40708  12.510  11.779  14.480  0.1932 -0.1653  0.5534
25092W        W40709   9.524  15.667   4.372  0.0076  0.1005  0.0447
25093W        W40710  18.241  12.699  13.041  0.0664  0.1181 -0.1018
25094W        W40711  13.147   2.470  12.346 -0.0346 -0.1727 -0.3134
25095W        W40712  17.271   4.783   4.949 -0.0776 -0.0884 -0.1453
25096W        W40713  16.370   7.756  10.003 -0.2890  0.2498 -0.2341
25097W        W40714   8.988  15.420  12.228  0.1212 -0.0490  0.2848
25098W        W40715   9.749  15.700   0.356 -0.1187  0.2825 -0.0163
25099W        W40716   8.100   2.880  10.740  0.1238  0.2099 -0.0643
25100W        W40717  14.072   7.251  12.362 -0.2059  0.0238  0.2714
25101W        W40718   3.028   9.216   5.174 -0.2001 -0.1805  0.0392
25102W        W40719   9.541  12.245   3.429 -0.1311 -0.1212  0.1709
25103W        W40720   0.419   8.803  12.344 -0.0584  0.1161 -0.3246
25104W        W40721  11.659   8.172   3.231 -0.0889 -0.4752  0.3153
25105W        W40722  17.555   2.483   4.665 -0.0440 -0.0730  0.2725
25106W        W40723   0.655  18.068   0.441 -0.1622  0.0581  0.1119
25107W        W40724   3.224   8.319  12.045  0.0563 -0.2652 -0.1260
25108W        W40725   6.371   3.877  12.615  0.3285  0.0667 -0.1302
25109W        W40726   2.953   1.156  14.395  0.0719  0.2137  0.2190
25110W        W40727   7.119   1.978  15.739 -0.1373  0.3097 -0.1757
25111W        W40728   8.009   8.646  13.866 -0.2278 -0.0128  0.3285
25112W        W40729   6.468   3.404   2.824 -0.1002  0.0299 -0.0005
25113W        W40730   7.195   7.640  13.917 -0.2258  0.1699  0.2244
25114W        W40731  15.718  11.257   3.429  0.2908 -0.1150  0.0917
25115W        W40732   0.713   7.063   0.862  0.2164 -0.0393  0.2389
25116W        W40733   2.664   9.172  13.611  0.0655 -0.1241 -0.0120
25117W        W40734   7.035   6.716   9.704  0.0990  0.2594  0.0842
25118W        W40735   9.122  12.712   0.308 -0.1989 -0.0426 -0.1534
25119W        W40736   2.853  17.609   3.465 -0.1826 -0.1365 -0.0027
25120W        W40737   9.034  13.257  11.895  0.0019  0.1497  0.2500
25121W        W40738  12.969  15.172   0.101  0.4024  0.0509 -0.3435
25122W        W40739   5.103  15.196  12.342  0.0441 -0.0861 -0.0555
25123W        W40740  14.235  14.329  14.113  0.0267  0.2494  0.1225
25124W        W40741  10.688   4.829   3.662  0.0719  0.0788 -0.1216
25125W        W40742  14.147   4.084   3.656 -0.1898  0.0754 -0.4065
25126W        W40743   7.814   3.669   0.749  0.0043 -0.1723 -0.1076
25127W        W40744  16.190   3.141  14.687 -0.1215 -0.1178 -0.2319
25128W        W40745   9.320  16.741   4.582 -0.1642  0.1344 -0.0141
25129W        W40746   5.047   0.622   9.949  0.1722 -0.1782 -0.2019
25130W        W40747   7.044  17.051   0.646 -0.2926 -0.1805 -0.3944
25131W        W40748   9.931   1.272  13.079 -0.0451  0.2458 -0.1195
25132W        W40749   1.162  15.109   1.125  0.0698 -0.2900  0.0708
25133W        W40750   9.675   5.222  11.579  0.2267 -0.1016  0.1359
25134W        W40751   9.882   0.965   0.278 -0.0263  0.0447 -0.0246
25135W        W40752   9.568  11.316  11.317 -0.0695 -0.2378 -0.2143
25136W        W40753  12.355   4.958  12.380  0.0360  0.1091  0.1503
25137W        W40754  14.739  16.109   1.788  0.0776  0.0707  0.3288
25138W        W40755  11.282   3.051   2.121  0.0452  0.0805 -0.1974
25139W        W40756   5.858  10.838  13.992 -0.3218 -0.1162 -0.0680
25140W        W40757   8.675  10.006   0.672  0.0805  0.0339 -0.3059
25141W        W40758   1.720  10.244   3.343  0.0782  0.2492  0.1387
25142W        W40759  15.131  10.766  13.383  0.0256 -0.0895  0.0346
25143W        W40760  15.909   5.662   3.656 -0.1608 -0.0298  0.3591
25144W        W40761  13.399  16.436   2.348  0.0757 -0.0756 -0.1382
25145W        W40762  13.707   5.760   5.220 -0.1534 -0.0498 -0.3524
25146W        W40763   2.485   9.202  14.069 -0.1929  0.0011  0.3133
25147W        W40764   3.635   5.093  11.563  0.1995 -0.2609  0.0234
25148W        W40765   5.667   8.804   1.715 -0.0906  0.0966  0.2158
25149W        W40766   6.470   7.685   1.867  0.1507  0.1479  0.1977
25150W        W40767  17.938   4.637   0.136  0.2221 -0.2363  0.0897
25151W        W40768  17.298   5.923   4.179  0.0006  0.1840  0.2236
25152W        W40769   7.431  16.528  12.373  0.3240 -0.0657 -0.0508
25153W        W40770   1.223   8.067   2.670  0.1324 -0.0022 -0.0106
25154W        W40771  10.592  14.057   0.020  0.6753 -0.1812  0.0533
25155W        W40772  17.205  10.284   0.616  0.0886  0.1257  0.3563
25156W        W40773   4.019   5.518  14.078  0.0367  0.2556 -0.0019
25157W        W40774  15.912   3.486   5.010 -0.0481 -0.0812  0.0338
25158W        W40775  12.932  11.140   3.549  0.3268  0.0528  0.0701
25159W        W40776  16.234  11.540  13.707 -0.0183 -0.0671  0.0124
25160W        W40777   7.543  13.340  12.978 -0.3139  0.0414 -0.4150
25161W        W40778   3.036   3.870   0.484 -0.0054  0.0638 -0.2017
25162W        W40779  10.303   8.710   5.683 -0.1127 -0.0671 -0.0597
25163W        W40780   4.634  14.499   3.711 -0.2738 -0.0538  0.2536
25164W        W40781   8.336   7.561  14.614 -0.1719  0.0714 -0.0890
25165W        W40782   8.703   9.273   2.848 -0.1080 -0.0160  0.0980
25166W        W40783  16.135   0.412  13.581 -0.0906  0.0984  0.1514
25167W        W40784  12.885  12.596   1.819 -0.2095 -0.0232  0.0425
25168W        W40785  17.698   9.479   4.763  0.4310 -0.0061 -0.0405
25169W        W40786  13.188  14.167   5.309  0.0971  0.0686 -0.3440
25170W        W40787  15.517  17.383   1.058  0.0708  0.3338 -0.1052
25171W        W40788   6.860   3.377  13.822  0.0700  0.1259 -0.1337
25172W        W40789  15.509  12.758   1.997  0.0833 -0.0886 -0.3276
25173W        W40790  11.393   7.572  10.651  0.0026 -0.0809 -0.2048
25174W        W40791  13.248   4.140  13.288 -0.3369  0.0395 -0.2579
25175W        W40792  12.401   2.723   5.132  0.1184 -0.2440  0.2883
25176W        W40793  10.712   0.464  12.149  0.1391  0.0993  0.2849
25177W        W40794   5.059  17.680   5.283 -0.0804  0.2021 -0.2795
25178W        W40795  13.080   1.036   4.756  0.0530 -0.0618  0.1272
25179W        W40796  16.721  18.045   4.304 -0.0289 -0.1684  0.0259
25180W        W40797   8.301   8.388  12.189  0.1032  0.0480  0.0802
25181W        W40798   6.409   5.726   3.389  0.1208  0.0407  0.2191
25182W        W40799  15.606  10.399   3.053  0.1765  0.0418 -0.1488
25183W        W40800  13.491   9.608   2.005 -0.1533  0.1742  0.1162
25184W        W40801   1.081  11.326  15.983  0.3024  0.2503  0.2553
25185W        W40802   9.809  15.280  13.285 -0.1781  0.0343 -0.0971
25186W        W40803   0.444   4.029   0.935 -0.1841  0.3192  0.2365
25187W        W40804  16.547  14.906  11.813  0.1523  0.2379  0.3216
25188W        W40805   7.686   4.853  13.955  0.3101  0.2527  0.0571
25189W        W40806   1.692   0.689  11.417  0.0395  0.0489  0.2193
25190W        W40807  17.942   1.058   1.832 -0.3022 -0.0657  0.2340
25191W        W40808  15.150  15.898  13.225  0.0642 -0.0017 -0.0295
25192W        W40809  11.402  15.100  12.011  0.2752  0.2531 -0.1564
25193W        W40810  16.611  11.149   5.488  0.3862 -0.0780  0.0277
25194W        W40811   8.763   1.913   4.612 -0.0383  0.1933  0.1189
25195W        W40812   6.400  17.293  15.264 -0.3383 -0.1076  0.0102
25196W        W40813  12.950  13.497  11.999 -0.0798  0.4389  0.1245
25197W        W40814  17.545   0.690  14.920 -0.2265 -0.0773 -0.1319
25198W        W40815  14.279  12.809  16.057 -0.2472  0.0881  0.0159
25199W        W40816   8.078   9.930   2.669 -0.2268 -0.1146  0.2378
25200W        W40817  12.410  10.933  11.978  0.3133  0.1747 -0.2213
25201W        W40818   3.203  16.736   1.590 -0.2630  0.3013  0.1551
25202W        W40819  18.101   1.779   3.183  0.0687 -0.0058 -0.0294
25203W        W40820  10.253  16.565   0.093 -0.3304 -0.0105 -0.0735
25204W        W40821   0.360   4.645  15.045  0.1016 -0.0223  0.2272
25205W        W40822   2.806  10.675  12.461 -0.2190 -0.2866  0.0678
25206W        W40823  14.090   4.888   2.752  0.0649  0.2624 -0.0692
25207W        W40824   0.581  14.258   0.388 -0.0109 -0.0298 -0.1611
25208W        W40825   4.862   2.266  15.908 -0.2907 -0.2022  0.1031
25209W        W40826   4.371   6.211  13.813  0.5475 -0.3434  0.0996
25210W        W40827   0.835   7.628  13.084 -0.2130  0.1376 -0.2237
25211W        W40828  13.287   2.488  14.900  0.2715 -0.3486 -0.2702
25212W        W40829  13.903  14.534   4.573  0.0784 -0.0367 -0.0707
25213W        W40830   9.585   8.806   4.549 -0.0336  0.3094 -0.2536
25214W        W40831  15.611  16.053   3.227  0.0717 -0.2104  0.0513
25215W        W40832  15.446  12.633   3.241  0.1615 -0.1142  0.0056
25216W        W40833  18.148  15.782   0.055  0.2163  0.0470 -0.2538
25217W        W40834   0.752  13.394  16.052 -0.1659 -0.2805 -0.0492
25218W        W40835  15.961  10.163   4.378  0.1055  0.0266 -0.2694
25219W        W40836   5.759  16.843   1.397 -0.1324  0.1275  0.3077
25220W        W40837  13.519  15.487  15.409 -0.2775  0.1012 -0.0894
25221W        W40838   2.261  11.757   4.304 -0.4207 -0.2562  0.1074
25222W        W40839   5.081   2.511   3.361  0.1747  0.1431  0.1962
25223W        W40840   7.852  14.102   0.069 -0.1978  0.2721  0.1520
25224W        W40841   1.187  12.504   2.397  0.5415  0.0555 -0.1237
25225W        W40842   9.016  13.467  14.262 -0.1250  0.0377  0.3218
25226W        W40843  14.012  14.951  11.031 -0.0017  0.0495 -0.4121
25227W        W40844   3.825   7.065   0.539  0.0951  0.0003 -0.0147
25228W        W40845  17.275  16.210  16.044  0.0341 -0.4402 -0.1011
25229W        W40846   7.828  12.951   2.325  0.1644  0.1065 -0.1405
25230W        W40847   5.899   8.051  13.357 -0.0360  0.6402 -0.0350
25231W        W40848   0.148  16.427   1.964  0.1100  0.0578 -0.0805
25232W        W40849  13.126   0.150   2.723  0.0738 -0.0612 -0.1372
25233W        W40850  15.942   4.003   4.840  0.0464 -0.0639  0.1844
25234W        W40851   0.351  13.057   3.829 -0.1782 -0.2469 -0.0738
25235W        W40852  16.399  12.034  15.892  0.0890  0.1580 -0.0721
25236W        W40853   3.502   4.804  13.662 -0.3919  0.1222  0.0617
25237W        W40854   1.484   0.567   2.470 -0.0034 -0.1409  0.0090
25238W        W40855  11.732   6.176  11.174 -0.0277 -0.1570  0.1869
25239W        W40856  11.230   4.410   2.392 -0.3080 -0.0290 -0.0189
25240W        W40857   9.531  12.319  11.425 -0.1588 -0.0801 -0.0797
25241W        W40858   9.274   2.292  11.849 -0.0175 -0.0030  0.1959
25242W        W40859   4.194   9.153   4.050 -0.1204 -0.1535  0.0011
25243W        W40860  13.520  14.327   0.891  0.2323  0.0354  0.0819
25244W        W40861  10.663   0.394   2.461 -0.0225  0.0645  0.0161
25245W        W40862  12.791   4.343  13.617 -0.0846 -0.0986  0.1150
25246W        W40863   2.900  13.947  14.621  0.2207  0.0876  0.0735
25247W        W40864   5.157   1.757   0.968 -0.0005 -0.3004 -0.1643
25248W        W40865   3.284   2.495  14.139 -0.0908 -0.1549  0.2922
25249W        W40866   3.125  17.293   2.009  0.1313 -0.0732 -0.0027
25250W        W40867   2.161   4.787  14.922 -0.2027  0.0641 -0.0065
25251W        W40868  10.034   6.381   1.423  0.0100  0.1452  0.0674
25252W        W40869   9.023  10.436  13.061 -0.3746  0.0425 -0.0732
25253W        W40870   7.950   1.955   1.377  0.0234  0.0674 -0.0960
25254W        W40871   6.473  10.173  15.806 -0.1722  0.1335  0.1770
25255W        W40872   8.415   9.157  15.544  0.2225  0.0635  0.0220
25256W        W40873   3.388   7.712   3.641 -0.5938 -0.0639 -0.1616
25257W        W40874   4.863   8.985  14.363  0.3385  0.5916  0.3023
25258W        W40875  14.068   1.913  12.679  0.3926 -0.0678 -0.0788
25259W        W40876   4.407   6.563   3.714  0.1845  0.0136  0.1088
25260W        W40877   2.220   0.762  14.456  0.1988 -0.1122 -0.1071
25261W        W40878   5.130  17.975   1.477  0.3226  0.2441  0.0005
25262W        W40879   2.391  12.232  15.942  0.1008 -0.0341 -0.2947
25263W        W40880   9.527   0.130   2.421  0.1447 -0.1404 -0.1402
25264W        W40881   6.681  15.789  14.340 -0.1942  0.0799  0.0527
25265W        W40882  13.749   2.473   1.671 -0.0959  0.1469  0.1235
25266W        W40883   1.811  15.557   5.052  0.0987 -0.1729  0.1264
25267W        W40884  12.709  14.170  16.051  0.2087 -0.1264 -0.0646
25268W        W40885  10.178   2.734  15.094  0.0723  0.2736 -0.1128
25269W        W40886   5.764   8.541  13.464  0.3581 -0.1121 -0.3899
25270W        W40887  15.999  14.223  15.126  0.0509  0.1043  0.0789
25271W        W40888  18.061  13.338  12.357 -0.1165  0.3150 -0.0691
25272W        W40889   8.183   7.886   1.098  0.2567  0.0881 -0.0567
25273W        W40890   5.393   3.726   4.970  0.1767 -0.0437 -0.1120
25274W        W40891   9.751  16.304   5.833  0.1642 -0.1385  0.3293
25275W        W40892   2.899   8.122   0.341  0.0501  0.1678 -0.1051
25276W        W40893  10.632   1.946  13.560  0.0070  0.1123 -0.1516
25277W        W40894  18.233  12.685  14.470  0.0785 -0.4227  0.2138
25278W        W40895   1.677  11.009  12.036 -0.1221 -0.3017 -0.0287
25279W        W40896  13.004  16.226   2.084  0.0055  0.3541  0.2265
25280W        W40897   0.214  14.505  16.130  0.1557  0.0202 -0.1475
25281W        W40898   4.721   0.228  14.379  0.0284 -0.2868  0.0038
25282W        W40899  18.460   7.740   1.608 -0.0793 -0.0353  0.0824
25283W        W40900   8.267  16.454  15.107 -0.1588 -0.2126 -0.3118
25284W        W40901  16.178  17.779  11.510  0.1141  0.1266 -0.1397
25285W        W40902   3.292   4.227   3.949  0.1618 -0.1372 -0.2947
25286W        W40903  15.228   9.265   0.405  0.1198  0.0347 -0.0153
25287W        W40904   0.719   9.158   4.411 -0.0157 -0.1231  0.0125
25288W        W40905   1.536  12.562   4.293  0.0776  0.0893  0.3294
25289W        W40906  13.088   3.306   3.345 -0.0406 -0.2273 -0.0026
25290W        W40907   6.294  16.693   1.393  0.0450  0.0133  0.2881
25291W        W40908   4.813  15.223   2.179  0.1709 -0.2189  0.0200
25292W        W40909  16.194  15.096   2.157  0.0076  0.0481 -0.1344
25293W        W40910   9.079  11.485  12.231  0.0440 -0.2270  0.1627
25294W        W40911  13.420   7.230  13.656  0.1199  0.1649  0.2057
25295W        W40912  13.586  14.904  11.984 -0.0811 -0.0856 -0.1330
25296W        W40913   8.751  15.637   3.003  0.0353 -0.2280 -0.2399
25297W        W40914  16.872  12.774   4.267  0.0845  0.2000 -0.1136
25298W        W40915   4.638  12.804  12.181  0.2604  0.3452 -0.0974
25299W        W40916   1.832  17.975  12.425  0.4301  0.2127  0.0532
25300W        W40917   4.357   8.670  10.450  0.1691 -0.0553  0.0575
25301W        W40918  10.743  14.367   1.712  0.1992 -0.4686 -0.2878
25302W        W40919   7.328  13.197   2.148  0.0933  0.1197 -0.0540
25303W        W40920   0.328   7.418   3.812  0.3028 -0.2037 -0.0223
25304W        W40921  15.403  13.514   0.068  0.3593  0.0904  0.1103
25305W        W40922   0.635   5.773  15.029 -0.1056 -0.1912 -0.0246
25306W        W40923   3.961  13.641  12.865  0.0479  0.1034 -0.1072
25307W        W40924  18.413  10.435   0.357  0.1762 -0.1160 -0.0399
25308W        W40925   9.255   0.565  10.892 -0.0216  0.1051 -0.1885
25309W        W40926  10.318  12.178   5.499 -0.3004 -0.1777 -0.1061
25310W        W40927   5.613  14.647   1.380 -0.2854 -0.0053 -0.1682
25311W        W40928   6.590   3.896   2.728  0.0685 -0.0416 -0.0317
25312W        W40929   3.996  18.349   0.647 -0.1169 -0.2771  0.3179
25313W        W40930   3.425   1.949   0.580  0.2073 -0.3336 -0.6461
25314W        W40931  15.824   9.630  14.927 -0.0508  0.1728  0.0265
25315W        W40932   6.142   1.596  14.000  0.0047 -0.1605  0.2966
25316W        W40933  16.822   3.665  15.342  0.0137 -0.0747  0.2083
25317W        W40934   3.364   6.913   0.085  0.1279 -0.0051 -0.0138
25318W        W40935   3.264   8.765   1.476  0.0585 -0.1461  0.3540
25319W        W40936   9.429   4.535  12.240  0.2020 -0.0569 -0.1317
25320W        W40937   6.442   4.821   2.211 -0.0401  0.4769  0.0929
25321W        W40938   5.257  11.526   4.007  0.0054 -0.0670 -0.1712
25322W        W40939   9.564   6.787   2.020 -0.1672  0.0589  0.0641
25323W        W40940   4.064   2.440  14.426  0.2273  0.1298 -0.1586
25324W        W40941   1.269   0.969   3.024  0.0388  0.3030  0.1535
25325W        W40942  17.108   8.130  12.698 -0.0918 -0.0839 -0.0424
25326W        W40943  13.706  13.823   1.078  0.2688  0.3767  0.0061
25327W        W40944  17.202   1.915   2.974  0.1271  0.1632  0.3486
25328W        W40945  14.432  18.436   0.823 -0.3313 -0.0709  0.1285
25329W        W40946  10.838   1.473  12.129  0.0125  0.2449 -0.0297
25330W        W40947  17.243  14.312  12.803 -0.1096  0.1937 -0.3780
25331W        W40948   2.724   3.931  14.014 -0.0299 -0.3815  0.2303
25332W        W40949  12.530   2.672   3.920  0.3504  0.4821  0.2103
25333W        W40950  11.985  11.163   1.845  0.1292  0.1501 -0.0651
25334W        W40951  12.514   0.218  11.670  0.2221 -0.2076 -0.1647
25335W        W40952   0.891   5.271   5.463 -0.0127 -0.1267  0.4557
25336W        W40953  12.852   9.893   2.670 -0.1385  0.1223  0.3265
25337W        W40954  11.677   3.073  12.692  0.3267 -0.0694  0.0894
25338W        W40955   9.900  16.945   2.873 -0.0728  0.0927  0.1630
25339W        W40956  17.508  15.562   2.225 -0.1474  0.0634  0.0526
25340W        W40957  15.452   6.420  15.424  0.2682 -0.1785  0.3524
25341W        W40958   9.068   8.619  10.972  0.2581  0.1384  0.0914
25342W        W40959  12.226  17.284   2.265 -0.1511  0.1911  0.0233
25343W        W40960   2.872   7.199   5.308  0.0454  0.0492 -0.1377
25344W        W40961  11.510   8.652   2.555 -0.0890 -0.0791 -0.0049
25345W        W40962   3.116  18.338  12.829 -0.2150  0.1009 -0.2502
25346W        W40963  12.492  13.955   0.328 -0.1126 -0.0674  0.0707
25347W        W40964  16.139   4.270  11.209  0.2142 -0.0579  0.1486
25348W        W40965  17.933   1.824   5.607 -0.1642  0.0621  0.0222
25349W        W40966   0.028  10.256  14.374 -0.1354  0.0214  0.2472
25350W        W40967   7.373   8.129  13.785  0.1374 -0.1139 -0.2819
25351W        W40968  16.498   3.380  14.178  0.0843  0.0536  0.2131
25352W        W40969   3.281  12.497   5.284 -0.0234  0.1739 -0.0428
25353W        W40970   8.717   5.693  12.281  0.1244  0.0471 -0.0024
25354W        W40971  14.070  13.218  14.598 -0.3094  0.0437  0.2174
25355W        W40972   2.758  16.350   3.120  0.1417 -0.0490  0.2293
25356W        W40973   9.582  17.180   4.723 -0.2194 -0.1170  0.0351
25357W        W40974  16.682  11.981   1.220  0.0059  0.2669 -0.0076
25358W        W40975   1.361   8.525   2.833 -0.1583  0.2840 -0.1999
25359W        W40976  10.159  18.309  15.065 -0.3509 -0.0025  0.2309
25360W        W40977  12.187  10.314   2.214 -0.1167 -0.2329  0.0869
25361W        W40978  16.518  11.656   5.450  0.1398  0.1200 -0.1111
25362W        W40979   3.540   5.101  15.014 -0.2761  0.1697 -0.1583
25363W        W40980   3.614  17.872  13.314 -0.0740 -0.1826 -0.0393
25364W        W40981   1.172   4.822   1.453  0.1713  0.2888  0.3436
25365W        W40982  14.528   0.729  12.693 -0.0852  0.2292 -0.0476
25366W        W40983  15.191   0.547  13.661  0.1964 -0.1099 -0.1693
25367W        W40984   5.024   2.243   3.793  0.0164  0.1747 -0.4306
25368W        W40985   9.685   5.306  13.793  0.2652  0.1471 -0.2352
25369W        W40986   7.794   8.947   4.769 -0.1086  0.2754  0.0087
25370W        W40987   8.796  18.274   1.707  0.0270 -0.0046  0.4309
25371W        W40988   7.697  14.945   0.908 -0.2545  0.0086  0.2861
25372W        W40989   1.207   8.251  14.595  0.2333  0.5062  0.3537
25373W        W40990   2.851  10.197  15.465 -0.0079 -0.1103  0.1346
25374W        W40991  13.814  12.619  15.666  0.1837  0.0141 -0.3260
25375W        W40992  10.507   7.357  12.245  0.0334 -0.1480 -0.1920
25376W        W40993   6.917   7.323   4.832 -0.0478  0.3338  0.1029
25377W        W40994   9.938  14.614   1.290 -0.0576 -0.0902 -0.2265
25378W        W40995   4.909   5.349  13.712  0.2217 -0.0244  0.0062
25379W        W40996  15.881   8.947   4.911 -0.1981  0.2370 -0.0633
25380W        W40997  18.271  10.575  13.027 -0.0947  0.1143 -0.3855
25381W        W40998   8.808  17.884   2.499 -0.4084  0.2992  0.1426
25382W        W40999  13.136   1.906   3.097 -0.1182 -0.1397  0.3373
25383W        W41000   5.305   8.528   0.668  0.1264  0.0957 -0.1766
25384W        W41001  11.306   9.271  13.576  0.0201 -0.0268  0.3232
25385W        W41002  13.712   7.130  13.217 -0.0280  0.0316 -0.0008
25386W        W41003   1.735  10.504  11.983  0.0886  0.1391  0.1470
25387W        W41004   8.490   1.802  12.462  0.0936 -0.1947 -0.2270
25388W        W41005   3.460  15.449   3.438  0.3520 -0.1786  0.0529
25389W        W41006  10.708   7.242  14.480 -0.0520  0.2305 -0.2558
25390W        W41007  14.103   5.069   0.924 -0.1585 -0.2539 -0.1165
25391W        W41008   2.143  11.677  15.611  0.0401 -0.2844 -0.3128
25392W        W41009   9.934   3.923   0.618  0.0674  0.0376  0.0052
25393W        W41010  12.677   4.500  11.185  0.1244 -0.2991  0.0198
25394W        W41011   3.160  15.562   2.513 -0.1615  0.1739 -0.1282
25395W        W41012   2.632  15.960   4.857  0.2048  0.1936 -0.2181
25396W        W41013  11.388   4.943  14.806 -0.1018  0.1764  0.2335
25397W        W41014  13.840   5.350  14.908 -0.1986 -0.1176 -0.0012
25398W        W41015  13.063  11.344  13.349  0.0641 -0.0490 -0.1912
25399W        W41016   8.987   7.317   3.058  0.2973 -0.1266 -0.0469
25400W        W41017  16.633   9.802  14.220 -0.0474 -0.0260  0.1292
25401W        W41018   0.401   9.420   0.154 -0.1756  0.1894  0.0700
25402W        W41019   6.905  18.311  15.175 -0.1731  0.2045  0.1202
25403W        W41020   5.706  16.039   0.764  0.0260 -0.2467  0.0446
25404W        W41021  13.005   9.792   4.548 -0.4158 -0.3408  0.0078
25405W        W41022  10.506  13.336   5.902 -0.4808  0.2234  0.2024
25406W        W41023   1.857   4.856   4.511  0.3513  0.2379  0.2752
25407W        W41024  13.180  14.026  15.396  0.2152  0.2030 -0.1567
25408W        W41025   6.557  18.245   2.790  0.1641  0.1036 -0.1093
25409W        W41026   2.618  14.191   6.249  0.0309 -0.2118 -0.1610
25410W        W41027  12.814  18.184   0.341 -0.0417 -0.3740  0.0125
25411W        W41028   5.569  12.464  15.987  0.0670  0.0834  0.3185
25412W        W41029  17.844  13.347   5.642 -0.0240 -0.1885 -0.1954
25413W        W41030   8.841   9.656  11.804  0.2723 -0.0072  0.1316
25414W        W41031   9.798   0.414   1.578 -0.0138  0.1749  0.3630
25415W        W41032  15.269   3.842  11.749  0.1239 -0.2357 -0.2152
25416W        W41033   0.834  14.225   4.527  0.1972  0.1659 -0.0479
25417W        W41034  14.159   1.311  15.035  0.0812 -0.0789  0.0177
25418W        W41035  15.721  11.517   4.828  0.1210  0.3758 -0.2321
25419W        W41036   6.819   4.750   1.278  0.2706  0.0600  0.2634
25420W        W41037   4.514  10.870  12.841 -0.2803 -0.2893 -0.1567
25421W        W41038  12.972  13.065   1.747  0.1103 -0.2938 -0.3380
25422W        W41039  11.690   3.093   3.932 -0.1724 -0.0264  0.0104
25423W        W41040  12.514  12.857  11.490 -0.0377  0.1059 -0.1728
25424W        W41041   1.416   9.103  15.894 -0.2075 -0.0864 -0.0701
25425W        W41042   9.109  18.003   1.462 -0.1723 -0.0528  0.0737
25426W        W41043   6.711   3.981  13.489 -0.4599  0.2385 -0.0304
25427W        W41044  18.017   4.221   5.665  0.1456  0.0841 -0.1009
25428W        W41045   3.400  15.055   3.765 -0.0150 -0.1215  0.1750
25429W        W41046  11.700   5.583  14.383 -0.0514  0.4185 -0.0819
25430W        W41047   4.954  17.992   4.241  0.0403 -0.0896 -0.3487
25431W        W41048   2.760   6.018   0.147 -0.1963  0.0751  0.0459
25432W        W41049   2.977  17.918  12.337 -0.0169 -0.1269 -0.2842
25433W        W41050   4.499   2.549  14.114 -0.0651 -0.0137  0.0820
25434W        W41051  16.394  13.517  11.808 -0.2215  0.3792  0.2496
25435W        W41052   9.120   4.749   1.619  0.3156  0.0788  0.0316
25436W        W41053  12.910  16.332  15.542 -0.0651  0.2434 -0.2616
25437W        W41054  13.833   0.186   2.205  0.2111 -0.2221  0.0496
25438W        W41055  11.688  15.032  15.751  0.0376 -0.1459  0.0712
25439W        W41056   2.191  17.653   2.437  0.0628 -0.4275  0.1661
25440W        W41057   5.306  15.696   3.908 -0.0589  0.1557 -0.1239
25441W        W41058   3.002  13.697   5.057 -0.2500 -0.1470 -0.2385
25442W        W41059  16.696  15.934   2.218  0.0609  0.0159  0.2141
25443W        W41060  11.306   8.204  15.873 -0.1176 -0.1541  0.1251
25444W        W41061  14.056   0.936  12.844 -0.1722  0.2064  0.0557
25445W        W41062   5.858   9.341   3.125 -0.0313  0.2496 -0.2238
25446W        W41063  17.020  15.559   5.306 -0.2021 -0.0738  0.0055
25447W        W41064  12.868   5.600   5.050 -0.1255 -0.1559 -0.0572
25448W        W41065   1.777  15.678   1.279  0.1493  0.0580  0.0643
25449W        W41066   4.226   7.952   9.908  0.3034  0.0123 -0.0487
25450W        W41067  10.801  11.812  12.346  0.1909  0.1327 -0.1067
25451W        W41068  17.493  10.999   4.271 -0.1292  0.0176  0.0195
25452W        W41069   4.755   8.364   3.831 -0.0835 -0.1093  0.1293
25453W        W41070  16.898  14.946   5.199  0.1306 -0.1758  0.0462
25454W        W41071   0.038   9.762  14.113 -0.0466  0.1539 -0.2418
25455W        W41072  13.461  16.097   2.051 -0.0035  0.1335 -0.1150
25456W        W41073  11.504   6.557  11.412 -0.0234  0.3118 -0.2710
25457W        W41074  12.688  18.217   4.954  0.2067  0.0398  0.2874
25458W        W41075   8.862  11.871  12.520 -0.2127 -0.1263 -0.2466
25459W        W41076   4.516   4.201  13.855 -0.0605  0.0741 -0.0192
25460W        W41077  17.245  15.332   3.646  0.1514  0.0115 -0.0051
25461W        W41078   0.451   7.084   3.282 -0.2041  0.1709 -0.2324
25462W        W41079   4.203   3.700  12.106 -0.2861 -0.0457  0.0295
25463W        W41080   0.279   7.745   4.175  0.1269  0.0661 -0.0358
25464W        W41081   9.939  16.657   6.198  0.0552 -0.0143 -0.2292
25465W        W41082   2.065   2.909   3.753  0.0236  0.0281  0.1397
25466W        W41083  16.955  10.568   0.219 -0.0304 -0.3691 -0.3748
25467W        W41084  15.130  13.272  14.440  0.0523  0.1220 -0.0638
25468W        W41085   0.176   5.810   2.918 -0.1330  0.2192  0.0620
25469W        W41086   8.707  14.454  13.832  0.0371  0.1999  0.0372
25470W        W41087  10.144   9.599   1.039 -0.0082 -0.0820  0.1180
25471W        W41088  13.890   4.339  13.923 -0.4268  0.3396  0.0428
25472W        W41089  13.868   5.226   3.883  0.0841  0.3382  0.2151
25473W        W41090   8.483  10.925   5.156 -0.2102  0.1269 -0.0899
25474W        W41091  12.729   8.669  14.966  0.1194  0.0166  0.1623
25475W        W41092   3.382  15.068   2.549 -0.2048 -0.1277  0.3037
25476W        W41093   7.537  13.844   5.199 -0.4972  0.1351 -0.1118
25477W        W41094  12.828   5.966  16.040  0.3478  0.2134 -0.0121
25478W        W41095  14.328  16.617   2.966  0.0640  0.1386 -0.0734
25479W        W41096   9.923  11.550   0.080  0.0346 -0.1772 -0.0331
25480W        W41097   0.754   7.755   3.957  0.3221  0.1247 -0.2168
25481W        W41098   8.018  13.065  10.784  0.0847  0.0509  0.1123
25482W        W41099  16.547   0.295  11.586  0.0282 -0.0020 -0.1162
25483W        W41100   1.047  11.250  10.343 -0.0834  0.1545 -0.1366
25484W        W41101  16.754   4.861  15.590  0.3879 -0.0012  0.2260
25485W        W41102  16.266  10.041   0.342 -0.0826 -0.0028  0.1002
25486W        W41103  11.987  13.327   5.291  0.0159  0.0515 -0.2519
25487W        W41104   0.294  14.628  14.695  0.0623 -0.3491 -0.0303
25488W        W41105  14.733  12.024  13.391  0.0902  0.0037  0.0057
25489W        W41106  11.619  10.134   4.457  0.3680 -0.4683 -0.1837
25490W        W41107   0.110   4.972  12.293 -0.0709  0.1173  0.0947
25491W        W41108   4.388   5.909  16.073  0.2139  0.0101  0.0682
25492W        W41109   7.540  16.703  15.800 -0.1313 -0.0322 -0.2777
25493W        W41110   3.942   3.389  13.380  0.0751  0.0699 -0.1490
25494W        W41111  10.316   6.336   4.469  0.1138 -0.0313 -0.1472
25495W        W41112   2.497  17.676   3.959  0.1913 -0.0479  0.1513
25496W        W41113  10.558  13.339   1.442 -0.0164 -0.0181  0.1749
25497W        W41114   8.666  12.753  14.454 -0.0257  0.0966 -0.1566
25498W        W41115   8.202  13.827  15.191  0.0819 -0.2552  0.0346
25499W        W41116   8.633  14.969   4.938 -0.2674  0.1834 -0.3761
25500W        W41117   9.604  14.768  14.232 -0.0856 -0.1407  0.3567
25501W        W41118   0.426   9.710  13.421  0.3176  0.1137 -0.1258
25502W        W41119  11.948  17.834   3.687  0.0691 -0.1867 -0.0312
25503W        W41120  18.279   0.347   2.080  0.0561 -0.3341 -0.1340
25504W        W41121   2.722  15.391  13.346  0.3578  0.3769 -0.0645
25505W        W41122   8.864  10.782  11.127  0.2645  0.1774  0.0786
25506W        W41123  11.004   3.528  12.844 -0.2090 -0.0247  0.1442
25507W        W41124  14.907   5.150  13.477 -0.1060  0.1395 -0.0899
25508W        W41125   6.132  10.999   3.255 -0.1699  0.0427  0.1536
25509W        W41126   4.372  17.846   3.018 -0.1776 -0.1785  0.1151
25510W        W41127  15.177   1.216   0.402  0.0077 -0.0475 -0.0110
25511W        W41128  17.763  17.184   0.436 -0.0423 -0.2409  0.1267
25512W        W41129   6.418  15.715   4.011  0.1305 -0.2620  0.2755
25513W        W41130  14.170   8.724  12.218 -0.1711 -0.0280 -0.0924
25514W        W41131   5.181   6.239  11.616 -0.0605  0.2761  0.2637
25515W        W41132  11.884  10.737  11.300  0.2525 -0.0020  0.0656
25516W        W41133  16.437   6.729  13.362 -0.3026 -0.0462 -0.0727
25517W        W41134   2.398  15.135  13.068  0.3714  0.0878  0.1332
25518W        W41135   6.278  16.982   2.669  0.1547 -0.1933 -0.0930
25519W        W41136  15.022   2.228   4.366 -0.0207 -0.0560 -0.1859
25520W        W41137   8.933  14.756  14.822 -0.1055 -0.1329 -0.0374
25521W        W41138  11.805  18.392  12.072 -0.1945 -0.1275  0.1366
25522W        W41139   9.969   4.106  14.048  0.3418  0.3455 -0.0236
25523W        W41140   1.048  17.629   0.286  0.1706  0.1775 -0.2639
25524W        W41141  12.370  14.504  11.314  0.1077 -0.1746  0.1907
25525W        W41142   4.982  15.588  12.905 -0.0412  0.1935  0.0953
25526W        W41143  17.927  11.109   2.461 -0.0623  0.0390  0.1102
25527W        W41144   4.363  12.247   0.211  0.2485  0.1143 -0.0131
25528W        W41145   0.824  14.151   2.177  0.1532  0.1972  0.1083
25529W        W41146  10.428  13.792  12.138  0.0588 -0.3359  0.1938
25530W        W41147  10.643  11.145  10.403 -0.2711  0.1832  0.1951
25531W        W41148  11.578   2.991   1.673 -0.1698 -0.3232 -0.3496
25532W        W41149  16.750   3.181  15.344 -0.0326 -0.1259  0.2281
25533W        W41150  16.929   3.650   2.359 -0.2096 -0.1165 -0.1122
25534W        W41151  12.400  17.831  11.998  0.0109  0.3099  0.3675
25535W        W41152   0.925   2.345  11.996 -0.3983  0.0078 -0.0975
25536W        W41153   8.175   6.158   3.271  0.3286  0.2233 -0.0950
25537W        W41154   8.362  15.241  11.502 -0.0721 -0.0736  0.0700
25538W        W41155  12.898   2.447  11.003  0.2721 -0.1837  0.2204
25539W        W41156   8.309   4.045  11.559  0.0226 -0.1764 -0.3875
25540W        W41157  13.162   3.435  14.620  0.1211 -0.1928 -0.4912
25541W        W41158  11.058  12.590   2.011 -0.2160  0.2131 -0.0351
25542W        W41159  13.783  15.937  15.588 -0.0181  0.1500 -0.2020
25543W        W41160  13.245   1.184   0.709 -0.1209 -0.1371 -0.1662
25544W        W41161  15.224  14.028  15.558  0.2577 -0.1682 -0.0762
25545W        W41162  11.124  11.029   4.203 -0.1025  0.1168 -0.0777
25546W        W41163  10.103  15.467   0.009 -0.3790 -0.2927 -0.1256
25547W        W41164  11.519   6.985   4.732  0.1395 -0.1055  0.1592
25548W        W41165   8.591  13.945   4.953 -0.0737 -0.0299 -0.2629
25549W        W41166   2.737   2.078   1.035 -0.4056  0.0508  0.4222
25550W        W41167   0.174   1.296   5.107 -0.1775  0.4309 -0.1520
25551W        W41168  12.323   1.422   5.731  0.2751 -0.0860 -0.1670
25552W        W41169  14.651   9.807   0.101  0.1189 -0.1831 -0.0215
25553W        W41170  13.965   5.025  12.142 -0.2243 -0.0989  0.2460
25554W        W41171  14.713   2.437   2.309 -0.1482 -0.0050  0.1636
25555W        W41172   3.188  13.016  13.068  0.0330 -0.0849  0.0558
25556W        W41173   0.033   6.013  12.293  0.2679 -0.1416 -0.0642
25557W        W41174  10.975   2.820  14.616  0.0619  0.2192  0.0205
25558W        W41175   9.565   3.367   3.270 -0.1192 -0.0552 -0.2809
25559W        W41176   6.998   9.225   3.502  0.1014 -0.3081 -0.2869
25560W        W41177   8.235  14.028   0.341  0.0055  0.0406  0.1001
25561W        W41178   3.499  10.789  14.810  0.2400  0.0917  0.0073
25562W        W41179   8.591  15.685   4.549  0.0272 -0.0039  0.2738
25563W        W41180   7.695   6.418  14.452 -0.0575 -0.2979  0.1359
25564W        W41181  12.501  16.216   3.495 -0.1803 -0.6399  0.3705
25565W        W41182  12.381   1.055  12.776  0.0426  0.2212 -0.2969
25566W        W41183   3.565   5.812  15.027 -0.1325 -0.1883 -0.0784
25567W        W41184  15.769   5.829   0.013 -0.1165  0.1754 -0.0519
25568W        W41185   3.432   8.532   3.053  0.3214  0.1549  0.0870
25569W        W41186   8.637  14.203   4.533 -0.1870  0.3006 -0.0476
25570W        W41187   2.903   9.714  11.307 -0.1325 -0.1147 -0.1808
25571W        W41188  18.345   7.956  11.867  0.1923  0.1289 -0.0168
25572W        W41189  18.030   3.840   4.102 -0.0838 -0.0038  0.0689
25573W        W41190   6.652   6.721   2.656 -0.0797  0.0589  0.1468
25574W        W41191  17.360   4.575   4.474  0.1361  0.1665 -0.2787
25575W        W41192  13.523  17.721   2.658 -0.0265 -0.1013 -0.2631
25576W        W41193  17.457   7.090  11.054 -0.1099 -0.0191 -0.0620
25577W        W41194   9.399  12.420  14.798  0.1150 -0.2648 -0.2643
25578W        W41195  11.638   5.765  10.771  0.1037  0.1733 -0.0283
25579W        W41196   8.950   0.162  12.705  0.1928 -0.1071  0.1389
25580W        W41197  16.765  12.860  15.137  0.2135 -0.0289 -0.0437
25581W        W41198   2.966  10.724   1.123 -0.2789 -0.2267 -0.1654
25582W        W41199  17.556   1.418   3.078  0.0551 -0.1342  0.0309
25583W        W41200   3.353  18.309  13.445  0.0853 -0.1366 -0.0015
25584W        W41201  17.750  15.673   1.142  0.1366 -0.0060  0.2562
25585W        W41202   9.579  17.208   1.067 -0.1715  0.1188  0.0922
25586W        W41203   3.053   5.971   4.212  0.1407  0.2673 -0.2204
25587W        W41204  16.058  18.115  14.307  0.2321  0.0533 -0.1053
25588W        W41205  16.945  18.010   2.133 -0.2119 -0.0067 -0.2253
25589W        W41206  10.669  12.285  11.075 -0.0662 -0.2350 -0.0162
25590W        W41207   3.684   5.402  13.697  0.0565 -0.0061 -0.2325
25591W        W41208   3.955  17.976   3.290 -0.1331  0.1970  0.0873
25592W        W41209  13.077   2.410   3.199 -0.2777 -0.1291 -0.2766
25593W        W41210   0.766  15.707  11.509  0.3075  0.2689 -0.0828
25594W        W41211   7.287   4.289  15.235 -0.0545 -0.3394  0.0950
25595W        W41212  11.469   6.121   0.893 -0.2679 -0.1445  0.0828
25596W        W41213  12.267   2.406   4.296 -0.1487 -0.2041 -0.1599
25597W        W41214  15.681   9.179  12.438  0.1493 -0.1825  0.0500
25598W        W41215  13.479  17.830  14.039 -0.0773  0.2908 -0.1149
25599W        W41216  10.290  10.117   0.017 -0.1075  0.2968 -0.0608
25600W        W41217   1.465  17.359  14.972 -0.3252  0.1588  0.0262
25601W        W41218   3.164   1.191   5.792  0.3215 -0.0277  0.1371
25602W        W41219   0.009  17.326   0.410 -0.2860 -0.0417 -0.3266
25603W        W41220  15.094  12.398   3.582  0.2692  0.1379  0.2134
25604W        W41221   8.381   0.050   0.438 -0.0244 -0.1562  0.2734
25605W        W41222  14.300  16.149   2.123  0.1914  0.0321  0.1409
25606W        W41223  10.930  16.354   4.233 -0.0276  0.1175  0.0863
25607W        W41224   7.845   0.555  15.887  0.1510  0.1944 -0.1204
25608W        W41225   2.221  17.105  13.812  0.0283 -0.4441 -0.0458
25609W        W41226  13.925  16.912   2.822  0.0698  0.1625  0.1450
25610W        W41227   0.276  10.300   0.026 -0.0614  0.1483  0.0946
25611W        W41228   4.560   7.841   3.852  0.1572  0.1608 -0.1731
25612W        W41229   4.459  14.330   5.458 -0.0076  0.0242  0.0791
25613W        W41230   4.814  11.650   2.047  0.0210 -0.0931 -0.1979
25614W        W41231   5.824   5.142  14.815 -0.1250  0.0897  0.1628
25615W        W41232  16.384  14.658  13.061  0.0701  0.2228  0.1332
25616W        W41233   3.881   3.899   0.311  0.2009 -0.1121  0.0808
25617W        W41234  10.602   4.032  15.417 -0.0865 -0.0265 -0.0975
25618W        W41235   9.308   4.368  13.087 -0.1562 -0.0699  0.0178
25619W        W41236  11.250   3.601   2.086 -0.0151  0.0644 -0.0038
25620W        W41237   4.450  13.691   5.307  0.0348 -0.0618  0.2060
25621W        W41238   0.067   0.200   3.637  0.0145 -0.3598 -0.0796
25622W        W41239  10.984  17.992  15.951  0.0522 -0.0450 -0.1362
25623W        W41240   4.518   1.723   4.826  0.1780  0.0898  0.1287
25624W        W41241   9.933  14.181  12.064 -0.0481  0.0160 -0.0338
25625W        W41242  13.841   1.080   1.025 -0.0936  0.0419 -0.2113
25626W        W41243   6.787  17.014  14.063  0.2772 -0.0731  0.0912
25627W        W41244   6.322   5.312   1.566  0.0398  0.0864 -0.0101
25628W        W41245  17.158  11.314  15.384  0.1476  0.1358 -0.0224
25629W        W41246  10.531   9.253   0.236  0.1732  0.0663 -0.3066
25630W        W41247  12.834   1.408  12.345  0.2307  0.3534  0.3314
25631W        W41248  18.428   6.957   3.249  0.3190 -0.1914  0.0949
25632W        W41249  10.866   5.928   1.349 -0.1271  0.1714 -0.3761
25633W        W41250   8.936   7.112  12.506 -0.2047  0.0044 -0.0047
25634W        W41251  18.374   2.964  11.626 -0.3057 -0.0763 -0.1196
25635W        W41252  13.000   2.574  12.962  0.2540 -0.2716 -0.3004
25636W        W41253   4.908  16.744   3.009 -0.0276  0.1264  0.1028
25637W        W41254  14.160  17.085   3.203 -0.0270  0.2803 -0.0077
25638W        W41255  13.208   0.311   5.563  0.2515  0.1598  0.1625
25639W        W41256  16.044   2.784  11.865 -0.1544 -0.0655 -0.0878
25640W        W41257   0.917   4.459  10.106 -0.0138 -0.0505  0.3858
25641W        W41258   1.869   3.127  11.464  0.0126 -0.0183 -0.0499
25642W        W41259   1.093  14.401  12.550 -0.3346 -0.3580  0.1378
25643W        W41260  18.155   7.572  12.149 -0.3000 -0.1485 -0.1626
25644W        W41261   5.216   0.124  14.876  0.3365 -0.1700 -0.2148
25645W        W41262  16.818   4.524   1.861 -0.1158 -0.0473  0.2816
25646W        W41263  12.095   9.951  14.721  0.2824 -0.0415  0.2136
25647W        W41264  16.432   3.801  15.749 -0.0825  0.3988  0.2140
25648W        W41265  17.741   6.835   1.544  0.3355 -0.0430 -0.1249
25649W        W41266  15.056  14.327  11.123  0.1967  0.2679  0.2000
25650W        W41267  10.896  13.496  14.545 -0.0310  0.3063 -0.1597
25651W        W41268  11.716   4.477  13.145 -0.1789  0.0372  0.0080
25652W        W41269   8.989   2.543   4.610 -0.0020 -0.1694  0.1670
25653W        W41270  16.642  17.194   1.628  0.3101  0.0029  0.1179
25654W        W41271   8.424   7.192  12.590 -0.1717  0.4440 -0.0361
25655W        W41272   2.511   4.480   3.414 -0.0592  0.1435 -0.1748
25656W        W41273  11.615  14.099  14.895  0.1674  0.1444 -0.0562
25657W        W41274  10.919  17.959  12.390 -0.0958 -0.4594 -0.0202
25658W        W41275  16.952  18.365  11.670  0.1198  0.1634  0.3555
25659W        W41276   4.700   8.581   0.495 -0.1473 -0.1262  0.2399
25660W        W41277   4.622   8.794   5.282  0.0942 -0.0154  0.0006
25661W        W41278   2.909   0.722   0.770  0.0264  0.0294 -0.1698
25662W        W41279  10.557  10.282   0.405  0.0381 -0.0026 -0.3374
25663W        W41280  16.543   7.798   0.979 -0.1895 -0.1528  0.0887
25664W        W41281   1.349  16.185  12.888  0.2402  0.0124  0.0261
25665W        W41282  17.921   2.397  13.758  0.3521 -0.0689 -0.0439
25666W        W41283  11.970   2.587  13.680  0.0113 -0.0206  0.1236
25667W        W41284   8.077  10.454   1.676 -0.1104 -0.1743  0.1144
25668W        W41285   9.376   1.107   0.168  0.0234  0.3313  0.5922
25669W        W41286   2.171   6.728  12.449 -0.0481 -0.0342 -0.1108
25670W        W41287  14.726   5.805   2.227  0.0476 -0.1518  0.0748
25671W        W41288  16.496   5.650  15.568  0.1918  0.2090  0.0936
25672W        W41289   4.332   4.652  11.293 -0.1592  0.0469 -0.2325
25673W        W41290   4.263  12.312   1.452  0.0459 -0.3657  0.0834
25674W        W41291  15.492  13.817   3.286 -0.2318  0.0315 -0.1565
25675W        W41292   9.369  13.535   4.423  0.1335  0.0511 -0.2922
25676W        W41293  13.027  10.788  12.545  0.2855  0.0695  0.0906
25677W        W41294  15.011  10.640   3.068  0.1545 -0.1774 -0.2284
25678W        W41295   2.252   4.476  15.768  0.3582  0.0298 -0.0433
25679W        W41296  13.081  18.059   2.802  0.1653  0.0866  0.0945
25680W        W41297   7.614   2.809   3.150  0.0780  0.0583 -0.2461
25681W        W41298  16.002   7.328  10.924 -0.1143  0.1249 -0.0564
25682W        W41299   1.057   4.503   5.107 -0.2864  0.2559 -0.2654
25683W        W41300  14.260   1.786   3.785  0.0811 -0.0533 -0.1116
25684W        W41301  17.802  16.526   4.832  0.0102  0.2279  0.3487
25685W        W41302  14.873  10.098  13.086  0.2705 -0.1235 -0.1850
25686W        W41303   4.369  10.964   0.705  0.5717 -0.2595  0.2369
25687W        W41304   6.246  10.269  13.026 -0.0766  0.1058 -0.1812
25688W        W41305  16.295   1.716   5.363 -0.3107 -0.0443 -0.2510
25689W        W41306  15.325  17.261  15.025 -0.0822  0.0255 -0.0535
25690W        W41307  18.290   2.980  13.130 -0.0101  0.3021 -0.0484
25691W        W41308   4.755   5.324   1.976  0.0786  0.1236  0.1703
25692W        W41309  15.026  17.264   2.810  0.0602  0.1873 -0.0818
25693W        W41310  11.640   9.974   2.023  0.1313  0.2473  0.1071
25694W        W41311   4.462   1.188  14.133  0.2651 -0.0118  0.2155
25695W        W41312   4.478  12.863   0.291 -0.0555  0.1926 -0.1462
25696W        W41313   9.148   9.970  11.310 -0.2550  0.1632 -0.0979
25697W        W41314  16.599  16.281   3.851  0.1063  0.1282 -0.1360
25698W        W41315   2.679   7.713  15.369 -0.2627 -0.0891 -0.0217
25699W        W41316   3.130  16.225   6.144  0.0100 -0.0265 -0.2287
25700W        W41317   5.584   2.432   2.204 -0.1411 -0.2868  0.1735
25701W        W41318   6.437  10.717  14.304  0.0826 -0.0186  0.0043
25702W        W41319   5.258   6.810  12.935 -0.3634  0.2393  0.0986
25703W        W41320   6.284  16.238   4.457 -0.0944  0.2757 -0.0138
25704W        W41321  18.235   6.557  14.711  0.2920 -0.0400  0.1029
25705W        W41322   2.084  11.063   6.406  0.2271 -0.1798 -0.1152
25706W        W41323   3.927   3.088  11.549  0.2786  0.1277 -0.1096
25707W        W41324  12.395  14.702   3.611  0.0814  0.0377 -0.2093
25708W        W41325  15.628   9.539  10.817 -0.0499  0.0423  0.1561
25709W        W41326   0.658  15.403  13.612  0.1227 -0.1505  0.0140
25710W        W41327   7.756  18.363  11.605 -0.1563  0.0280  0.0367
25711W        W41328   8.181  12.000  10.777 -0.0025  0.2076 -0.0879
25712W        W41329   2.315   0.255  14.396  0.0968  0.0946  0.1466
25713W        W41330  12.024   5.878  12.105 -0.1289 -0.1518  0.3857
25714W        W41331   9.157  14.522  14.376  0.1022 -0.0294  0.2250
25715W        W41332   5.311   5.172  14.013 -0.0010  0.0005 -0.1129
25716W        W41333  11.260  16.834   0.297 -0.0629  0.2410 -0.2867
25717W        W41334  12.121   5.426  14.649 -0.0135  0.1390 -0.1994
25718W        W41335   0.087   5.760   0.877 -0.1367 -0.2579  0.3538
25719W        W41336   7.624   5.261  15.144 -0.0722 -0.0417 -0.2768
25720W        W41337  14.051  14.455  10.644  0.0770  0.0112 -0.1802
25721W        W41338   6.150   3.827  13.128  0.1339  0.0067 -0.0779
25722W        W41339   2.766   1.975  14.347  0.2243  0.0753  0.1231
25723W        W41340   5.736   7.308  11.783  0.2161  0.3546  0.0796
25724W        W41341   2.201   4.670   4.213 -0.0578 -0.1053 -0.1333
25725W        W41342  12.710   3.198   4.641  0.3643 -0.2378 -0.2301
25726W        W41343  14.157  17.875  11.295  0.3145 -0.0731 -0.4828
25727W        W41344  11.026   0.354  15.155  0.1552 -0.0328 -0.1131
25728W        W41345  15.732  12.175  13.260 -0.1542 -0.1581 -0.0221
25729W        W41346   8.130  15.953  12.088  0.2627 -0.2502  0.3592
25730W        W41347   1.748  16.179  11.502  0.0933 -0.0844  0.0817
25731W        W41348  18.039  14.790  16.083 -0.3358  0.2422 -0.2895
25732W        W41349  10.700  16.065  12.686  0.2199  0.1457 -0.1938
25733W        W41350   8.409   5.710   1.089  0.1378 -0.0378 -0.3238
25734W        W41351   7.341  12.956   3.679  0.0229 -0.1399  0.0547
25735W        W41352  12.502  16.517   4.952  0.1996 -0.2909 -0.1805
25736W        W41353  17.674  11.713  15.170  0.0096 -0.5813 -0.3943
25737W        W41354  16.296  16.582  15.160 -0.2070  0.0426  0.0594
25738W        W41355  17.834   9.725  13.035 -0.0541 -0.2569  0.2472
25739W        W41356   8.356   1.939   2.662 -0.0556  0.0282 -0.1769
25740W        W41357   7.724   1.246  11.166  0.2445  0.4018  0.1222
25741W        W41358  12.714  13.508   1.726 -0.2140  0.0885  0.0556
25742W        W41359   6.888  17.578   0.826  0.0915  0.1166  0.1253
25743W        W41360   1.371  10.755  11.737  0.3070  0.1460 -0.0911
25744W        W41361  12.783  13.100   3.516  0.0869 -0.3036 -0.2902
25745W        W41362   8.595   2.054  10.751 -0.0215  0.1297  0.3842
25746W        W41363   2.925   4.065   2.291 -0.2033  0.1467  0.0730
25747W        W41364  17.531   3.936   1.940 -0.0288 -0.0043 -0.5067
25748W        W41365   4.821   9.775   2.065  0.0186 -0.2270  0.2042
25749W        W41366   9.495   6.482   2.446  0.0724  0.3054  0.3288
25750W        W41367   6.882   0.241   5.359  0.2237  0.0872 -0.5139
25751W        W41368   2.819  10.430   6.130  0.0174  0.4866  0.1404
25752W        W41369  13.939  10.077   5.073 -0.0209  0.1031  0.0214
25753W        W41370  13.273  16.359   0.537 -0.0713 -0.0776 -0.0734
25754W        W41371  11.462  10.317  12.684 -0.2914  0.3509 -0.1584
25755W        W41372  13.716  18.043   0.165  0.0496 -0.3054  0.0297
25756W        W41373  10.022  11.359   4.832  0.2863 -0.0304  0.3820
25757W        W41374  13.823  12.211  11.261  0.1495 -0.1449  0.0510
25758W        W41375  14.726   5.117  15.985  0.0152 -0.0013 -0.1342
25759W        W41376  12.999  10.058  14.336  0.1270 -0.1559  0.1560
25760W        W41377   7.120   6.574   4.880 -0.2072 -0.0615 -0.0166
25761W        W41378  15.086  15.046   2.909  0.0095 -0.1132  0.1783
25762W        W41379   2.366  15.295   0.791 -0.1899  0.3146  0.0378
25763W        W41380   5.369  16.380  14.186 -0.1506 -0.0794  0.1323
25764W        W41381  11.309  16.576   3.771  0.2265 -0.2472  0.0026
25765W        W41382  16.381   4.326   3.891 -0.1331 -0.2871 -0.0055
25766W        W41383   3.914   6.671  13.138 -0.2090 -0.0091 -0.0008
25767W        W41384   0.869  14.753   5.850 -0.0138  0.1517 -0.0842
25768W        W41385  16.180   8.111  14.315 -0.1035  0.0793 -0.2148
25769W        W41386  14.828   7.022   4.416 -0.3101 -0.1934  0.1079
25770W        W41387   9.817   6.740  15.073  0.1557  0.3809  0.0405
25771W        W41388   6.284  16.165   3.752 -0.0563  0.3312 -0.2265
25772W        W41389  16.007  10.739  13.136  0.2803 -0.1536 -0.0354
25773W        W41390   4.787   8.209  12.051 -0.0153 -0.2312 -0.0442
25774W        W41391  12.842   5.793   1.057 -0.0287 -0.1244 -0.0726
25775W        W41392  12.222   8.626   2.703 -0.2375  0.2102  0.2596
25776W        W41393  12.024  15.796  11.719  0.1868 -0.0397  0.2308
25777W        W41394  17.602  18.230  14.886  0.0994  0.0764 -0.3037
25778W        W41395   7.732  11.553  16.068  0.0272 -0.0185  0.0332
25779W        W41396   3.072   2.975   2.448  0.0859  0.0713  0.0373
25780W        W41397   2.768  11.494  11.215  0.0101  0.1466 -0.1136
25781W        W41398   8.329   3.719  14.575  0.2662 -0.0937 -0.0747
25782W        W41399  14.022   3.849  11.802  0.0754  0.3522 -0.0495
25783W        W41400   0.642  12.890  15.886  0.1687  0.0167  0.2087
25784W        W41401   2.833  14.204   2.647 -0.1610 -0.1534 -0.1634
25785W        W41402   7.150   1.240   1.702 -0.1978  0.0041  0.1376
25786W        W41403  12.607  12.969  12.939 -0.0910  0.0382 -0.0386
25787W        W41404  11.055   4.184   3.599 -0.1129 -0.2614  0.1241
25788W        W41405  10.521   5.096  12.961 -0.2390  0.2112  0.0764
25789W        W41406   0.278   2.208   1.086  0.0470  0.2631  0.0132
25790W        W41407  12.048   3.988  12.394 -0.2500 -0.2118  0.2916
25791W        W41408   2.069   4.141   4.142  0.2380 -0.1295 -0.1753
25792W        W41409  10.808   3.243  13.293 -0.4052  0.4366  0.4043
25793W        W41410   8.664  14.268   2.525 -0.1999  0.0445 -0.3078
25794W        W41411   4.633  11.642   2.911  0.2585  0.5050 -0.3451
25795W        W41412  10.294   2.015   3.872  0.1830 -0.0628 -0.1922
25796W        W41413  15.121   1.299   3.736 -0.2694 -0.2030 -0.4295
25797W        W41414  14.266  11.689   3.026  0.0989  0.0716 -0.0679
25798W        W41415   6.049   6.612  16.029  0.2178  0.0704 -0.2162
25799W        W41416  10.244   8.556  10.983 -0.5829 -0.1874 -0.0733
25800W        W41417   5.144   1.464   4.357  0.2535 -0.3016  0.4844
25801W        W41418   0.870  16.456  12.312 -0.3074 -0.0792 -0.3325
25802W        W41419   3.245   8.859  14.270 -0.0748 -0.1274 -0.0598
25803W        W41420  12.631   8.514   5.203  0.4210  0.0550  0.0533
25804W        W41421   2.598  11.090  15.289  0.0712 -0.3571 -0.1482
25805W        W41422  18.046   8.561  12.771 -0.1303 -0.1015  0.2994
25806W        W41423  12.488   2.210  15.194  0.1674  0.0764 -0.0199
25807W        W41424   6.714   6.893   4.939 -0.2089  0.1372 -0.1690
25808W        W41425   8.340   7.921  11.122 -0.4936 -0.1552  0.2962
25809W        W41426   3.430  14.387   4.594  0.5425  0.4397  0.1638
25810W        W41427  13.619  17.907  14.944  0.1205 -0.2730 -0.0104
25811W        W41428   0.756   2.824  12.794  0.0288  0.1917 -0.1428
25812W        W41429  13.592  16.745  11.326  0.2185 -0.1668  0.1418
25813W        W41430   1.116   7.233   2.144 -0.1127  0.4355 -0.0940
25814W        W41431   2.680  17.719   4.718  0.0437  0.4502 -0.0217
25815W        W41432   3.345   1.806   1.571 -0.2644 -0.1737 -0.1404
25816W        W41433   9.353  11.823   4.289  0.1120  0.3075 -0.2628
25817W        W41434  14.352  14.997  12.617 -0.3613 -0.0586  0.1290
25818W        W41435   1.035  18.224   2.784  0.3116  0.0144 -0.2557
25819W        W41436   2.566   0.511   3.834  0.1142  0.1181 -0.1232
25820W        W41437   9.886   1.831  13.056  0.0962 -0.0918  0.1392
25821W        W41438  17.129   7.180  12.993  0.5139 -0.0118  0.0401
25822W        W41439   4.426  14.655   6.173  0.3016  0.3604 -0.1165
25823W        W41440   3.546   1.318   4.329  0.0747 -0.1530  0.1213
25824W        W41441   9.035  10.999  14.468 -0.2271 -0.2135  0.1613
25825W        W41442  11.104   4.516  10.810  0.0926 -0.0118  0.1058
25826W        W41443   3.671  16.499   4.701  0.2073 -0.3845  0.0088
25827W        W41444  13.026   8.808   2.459 -0.0613 -0.1805 -0.0609
25828W        W41445  13.482   8.839  13.488 -0.0139  0.1987 -0.3066
25829W        W41446   4.014   3.272  11.990 -0.0019 -0.0711  0.2635
25830W        W41447  10.317  14.906   2.411 -0.2226 -0.2451  0.1787
25831W        W41448   1.061  14.060   0.845 -0.2074  0.0339 -0.0720
25832W        W41449   3.714  17.831   0.940  0.1613 -0.1608  0.0590
25833W        W41450  13.592   2.258   0.340 -0.1813  0.3831 -0.4950
25834W        W41451   7.897   0.130   0.766 -0.1844 -0.5030 -0.0398
25835W        W41452  15.730   5.924  15.605  0.1570  0.4210  0.1922
25836W        W41453  15.196  13.835   4.718 -0.1847  0.0481 -0.3585
25837W        W41454  18.258  13.628  15.566 -0.4148 -0.1523  0.0712
25838W        W41455   5.622  17.927   1.475  0.0876  0.2912  0.1134
25839W        W41456  18.041   4.823  12.358 -0.3731  0.1360  0.0144
25840W        W41457  13.241  13.610  14.783  0.1591 -0.1133  0.1840
25841W        W41458   4.986  15.673   6.659 -0.0015 -0.1346  0.0691
25842W        W41459  10.146  17.376  13.290 -0.0993 -0.0561 -0.2784
25843W        W41460   3.679  10.513  11.797 -0.0516 -0.2425  0.3129
25844W        W41461  16.248  15.670  15.029  0.0814  0.1649  0.3356
25845W        W41462   2.700   1.521   6.170 -0.1207 -0.4503  0.2078
25846W        W41463  11.945  16.969  12.506  0.0548 -0.0411 -0.0302
25847W        W41464   5.728   5.823   3.250 -0.0498  0.1303  0.0427
25848W        W41465  14.238  17.430  11.518  0.1284  0.2169  0.0060
25849W        W41466   9.814  14.108   1.296 -0.0413  0.2512 -0.1095
25850W        W41467   5.794   5.406   5.197 -0.0052 -0.0171 -0.1896
25851W        W41468  15.395   5.645   3.597  0.0719 -0.0951 -0.0157
25852W        W41469  18.348  12.173   4.101  0.1772 -0.1205 -0.1623
25853W        W41470  17.546   4.408  12.276  0.2787 -0.1317 -0.0830
25854W        W41471  18.320   8.547   1.800 -0.1800 -0.2539  0.1086
25855W        W41472   3.953   1.596   4.240 -0.0419 -0.2139 -0.1210
25856W        W41473   9.990  10.860   1.631 -0.0442  0.0183 -0.1718
25857W        W41474   7.898   6.563   0.018 -0.0932 -0.0984 -0.3154
25858W        W41475  11.851   6.746   0.111  0.0132 -0.0203 -0.0181
25859W        W41476   5.577   1.036   2.562 -0.1492 -0.1352 -0.0565
25860W        W41477  17.366   2.162   2.565 -0.0920 -0.0157 -0.1866
25861W        W41478   4.035  16.448  14.339 -0.0917  0.2506 -0.0777
25862W        W41479  16.975   1.632  10.836 -0.0775  0.1183  0.2791
25863W        W41480  17.332   5.702  11.913  0.2067  0.1369  0.2919
25864W        W41481  11.093   8.168   3.212  0.0696  0.0508  0.1857
25865W        W41482   9.116  10.829  12.175 -0.1345  0.0713 -0.2991
25866W        W41483  16.173  10.754  13.623  0.0335  0.0365  0.3557
25867W        W41484  11.238   0.515   3.158  0.0741  0.0919  0.4483
25868W        W41485  10.302   9.507   2.772 -0.1012  0.2890  0.3005
25869W        W41486   3.613  17.940   4.713 -0.1548 -0.1265 -0.2523
25870W        W41487  12.619   3.071  13.103  0.0273 -0.0154  0.1559
25871W        W41488   8.647   5.112   0.048 -0.0163  0.1461 -0.2573
25872W        W41489  12.295   7.387  13.349  0.0055  0.1032  0.5077
25873W        W41490   5.544   1.865  14.732  0.0184 -0.0253  0.0112
25874W        W41491  17.750  16.929   1.457 -0.0221  0.1627  0.3176
25875W        W41492   1.960   4.767  12.991  0.1848 -0.2481  0.2960
25876W        W41493   4.202   4.613   0.194 -0.4150  0.3900  0.2415
25877W        W41494  14.909   6.647   2.833  0.3279  0.0398  0.1305
25878W        W41495  11.036   9.807  15.765  0.0828  0.1448 -0.0675
25879W        W41496  17.446   6.560   2.447  0.0125 -0.0136  0.2158
25880W        W41497   9.427   1.479   0.929 -0.2827 -0.0919 -0.0019
25881W        W41498   2.606  16.739  14.725 -0.2317  0.0827  0.1662
25882W        W41499  13.487  11.075   5.171  0.3953 -0.2784  0.1390
25883W        W41500   9.411  14.093   5.511 -0.0094  0.1108 -0.1565
25884W        W41501  16.872   1.127   4.592 -0.0435 -0.1045 -0.1235
25885W        W41502   2.945  10.118  14.123  0.0928 -0.2195  0.0072
25886W        W41503   7.712  11.272   1.460 -0.1409 -0.1131  0.1537
25887W        W41504   5.733  15.998  14.106 -0.0961  0.0760 -0.3224
25888W        W41505   9.727   0.926   2.459  0.1276  0.3209  0.1580
25889W        W41506   5.271   8.571   3.934  0.1918 -0.1777  0.1515
25890W        W41507  13.756  14.785  14.371 -0.1840  0.1277  0.2133
25891W        W41508  13.068  11.022   2.389  0.0674  0.3607  0.4325
25892W        W41509  14.993  16.937  14.779  0.1649 -0.2577 -0.1301
25893W        W41510   6.458   0.146   0.863 -0.0730  0.2694  0.0540
25894W        W41511   8.202   6.600   0.494 -0.0163  0.1971 -0.2473
25895W        W41512  10.365   0.856  14.800  0.3592  0.0456  0.1775
25896W        W41513  17.559  13.993   3.544 -0.1694  0.1316 -0.1155
25897W        W41514   5.237  12.825   2.823  0.1392  0.1825  0.0633
25898W        W41515  10.771  13.895  14.277  0.2260  0.1488  0.0057
25899W        W41516   6.893   1.465  15.996  0.1433  0.1408  0.3321
25900W        W41517   4.836  12.631  12.664  0.1567  0.3638 -0.1807
25901W        W41518   5.411   4.517  15.049 -0.2463  0.0141  0.4856
25902W        W41519  14.334   4.413   4.199 -0.1728 -0.0465 -0.0619
25903W        W41520   0.908  12.908   2.453  0.0494  0.0349  0.1550
25904W        W41521  15.993   6.842   2.822 -0.0793  0.2304  0.3007
25905W        W41522   0.493  15.413  14.140  0.2174 -0.2414  0.0842
25906W        W41523  10.758  13.865   5.528  0.1353  0.1542  0.0993
25907W        W41524  10.098   3.290   2.867 -0.0117  0.0867  0.2723
25908W        W41525  11.000   7.181   4.911 -0.0165  0.3080 -0.0178
25909W        W41526  14.427  16.387  14.437  0.3122 -0.1183 -0.2565
25910W        W41527   9.498   1.699  15.319  0.0031  0.0655 -0.1405
25911W        W41528   3.180   3.464  12.174 -0.1828 -0.6631 -0.1491
25912W        W41529   8.749   5.538   0.389 -0.1857  0.0054  0.1363
25913W        W41530  13.902   4.451  15.131  0.1600 -0.1983  0.2004
25914W        W41531  13.170   2.500   0.702 -0.0574  0.2978  0.0146
25915W        W41532   5.866   7.250   0.806  0.1007 -0.0269 -0.1083
25916W        W41533  13.218   4.792   1.667 -0.1082 -0.3065 -0.1422
25917W        W41534  17.689   6.767   3.049  0.0882  0.2187 -0.1201
25918W        W41535  12.332  14.281  15.713  0.0594 -0.2784  0.2656
25919W        W41536   6.226  16.311   3.190 -0.1811  0.1018 -0.2737
25920W        W41537   1.638   4.273   4.991  0.0620  0.2063  0.2511
25921W        W41538   5.219   0.816   4.934  0.2378 -0.0843 -0.4747
25922W        W41539  16.140   6.584  11.402 -0.3505 -0.1885  0.4635
25923W        W41540  12.945   7.053   2.230  0.1244 -0.0139  0.0419
25924W        W41541  14.729  11.057   2.071 -0.1015 -0.4358  0.0611
25925W        W41542  10.938   6.082  14.772  0.0813  0.1789 -0.4605
25926W        W41543   6.867  14.857   3.499 -0.1108 -0.2855  0.3511
25927W        W41544   3.828   7.932   2.015  0.0234 -0.0252 -0.0107
25928W        W41545  13.943  18.345  13.448  0.0053  0.1049 -0.2336
25929W        W41546   1.864   5.242   0.077  0.4587  0.0840 -0.0937
25930W        W41547  17.215   1.127   2.845 -0.1600  0.0045  0.0291
25931W        W41548   8.994   2.785   4.118 -0.0434  0.1044 -0.0010
25932W        W41549  10.657   2.902   1.265 -0.3996 -0.0777  0.0169
25933W        W41550  17.821   7.709   3.443 -0.0752  0.0570  0.3232
25934W        W41551   5.134  13.941   1.002  0.1868  0.1205  0.1509
25935W        W41552  16.002  17.570   1.085 -0.3601  0.0787  0.1495
25936W        W41553  11.275  12.719  12.341  0.0317  0.2052 -0.2489
25937W        W41554  12.286   4.824  11.345  0.1775  0.1055  0.0759
25938W        W41555   5.071  16.315  11.502  0.1612  0.0037  0.1533
25939W        W41556   8.062  11.632   2.292  0.0040  0.0555  0.1231
25940W        W41557  13.995   8.979  13.326  0.2284  0.1482 -0.1253
25941W        W41558   6.399  17.903   4.361  0.3939  0.1239  0.2217
25942W        W41559   4.926   7.446   2.628 -0.3100  0.1145 -0.0636
25943W        W41560   6.718   8.784  11.330 -0.0171  0.1171  0.1096
25944W        W41561   9.439   9.672  14.400 -0.2738 -0.0890 -0.1635
25945W        W41562   7.089   0.072  10.980  0.1919 -0.0486 -0.0798
25946W        W41563  18.185   7.904  11.224  0.1505  0.2583 -0.1016
25947W        W41564   4.450   1.946  12.927 -0.1316  0.1504  0.0430
25948W        W41565   7.243  14.000   1.796  0.0806 -0.3685 -0.1158
25949W        W41566   9.772   3.546  12.188  0.1741  0.1802  0.2886
25950W        W41567  10.701   5.407   3.821  0.1119  0.1387  0.0699
25951W        W41568   1.072   6.195   5.489  0.1287 -0.2412 -0.2489
25952W        W41569  10.505  17.548   4.317  0.3274  0.1268  0.1176
25953W        W41570   5.543   6.931  11.989 -0.0971 -0.1121 -0.0854
25954W        W41571  11.217   5.845   4.635  0.2474 -0.2452 -0.0613
25955W        W41572  16.338  12.094   4.734 -0.0356 -0.2283 -0.2324
25956W        W41573   4.733   8.272  13.425  0.2267  0.2714 -0.2506
25957W        W41574   2.614  12.355   2.591  0.0896  0.0659 -0.0351
25958W        W41575  10.149   5.818   4.377  0.3063  0.1712  0.3297
25959W        W41576  13.614   8.098  13.472 -0.1482  0.2900  0.0575
25960W        W41577   3.631  15.920  14.986 -0.0891 -0.2781  0.0398
25961W        W41578   3.774  11.003  12.168  0.1615  0.0306  0.1541
25962W        W41579  15.487  15.589  14.294 -0.2274  0.0216  0.2473
25963W        W41580  14.519  15.185  15.356  0.0388  0.0416 -0.1480
25964W        W41581  15.701   4.208  15.225 -0.2549 -0.3948 -0.1066
25965W        W41582  12.885  13.091   5.085 -0.2140 -0.0830  0.1098
25966W        W41583  13.826  13.508  10.985  0.0612 -0.1075 -0.1120
25967W        W41584   5.946   3.954   0.069  0.0620 -0.1632 -0.0259
25968W        W41585   7.475   6.302   0.063 -0.1455 -0.0008  0.2184
25969W        W41586   1.533   8.429   2.411 -0.1592  0.0454 -0.2914
25970W        W41587  17.286  16.847  15.028 -0.1345  0.2142  0.1230
25971W        W41588   3.936   1.542  12.245  0.2689 -0.0062  0.3262
25972W        W41589  12.522   4.242   1.080 -0.2050  0.0691 -0.2031
25973W        W41590   1.400  12.587  13.636 -0.1360 -0.0354  0.1574
25974W        W41591   0.474   4.380   3.004 -0.3303  0.0643 -0.3258
25975W        W41592   5.149   7.612  13.875  0.5044 -0.0302  0.1448
25976W        W41593   2.338   5.597  13.762 -0.1191  0.3521  0.2093
25977W        W41594   5.786  13.251   0.125 -0.3760  0.0767 -0.1354
25978W        W41595   8.508  12.551   3.717  0.1471 -0.3266  0.0200
25979W        W41596  13.078   7.659   0.337  0.2989  0.1352 -0.2040
25980W        W41597   5.178  13.947   4.186 -0.1582  0.0867 -0.1058
25981W        W41598  14.656  17.564   2.626  0.1991 -0.0420  0.0810
25982W        W41599   7.758  10.758   4.357 -0.0913 -0.2166 -0.0289
25983W        W41600   1.857  10.786   3.538  0.0410  0.3632  0.1115
25984W        W41601  13.400  10.636  15.669 -0.0276  0.0233 -0.1065
25985W        W41602   1.991  13.779   2.996 -0.0444 -0.1494 -0.0845
25986W        W41603   5.656  10.579   2.939  0.1912 -0.0296 -0.0554
25987W        W41604   3.383   2.704  13.689  0.1254  0.1663 -0.1477
25988W        W41605  13.668   3.386  11.062 -0.1615 -0.1454 -0.1640
25989W        W41606   7.922   9.250   2.016 -0.1491 -0.3290 -0.0129
25990W        W41607  11.154   8.254   0.227  0.0937  0.1120 -0.0146
25991W        W41608   8.050  17.156  13.485 -0.0399 -0.1957  0.3262
25992W        W41609  13.123   6.304   2.990 -0.2167  0.3287  0.0989
25993W        W41610  10.432   5.828  14.838 -0.2372  0.0696 -0.0087
25994W        W41611   7.157  13.179  10.845  0.3466 -0.1833 -0.1539
25995W        W41612  13.885  11.692   1.052  0.2313  0.0463  0.1121
25996W        W41613   9.596   2.339  14.543  0.0201 -0.2516 -0.1523
25997W        W41614   2.723   6.154  13.860  0.0022 -0.1804  0.0648
25998W        W41615   3.391   9.091  15.954 -0.0921  0.0829  0.1997
25999W        W41616   4.493   7.176  15.205 -0.2483 -0.1732  0.3664
26000W        W41617   4.512   4.922   0.409 -0.0304 -0.0167 -0.0053
26001W        W41618   4.626   1.105  12.681  0.0703 -0.3938  0.0919
26002W        W41619  15.495  14.990   4.630 -0.0377  0.0235 -0.1768
26003W        W41620  14.136  10.423   1.755 -0.0490  0.0024 -0.0325
26004W        W41621  14.433  11.368   5.345  0.1360 -0.1627  0.1008
26005W        W41622  12.208   3.697  14.779 -0.0445  0.0816  0.0275
26006W        W41623   5.120   2.937  11.104  0.0810 -0.0211  0.3037
26007W        W41624   5.037   4.387   3.550  0.3369  0.2421  0.0874
26008W        W41625   9.385   5.780  11.919  0.1309 -0.1398 -0.1660
26009W        W41626   2.514   0.930   6.428  0.0079 -0.4259  0.1377
26010W        W41627   2.641   8.805   5.923 -0.0555  0.0939  0.0633
26011W        W41628   1.398   7.180   5.161 -0.0698 -0.1189 -0.1532
26012W        W41629   4.865   6.894  10.869  0.3324  0.2032 -0.2234
26013W        W41630  11.889   1.435   5.984 -0.0260 -0.0322  0.1976
26014W        W41631   6.988  16.548  13.254  0.0083 -0.3958  0.1729
26015W        W41632  13.009   9.957  11.039 -0.2080 -0.1848 -0.1318
26016W        W41633  15.642  17.298  15.595 -0.2882 -0.2205 -0.3028
26017W        W41634  17.457   9.984   3.736  0.3371  0.1300 -0.0646
26018W        W41635   5.466  15.459   2.001  0.0084  0.0532 -0.2240
26019W        W41636   0.733   9.367   2.848 -0.2364  0.1631 -0.2873
26020W        W41637   0.883   7.128  11.081  0.1147 -0.2353  0.2158
26021W        W41638  16.993  12.781   1.008  0.3017  0.3230  0.0311
26022W        W41639   3.635  13.667   1.783 -0.1885 -0.1198  0.0534
26023W        W41640   3.247   4.168   3.411 -0.0181  0.1549 -0.1369
26024W        W41641  17.883  10.657   2.174 -0.2467 -0.0465 -0.0209
26025W        W41642   7.151  12.469   1.811 -0.1891  0.1127  0.0764
26026W        W41643  10.448   9.493   1.950  0.0104  0.2360  0.0256
26027W        W41644  14.877  12.087  16.039 -0.0458  0.1220  0.0272
26028W        W41645   9.225  16.803  14.849 -0.2061  0.0343  0.0464
26029W        W41646   2.983  10.184  12.178 -0.0618  0.2184 -0.2068
26030W        W41647   2.515   1.888  12.705  0.0597  0.0356  0.2072
26031W        W41648   3.531  12.052   3.446  0.0467 -0.1295  0.3902
26032W        W41649   7.437  15.428  15.803  0.2889  0.1369  0.1506
26033W        W41650   3.094   0.765   5.241  0.1972 -0.2766 -0.2887
26034W        W41651   3.792  14.989  14.076  0.0770  0.0428  0.0127
26035W        W41652   6.106   4.815  14.382  0.0953  0.1229 -0.0048
26036W        W41653  16.548   6.858  12.882 -0.2744  0.0246 -0.1619
26037W        W41654   0.644   9.291  11.223 -0.3664 -0.1589  0.1937
26038W        W41655   5.320  14.145   5.251  0.0040 -0.2365 -0.1275
26039W        W41656   8.189   0.568   3.265 -0.3121 -0.0918 -0.2035
26040W        W41657   7.388   9.879  16.075 -0.0785  0.1714 -0.3666
26041W        W41658  11.875   2.107   2.590  0.0494  0.1226 -0.5278
26042W        W41659   9.054   8.378  11.619 -0.3312 -0.1365  0.1571
26043W        W41660  11.175   7.619   3.992 -0.1621  0.0553  0.2182
26044W        W41661  10.534  12.284   5.954  0.1527  0.1790  0.0497
26045W        W41662   6.095  10.240  13.499  0.1396  0.2070 -0.4278
26046W        W41663  14.645   4.181  16.123 -0.0763 -0.1499  0.0735
26047W        W41664  12.441  10.326  15.121  0.0679 -0.0631  0.1883
26048W        W41665  13.854   8.180   2.588 -0.0341 -0.0155 -0.0760
26049W        W41666  10.018   5.510   1.699 -0.4405  0.2715 -0.0251
26050W        W41667   1.812  12.152   4.313 -0.5390 -0.1622  0.0516
26051W        W41668  16.597   0.520  15.013  0.3650  0.1056  0.2340
26052W        W41669  16.840  14.245  13.118 -0.0299 -0.0639 -0.0871
26053W        W41670   3.405  10.671  14.110 -0.0869 -0.0663  0.1189
26054W        W41671   7.178  16.263  10.984  0.4271 -0.0469  0.2447
26055W        W41672   9.685  16.753   3.635  0.1944 -0.3308 -0.2222
26056W        W41673  17.524  12.650  13.711 -0.0851 -0.1045  0.1357
26057W        W41674  10.630   8.251   0.421 -0.2087 -0.1109 -0.2366
26058W        W41675   5.800  12.295   5.597  0.1045 -0.1948 -0.2892
26059W        W41676  18.253  12.043   4.605  0.0706 -0.2963  0.2029
26060W        W41677  11.698   2.427   5.142  0.3994  0.0745 -0.2938
26061W        W41678   4.023   8.137  14.567 -0.1831  0.1079  0.2681
26062W        W41679   5.979   7.763   1.555  0.1382  0.0286 -0.1485
26063W        W41680   1.874  15.192  15.812 -0.0761 -0.0800  0.1206
26064W        W41681  14.644  17.015   4.104  0.1086  0.1411  0.3559
26065W        W41682   2.603   4.921   3.732  0.3944  0.1785 -0.1153
26066W        W41683   9.644  18.355  13.860 -0.2064 -0.2126 -0.0284
26067W        W41684  16.602  10.244  15.977  0.5052  0.0547 -0.1055
26068W        W41685  15.081   7.577   4.743 -0.3267  0.3288 -0.4923
26069W        W41686  16.675  12.029   5.095  0.0307  0.0969 -0.2368
26070W        W41687   8.824  12.812  11.878  0.1251  0.4426 -0.1243
26071W        W41688   1.612   1.382   2.005  0.0370  0.0306 -0.1652
26072W        W41689   0.309   8.054   0.018 -0.0780 -0.1553 -0.1886
26073W        W41690   1.889  15.371  12.462 -0.1821  0.1065  0.0479
26074W        W41691  15.888  13.472   0.128  0.0998 -0.0495  0.1393
26075W        W41692   7.795   6.350   2.458 -0.0808  0.2459  0.2209
26076W        W41693   4.652   2.269   1.644  0.2348  0.1829 -0.2857
26077W        W41694   9.712  12.526  15.778 -0.1797 -0.3417 -0.1593
26078W        W41695  13.242   2.851  15.224 -0.2473 -0.1028 -0.4310
26079W        W41696   1.236  16.855  12.542 -0.1066 -0.2032 -0.1574
26080W        W41697  16.669  15.095   4.230 -0.1618  0.0884  0.4309
26081W        W41698   2.864   0.840  14.881  0.4121  0.1657 -0.1136
26082W        W41699   6.985   1.458  14.538  0.0192 -0.0346  0.1606
26083W        W41700  11.286  13.070   1.044 -0.2597  0.2181 -0.0680
26084W        W41701   4.401  10.521  13.252  0.4972  0.0760  0.1506
26085W        W41702   4.925  11.128   0.448 -0.0173  0.2119 -0.4144
26086W        W41703  16.083   5.603   1.822  0.2139 -0.3513 -0.1391
26087W        W41704   2.183   3.241   5.281  0.1101  0.0721 -0.2157
26088W        W41705   1.731  16.495  14.263 -0.1312 -0.0668 -0.0764
26089W        W41706   3.609   8.184   4.303  0.0270  0.1017  0.1636
26090W        W41707  13.975   0.630   2.750 -0.0984 -0.0524 -0.0684
26091W        W41708   8.911  13.771   4.410 -0.1725  0.2666 -0.2892
26092W        W41709  11.352  17.496  13.911 -0.4283 -0.3056 -0.0670
26093W        W41710   4.380   6.474  14.225 -0.1025  0.1708 -0.3275
26094W        W41711  13.853  11.330  15.405 -0.1271 -0.1106 -0.1931
26095W        W41712   8.469  11.978  16.121  0.2366  0.2461  0.1075
26096W        W41713  12.216   1.673  13.600  0.2991 -0.3207  0.4143
26097W        W41714   1.368  11.096  14.688  0.0390  0.0259  0.0591
26098W        W41715  18.349  18.343   1.756  0.1824 -0.3583 -0.2993
26099W        W41716  13.151  10.531   0.166 -0.0177  0.3308  0.2136
26100W        W41717   5.330   5.714  13.104 -0.0394 -0.0039  0.1573
26101W        W41718   7.394   4.038   2.313 -0.0173  0.1445  0.1059
26102W        W41719   6.845   2.161   4.619  0.0082 -0.1452 -0.1011
26103W        W41720   4.512  15.385  12.993  0.0266  0.1271 -0.0956
26104W        W41721  17.122  10.732   1.110 -0.1630 -0.2402  0.1850
26105W        W41722   9.644  12.715  11.158 -0.0259 -0.3956 -0.0281
26106W        W41723   1.409   0.411  11.996 -0.1243  0.1423  0.0699
26107W        W41724  16.662   3.916  13.778  0.2184 -0.0318 -0.0538
26108W        W41725  17.604   0.849   0.574 -0.1343 -0.2257 -0.0790
26109W        W41726  12.296  11.641  15.896  0.0635  0.2806  0.2032
26110W        W41727   9.298   5.043  14.480 -0.1290  0.0633  0.0095
26111W        W41728  15.249  15.728  11.393 -0.1945 -0.0159 -0.0286
26112W        W41729  11.126   9.949   2.039  0.1410  0.0836  0.0121
26113W        W41730   4.686   1.366   4.428  0.0389 -0.1219  0.0400
26114W        W41731   6.534   1.680   5.527 -0.0239  0.0726 -0.2121
26115W        W41732   0.829  14.323  15.258 -0.1343 -0.3591 -0.3201
26116W        W41733   9.558  15.351   0.685 -0.0044 -0.0180 -0.2745
26117W        W41734   0.003  10.629  15.869 -0.2295 -0.0551 -0.3364
26118W        W41735  10.109  16.802  12.534 -0.0593  0.0466  0.2796
26119W        W41736   1.323  16.433   1.493  0.1296  0.0687 -0.0033
26120W        W41737  17.156  14.512  13.399  0.2775 -0.0230 -0.1961
26121W        W41738  12.330   7.415  11.121  0.0677  0.1981 -0.2434
26122W        W41739  13.891  14.576  13.276 -0.1866 -0.2835 -0.3300
26123W        W41740   2.732   3.155   0.527  0.1003  0.2113  0.0737
26124W        W41741   9.850  10.842  11.016  0.2892  0.1972 -0.2334
26125W        W41742   3.203   6.593   5.245 -0.1926  0.0305 -0.2409
26126W        W41743   6.388  15.683   6.046  0.1196 -0.0956  0.1540
26127W        W41744   4.256   0.923   5.372  0.0369  0.0004 -0.0857
26128W        W41745   9.737   5.222   1.966 -0.0302  0.0665  0.0477
26129W        W41746  13.498   7.943   0.305  0.1126  0.3308 -0.2344
26130W        W41747   3.377  15.448   1.208  0.3283  0.1705 -0.0984
26131W        W41748  16.146   1.585  14.991  0.0032 -0.1310  0.1324
26132W        W41749  14.814   7.655  11.529 -0.3128  0.0475 -0.0090
26133W        W41750  14.710  16.684  12.784 -0.1712 -0.3873  0.1384
26134W        W41751  15.734   9.008  11.007 -0.2744  0.2593 -0.2262
26135W        W41752   4.876   3.231  15.596  0.1603 -0.0128 -0.3018
26136W        W41753   8.519   4.995  14.085  0.0478 -0.0159  0.0546
26137W        W41754  16.181   4.157   0.177  0.4418  0.1225 -0.0713
26138W        W41755  18.231   5.473   5.467  0.0075 -0.0512  0.2878
26139W        W41756   4.374   7.224  15.687 -0.0565 -0.2773  0.5156
26140W        W41757  16.953   1.376   2.541 -0.0372 -0.0322  0.3465
26141W        W41758  13.556   9.437   2.632 -0.0331 -0.3557  0.4380
26142W        W41759   4.832   2.358  11.622 -0.0376  0.0096  0.0851
26143W        W41760  17.894  15.082   5.464  0.1486 -0.0625 -0.0718
26144W        W41761   5.972  12.797   5.056 -0.3472 -0.0747 -0.0910
26145W        W41762  10.056   7.467  11.082 -0.1748  0.1548  0.2732
26146W        W41763  12.171   4.003   4.670  0.2270  0.2049 -0.0560
26147W        W41764   5.593  18.154   0.635  0.0334  0.3255  0.0335
26148W        W41765  10.452  15.178   0.902 -0.1796  0.0968  0.0072
26149W        W41766   9.867   4.566  15.111 -0.2324 -0.2019 -0.1123
26150W        W41767  16.731   9.249  11.799 -0.0531  0.1890  0.2205
26151W        W41768  17.867   5.260  15.096  0.1077 -0.0838  0.1946
26152W        W41769  15.283   1.717  10.856 -0.0120  0.1805  0.0466
26153W        W41770   3.855  10.398   3.615  0.1036  0.3717  0.0498
26154W        W41771   7.609  15.219   2.905 -0.0020 -0.0555  0.1800
26155W        W41772   1.957   0.239   5.121  0.1349  0.1863  0.0109
26156W        W41773   4.914  18.413   4.625 -0.0700 -0.1663  0.0419
26157W        W41774   3.686   2.308   2.684 -0.1006 -0.0636 -0.1120
26158W        W41775   2.019  13.649   2.516  0.0422 -0.0802 -0.3954
26159W        W41776  16.443   7.094  10.723  0.1323 -0.0662  0.1498
26160W        W41777  14.985  16.569   2.755  0.0961  0.1599 -0.1327
26161W        W41778   8.727  12.585   5.518  0.1354  0.1638  0.0596
26162W        W41779   8.761   6.683  13.326  0.3748 -0.0361 -0.1003
26163W        W41780  18.260  15.083  14.860 -0.1987  0.2669 -0.1448
26164W        W41781  18.440  10.690   3.256  0.0215  0.3404 -0.0624
26165W        W41782  11.159   8.973  12.446  0.3012  0.1024 -0.1989
26166W        W41783  12.600  13.662  11.400 -0.0511  0.4031  0.0247
26167W        W41784   0.933  16.822   0.811  0.1964  0.2970  0.1702
26168W        W41785  15.470   1.798  12.632 -0.2215  0.2110  0.0610
26169W        W41786  17.103  12.894  15.498 -0.0418  0.1237  0.0534
26170W        W41787   3.516  14.096   4.194 -0.3247  0.1338  0.0584
26171W        W41788  15.140  11.923   3.566 -0.3571 -0.4132 -0.2324
26172W        W41789  12.840   3.168  14.407  0.0682  0.0151  0.0729
26173W        W41790   8.691  17.966  11.220  0.1309 -0.1924  0.0246
26174W        W41791  14.120   8.862  15.434  0.3575 -0.3864  0.0806
26175W        W41792  16.144   6.837   3.318  0.0215 -0.1915  0.0463
26176W        W41793   2.422  10.113  13.122 -0.0608  0.1663  0.2349
26177W        W41794   0.804  11.130  14.363  0.1739 -0.0275 -0.1401
26178W        W41795  13.852   2.970   4.393 -0.1000 -0.0103  0.3170
26179W        W41796  13.278  17.626  13.609 -0.1994  0.0604  0.3395
26180W        W41797   9.868   2.408   0.358 -0.1872 -0.2567  0.1850
26181W        W41798   1.753   4.996  15.162 -0.0386  0.1475  0.0434
26182W        W41799   5.320   3.239   4.707  0.0482  0.1564  0.2927
26183W        W41800  16.868  16.102   2.692 -0.1041 -0.1277 -0.1905
26184W        W41801  13.771   1.861   3.997 -0.0233  0.0148 -0.0778
26185W        W41802   8.309   3.737  12.317  0.0733  0.2170 -0.0118
26186W        W41803   1.783  11.815  15.261 -0.3491  0.4361  0.2929
26187W        W41804   5.558  15.635   0.484  0.0501 -0.5889 -0.0351
26188W        W41805  14.729   2.561  16.016  0.1359 -0.1694 -0.1654
26189W        W41806   7.460  16.252  13.223  0.0564 -0.3121 -0.2018
26190W        W41807   2.651  17.778   6.139  0.1926  0.1212  0.2431
26191W        W41808  17.027   6.307   2.628  0.1035 -0.0350  0.1777
26192W        W41809   6.395   4.041   3.461  0.0290 -0.0637  0.1530
26193W        W41810   9.341  14.357  12.830 -0.2074  0.0095  0.2517
26194W        W41811   4.496  15.085   0.357  0.0031 -0.3895 -0.0577
26195W        W41812   5.632  16.394  12.896  0.0031  0.3006 -0.0813
26196W        W41813  13.548  12.479   1.934  0.0477 -0.3173  0.2033
26197W        W41814   3.763   5.718  13.270 -0.3036 -0.0731 -0.1465
26198W        W41815   3.729  17.368   5.150  0.0165  0.1169 -0.2440
26199W        W41816  11.489   6.748  11.887 -0.1629 -0.0122  0.1552
26200W        W41817  13.464  12.156  14.366 -0.0823  0.0302 -0.0192
26201W        W41818   6.748  17.693   5.078 -0.1836 -0.1115  0.0295
26202W        W41819  10.561  11.284  14.623 -0.0053 -0.2216 -0.2527
26203W        W41820  15.353   0.360   2.283  0.0466  0.2399  0.1144
26204W        W41821   1.157  13.021  10.271  0.1776 -0.1658 -0.1576
26205W        W41822  11.296   6.991  11.442  0.0983  0.1258 -0.0095
26206W        W41823  10.020  12.868  13.146 -0.0923 -0.1512  0.2039
26207W        W41824  10.888   8.188  14.971 -0.1518  0.0019  0.0761
26208W        W41825   7.246  13.252  13.408 -0.1667  0.0005  0.2683
26209W        W41826   8.120   9.742  11.077  0.0985  0.1744 -0.0341
26210W        W41827   2.921   9.719   3.080 -0.1512 -0.5368 -0.0298
26211W        W41828   6.888  14.098   4.349 -0.0831 -0.1868  0.1923
26212W        W41829  12.315   9.366  12.262 -0.2128 -0.1118  0.1743
26213W        W41830   2.097  13.275  12.375  0.1022 -0.2069  0.0416
26214W        W41831   7.622  10.452  13.083  0.2730  0.0115 -0.0424
26215W        W41832  16.414   7.730   5.070 -0.0847 -0.0847  0.2149
26216W        W41833  12.588   4.937  14.775 -0.0683 -0.1084 -0.1100
26217W        W41834  11.193   1.093   2.900 -0.3368 -0.0501 -0.2198
26218W        W41835  10.662  16.144   3.883 -0.2717 -0.0309 -0.2935
26219W        W41836  15.366   3.838   3.403  0.0879  0.1791 -0.2431
26220W        W41837  11.704   3.381   1.991  0.1054 -0.1879 -0.1610
26221W        W41838   3.527  12.197  12.964  0.1788  0.1142 -0.1787
26222W        W41839   9.930   7.871   1.683 -0.1148 -0.0612  0.4450
26223W        W41840  12.753   1.165  11.090 -0.2972  0.4743 -0.0247
26224W        W41841   0.955   1.201   5.609  0.0029 -0.3413  0.2291
26225W        W41842  14.087  10.515   3.282  0.1952  0.0830 -0.1822
26226W        W41843   6.503  11.209  15.535  0.0542  0.3690 -0.0838
26227W        W41844   0.108   0.835   2.328 -0.0860 -0.3186  0.2110
26228W        W41845  15.921   5.170   3.890  0.0390  0.0786  0.0617
26229W        W41846  15.368  16.390   1.475  0.0201 -0.0515  0.2415
26230W        W41847   2.749  14.347  15.424  0.1003 -0.0841  0.2151
26231W        W41848  16.046   0.370  12.415 -0.0656 -0.2721 -0.2083
26232W        W41849  11.761   5.526  11.821  0.2102  0.6232  0.1068
26233W        W41850  16.417  17.236   1.133  0.2124  0.4240 -0.0254
26234W        W41851   1.426  11.643   2.741 -0.3284 -0.1572 -0.1912
26235W        W41852  16.407   8.794  15.660  0.1638 -0.1018  0.1915
26236W        W41853  15.415   7.447  12.147 -0.0456 -0.1663 -0.0523
26237W        W41854   8.644   4.560  10.712  0.0320  0.0018  0.2077
26238W        W41855  18.241   9.985   1.051  0.0013  0.3936  0.1451
26239W        W41856  12.356   9.625   4.501  0.1564 -0.1258  0.0504
26240W        W41857   6.270   8.859  13.014  0.0066  0.0075 -0.0098
26241W        W41858   3.166  14.564   6.033 -0.1928  0.1263  0.1236
26242W        W41859   7.912  11.124   3.384 -0.0328  0.1513  0.4750
26243W        W41860   2.140   0.772   1.515  0.1271  0.0236  0.0161
26244W        W41861  16.507   2.994  11.889  0.0897  0.0680 -0.0616
26245W        W41862  17.682   5.895  14.810 -0.1551 -0.0042 -0.0300
26246W        W41863  14.474  14.677   4.630 -0.4310 -0.2350 -0.1738
26247W        W41864  15.639  15.043  14.244  0.0380  0.3072  0.1810
26248W        W41865   5.757  11.984  13.355 -0.0138 -0.0200  0.0995
26249W        W41866  15.938  12.910   2.287  0.0563 -0.3990  0.0440
26250W        W41867   0.108   1.082  14.810 -0.1343 -0.2488  0.0961
26251W        W41868  11.038  12.111  14.637 -0.0964 -0.0263 -0.3773
26252W        W41869   1.564   4.891   0.663 -0.0350 -0.0752 -0.2074
26253W        W41870  11.391  15.924  11.064  0.4276 -0.0857 -0.2959
26254W        W41871   0.443   6.350   2.529  0.2749  0.0960 -0.3500
26255W        W41872   5.710  11.804   5.558 -0.0401  0.3028 -0.1634
26256W        W41873   1.458   1.497   1.525 -0.0920  0.0282  0.1961
26257W        W41874  15.660   8.530  13.509  0.1172 -0.0083  0.2234
26258W        W41875  17.966  14.491   2.333 -0.1448 -0.1196 -0.0599
26259W        W41876   2.925  12.108   3.432  0.0785 -0.0805 -0.1540
26260W        W41877  14.575  12.825   1.911  0.0611  0.2129 -0.0944
26261W        W41878  15.672   0.709   4.566 -0.1168  0.2511 -0.1376
26262W        W41879  14.798   4.699   2.940 -0.1851  0.1349  0.0492
26263W        W41880  17.608  14.770  13.465  0.2382 -0.0798 -0.3136
26264W        W41881   4.865  17.637   0.480 -0.2089  0.3125  0.0815
26265W        W41882   9.482   1.008  10.907 -0.1723  0.3816  0.2503
26266W        W41883   6.798   1.755   3.780 -0.1700  0.4316  0.0683
26267W        W41884  14.604   0.683   0.770 -0.0126  0.0046  0.0310
26268W        W41885   3.261   7.895  11.717  0.0529  0.1771  0.1075
26269W        W41886   6.955   8.550  12.536  0.0984  0.0663 -0.1775
26270W        W41887  15.771   4.798   3.623  0.2638  0.2822  0.1359
26271W        W41888   8.707  10.278   4.064  0.0414  0.3147  0.0058
26272W        W41889   9.890   9.964   1.421  0.2807 -0.2851  0.0929
26273W        W41890  17.689  15.341  11.825 -0.2273  0.1624 -0.0155
26274W        W41891   9.118   0.320  13.183  0.1120  0.1081 -0.0104
26275W        W41892  16.397  10.512  12.876  0.3088 -0.3325  0.2418
26276W        W41893  13.744   0.243  15.332 -0.2555  0.3482 -0.2148
26277W        W41894   0.603  15.987  14.052  0.1698  0.0508 -0.1828
26278W        W41895   5.600   2.080  11.416 -0.1883  0.0350  0.0988
26279W        W41896  14.459  10.645  14.184  0.4576  0.0220  0.1089
26280W        W41897   0.350   2.911  13.161 -0.2679 -0.1432  0.0097
26281W        W41898   6.229   0.270  14.312  0.2442 -0.1379  0.0282
26282W        W41899   3.854   6.189  13.275 -0.1061 -0.0053  0.0658
26283W        W41900  16.883   9.852   0.789  0.2322 -0.1994  0.0044
26284W        W41901  11.030   7.331  15.230  0.1915  0.0777  0.1597
26285W        W41902   6.122   3.759   4.114  0.1322  0.3712 -0.1727
26286W        W41903   7.649  17.006  11.626 -0.0385 -0.3965 -0.0312
26287W        W41904  12.779   7.179  11.013 -0.1623  0.2117 -0.2492
26288W        W41905   2.313  15.580  15.106 -0.1858 -0.0025 -0.1358
26289W        W41906  13.517   5.649   3.715 -0.3932 -0.0207 -0.0565
26290W        W41907   9.347  13.626   5.535 -0.1541  0.1837 -0.1588
26291W        W41908   9.139  18.369  12.042 -0.0785  0.2523  0.0012
26292W        W41909  18.239   6.884   5.098 -0.0055  0.0175 -0.1215
26293W        W41910   3.557   6.780  14.374  0.3439  0.0926  0.3031
26294W        W41911  10.987  16.290  11.078 -0.2491  0.0374  0.0299
26295W        W41912   8.753   2.746   2.227 -0.4250  0.2347  0.0161
26296W        W41913  10.018  12.848   6.218 -0.0534  0.1116  0.1370
26297W        W41914  10.604   2.706   5.038  0.5389 -0.1554  0.1215
26298W        W41915   4.860   1.497  14.943  0.0247 -0.1467 -0.2398
26299W        W41916   3.950   7.289   1.365 -0.2411  0.1130  0.0366
26300W        W41917   4.933   9.527  10.665  0.0656  0.0450 -0.0008
26301W        W41918   6.357  10.053   3.129  0.0601 -0.0772  0.1693
26302W        W41919  11.567  11.037  11.621  0.1733  0.0693  0.1211
26303W        W41920   2.119  17.455  11.825  0.0276  0.0566 -0.0468
26304W        W41921   4.038   9.549  12.657  0.2354  0.3251  0.1712
26305W        W41922   4.101   2.345   3.378 -0.0695 -0.2153 -0.3869
26306W        W41923  10.787  15.162   5.439  0.4383 -0.0453 -0.3526
26307W        W41924   1.985  14.760   0.067  0.0103  0.2312 -0.0994
26308W        W41925  17.732  10.533   5.948  0.0460 -0.0503  0.2540
26309W        W41926  15.263  15.162  13.537 -0.0446 -0.2157 -0.1473
26310W        W41927  13.397   1.931  14.496  0.1361  0.2290 -0.0286
26311W        W41928  11.219   8.764   5.065  0.0287  0.0920 -0.0063
26312W        W41929   6.454   4.939  13.998 -0.3426  0.0054  0.1357
26313W        W41930   0.273  15.378   4.105  0.0049  0.5340 -0.1884
26314W        W41931  13.128  12.747   4.633 -0.4343  0.1972 -0.2902
26315W        W41932   5.429   2.871  12.854  0.2946  0.0190 -0.1209
26316W        W41933   5.142  16.894   5.898 -0.1378 -0.1843 -0.0573
26317W        W41934   2.548  11.989   0.860  0.1586 -0.0066  0.0229
26318W        W41935  12.704   7.989   3.045 -0.2894 -0.0888 -0.0870
26319W        W41936   2.720   3.246  14.258 -0.2090  0.0192  0.1430
26320W        W41937   0.274  15.170  13.339  0.2751 -0.1104  0.0249
26321W        W41938   2.371  11.619  12.769  0.0234  0.2784 -0.1119
26322W        W41939  14.318   2.453  15.307 -0.0856  0.2685  0.1222
26323W        W41940   4.981  17.013   3.618 -0.1008  0.1396  0.4005
26324W        W41941   7.813   4.941  10.739 -0.0635 -0.2791  0.1318
26325W        W41942  14.996   0.001  15.738  0.1203 -0.0527 -0.1359
26326W        W41943   0.600   3.983  10.989  0.2668  0.0532 -0.3767
26327W        W41944   1.295  10.643  13.237  0.2646  0.1482  0.1656
26328W        W41945  16.297  15.422   4.263 -0.0681 -0.0613  0.1693
26329W        W41946  13.305  18.353   0.163 -0.2775  0.0172 -0.0478
26330W        W41947  10.167  17.779   4.654 -0.3421  0.1210 -0.1497
26331W        W41948   4.484   6.952   3.093  0.0689 -0.1453 -0.2757
26332W        W41949   7.258  11.338  12.452  0.0119 -0.1316  0.0269
26333W        W41950   4.583  14.156  15.386  0.0526 -0.0242 -0.0875
26334W        W41951  14.748   7.127   2.658  0.1621 -0.0486 -0.0442
26335W        W41952   4.240  17.291  13.798  0.0211 -0.2883  0.1319
26336W        W41953  15.337  13.154  14.010 -0.2374  0.3340  0.1215
26337W        W41954   8.002   8.623   2.877  0.0169  0.0744  0.0168
26338W        W41955  15.462  12.434  10.832 -0.0195 -0.2294 -0.0806
26339W        W41956   9.130   1.225   0.611 -0.0568  0.0412  0.1771
26340W        W41957  16.416   3.276   4.009  0.1143 -0.0102  0.1579
26341W        W41958   2.200   8.024  11.607  0.1073  0.4510  0.3104
26342W        W41959   4.087   8.001  14.028 -0.0695 -0.2158 -0.1561
26343W        W41960  11.293   9.174  10.873  0.0844  0.0884 -0.1542
26344W        W41961   9.763   8.994  13.379 -0.0025  0.2874 -0.0637
26345W        W41962   7.403   5.104  10.385  0.0793 -0.0654  0.0417
26346W        W41963  15.573  15.427   1.637 -0.1972  0.1128 -0.2619
26347W        W41964  13.144  15.532  10.604  0.2039  0.0976  0.1912
26348W        W41965   1.000   5.359  12.831 -0.2005  0.0173 -0.1563
26349W        W41966  16.582  17.553  13.739  0.2120  0.0436  0.1846
26350W        W41967   0.586  11.080  13.204 -0.0949  0.2500  0.0594
26351W        W41968  15.526   5.560   4.096 -0.0797 -0.1525 -0.0984
26352W        W41969  11.099  11.990  15.716  0.4484 -0.1824  0.1627
26353W        W41970   0.033   3.395   5.278 -0.0970 -0.0360 -0.0964
26354W        W41971   5.970   4.640   1.490  0.0944  0.2307  0.0980
26355W        W41972  13.126  17.135   5.029 -0.2387  0.0088  0.0158
26356W        W41973  15.962  12.846   1.652  0.1374  0.1015 -0.1383
26357W        W41974   3.151   0.791   2.691 -0.1292 -0.0836 -0.1473
26358W        W41975   9.065   5.958  14.766 -0.2530  0.2649 -0.4151
26359W        W41976   5.722   0.194   1.760  0.2310 -0.5438  0.2439
26360W        W41977   6.960   6.468   3.516  0.0785 -0.0046 -0.1024
26361W        W41978   4.190   7.390   0.047  0.1608 -0.3816 -0.2136
26362W        W41979  17.888   2.502  12.103 -0.4820 -0.0901  0.0231
26363W        W41980  16.903   4.020   2.043  0.4045  0.1797  0.5215
26364W        W41981  10.756   1.299  13.437 -0.0468  0.6003 -0.0174
26365W        W41982   1.190  16.059   1.161  0.2363  0.0392  0.0445
26366W        W41983  14.154   8.255   5.301 -0.0831 -0.1094  0.0458
26367W        W41984  12.956  10.230   1.262 -0.0075 -0.0486  0.3013
26368W        W41985   3.821  14.954  13.553 -0.1239  0.0823 -0.0588
26369W        W41986  14.147   4.988  14.672  0.0439  0.0482 -0.1564
26370W        W41987   6.140   6.791   4.118 -0.1074 -0.2579 -0.2524
26371W        W41988  17.854   1.933  13.707  0.1586 -0.2473  0.2607
26372W        W41989  12.248  16.237   3.049  0.1170 -0.1563 -0.0626
26373W        W41990  15.875  13.067  15.924 -0.3581 -0.0974 -0.3248
26374W        W41991   4.297   9.173   3.242 -0.0227 -0.0951  0.0360
26375W        W41992   9.776  14.785   3.709  0.1800  0.1097  0.2387
26376W        W41993  16.248   9.730  15.176  0.0123 -0.2907  0.0229
26377W        W41994  12.537   5.125   5.263 -0.1519 -0.2369  0.0449
26378W        W41995   8.065  13.572   4.125  0.0402 -0.0558 -0.1581
26379W        W41996   3.939  14.082  13.689 -0.1110 -0.1154 -0.1439
26380W        W41997  16.296   0.132   4.282 -0.0490  0.0732  0.0253
26381W        W41998   3.721   4.368   3.541  0.1126 -0.1308  0.1342
26382W        W41999  14.336  16.634   4.721  0.1045 -0.0297 -0.0586
26383W        W42000  12.525   9.672   0.953  0.1324  0.3341 -0.1964
26384W        W42001   2.383   3.750   4.203 -0.4393 -0.0997  0.1808
26385W        W42002   1.413   1.823   2.747 -0.1187 -0.2452 -0.1458
26386W        W42003   9.728  18.314  15.344  0.1633  0.1648 -0.0189
26387W        W42004   6.243   6.506  14.852  0.2441 -0.1158 -0.1028
26388W        W42005  12.417   9.844  15.106  0.1883 -0.3126  0.0705
26389W        W42006  13.301   9.542  12.760 -0.1041  0.0609  0.3221
26390W        W42007  18.177  13.923   6.321  0.1387 -0.1501 -0.1450
26391W        W42008  16.624  16.716   1.330  0.0029 -0.2442  0.0482
26392W        W42009  14.219   1.989   1.360 -0.0523  0.0209 -0.1078
26393W        W42010   2.279   0.476   1.978  0.0260  0.0735 -0.0432
26394W        W42011   8.820  14.237   4.066  0.1441  0.1231 -0.0049
26395W        W42012   3.867   9.848   2.111 -0.1914  0.0156 -0.0321
26396W        W42013  11.301   7.814   4.614  0.2114  0.1647  0.3198
26397W        W42014  10.376   2.532   1.975  0.1696  0.0777 -0.1018
26398W        W42015   8.147   6.875  12.975  0.1609 -0.3897  0.1137
26399W        W42016  10.738   3.724   2.246 -0.0491  0.0589 -0.1561
26400W        W42017   8.279  16.547   5.479 -0.0431 -0.2726  0.0520
26401W        W42018   4.994  15.699   2.099  0.1542 -0.0542  0.0096
26402W        W42019   6.337   1.386  11.366 -0.1581 -0.3087 -0.1014
26403W        W42020   9.685   8.582  10.912  0.2641  0.2339 -0.0506
26404W        W42021   1.255   2.846  12.028 -0.0390  0.1710 -0.0906
26405W        W42022  17.505   7.170  14.994 -0.0369  0.0364 -0.2437
26406W        W42023   6.269   2.133   4.565 -0.1922  0.3425 -0.3278
26407W        W42024  12.427  12.641   2.096  0.1286 -0.2409  0.1083
26408W        W42025   7.148  13.823   6.050 -0.0516 -0.0285  0.1114
26409W        W42026  17.395   7.594  11.329 -0.1927 -0.0877  0.2025
26410W        W42027   8.457   7.547   2.405 -0.2630  0.0851  0.0391
26411W        W42028   7.006  14.008   2.262 -0.3673 -0.1110  0.2130
26412W        W42029   7.166   1.024  15.867  0.2240  0.0958  0.2689
26413W        W42030   5.912   8.985  13.327 -0.0392 -0.1272  0.2589
26414W        W42031  11.219   2.561  11.338 -0.0058  0.0628 -0.0597
26415W        W42032   6.447  15.305   5.532 -0.0766  0.0599 -0.1412
26416W        W42033  14.384  18.271  11.642  0.0540  0.1756 -0.0878
26417W        W42034   1.775  13.367  14.896 -0.2601 -0.0204  0.1485
26418W        W42035  10.111  11.826   5.072  0.2656 -0.1415  0.2377
26419W        W42036  12.080   7.053  14.201  0.3698 -0.3645 -0.3077
26420W        W42037  13.426   7.289  14.193 -0.2923  0.3563 -0.1225
26421W        W42038   4.054   1.243  14.535 -0.0768 -0.1397  0.3174
26422W        W42039  12.797   3.719   1.865  0.1626 -0.2179 -0.0465
26423W        W42040  13.885  13.807   0.581  0.1083 -0.1133  0.1947
26424W        W42041  11.299   0.351   0.850  0.0786 -0.1826  0.1777
26425W        W42042   1.823  17.182   4.213  0.1339  0.2526  0.2906
26426W        W42043  17.139   8.392   0.706 -0.0489  0.0112 -0.2748
26427W        W42044  18.377  15.432   2.766 -0.0126 -0.1298  0.0501
26428W        W42045   7.214  11.755  13.370  0.1076  0.1636 -0.1543
26429W        W42046   4.054  16.513   4.292 -0.1734 -0.0669  0.1237
26430W        W42047   2.090   9.490   5.506 -0.4000  0.1271 -0.2663
26431W        W42048   7.979  14.868   3.669 -0.0644 -0.1571  0.1169
26432W        W42049   3.344   8.925  13.335 -0.1068  0.0624  0.2662
26433W        W42050   9.913  10.204   5.889 -0.0804 -0.2131  0.1051
26434W        W42051  12.127  11.002   1.123 -0.0767 -0.0233  0.2160
26435W        W42052   1.965   5.730   0.259  0.1382 -0.1567  0.1635
26436W        W42053  14.261  17.340  12.448 -0.1401 -0.0020 -0.0058
26437W        W42054   3.634   4.131   4.762 -0.0280  0.2822 -0.3501
26438W        W42055   0.821   1.603  13.775  0.0974  0.1431  0.0794
26439W        W42056  17.842  15.304   6.236  0.0416 -0.0597  0.2632
26440W        W42057   9.666  15.267  15.393 -0.1365  0.0208 -0.1285
26441W        W42058  12.291   6.701  11.823  0.0201  0.1869 -0.0460
26442W        W42059  12.878   1.440   1.854  0.0367  0.1184  0.1130
26443W        W42060  14.454  17.901   3.330 -0.0636 -0.3689  0.2680
26444W        W42061   6.873  14.926  11.768 -0.1954 -0.0034 -0.3344
26445W        W42062   7.817  10.604  11.970 -0.2781 -0.1026 -0.1072
26446W        W42063   5.200   2.326   5.893 -0.1156  0.2446 -0.3104
26447W        W42064  15.540   1.684  15.501  0.0947 -0.2209  0.0210
26448W        W42065   3.663  11.480   4.602 -0.0577  0.0533  0.1591
26449W        W42066  10.265   5.532   4.762  0.2774  0.0424 -0.2307
26450W        W42067   2.152  14.372  15.292  0.1023  0.1668  0.0815
26451W        W42068  14.995  13.222   0.545  0.4400  0.2238 -0.0351
26452W        W42069  10.174   3.123   1.232 -0.2157  0.0295 -0.0463
26453W        W42070   7.081  15.903  12.145  0.3299 -0.1011  0.0801
26454W        W42071  16.847   8.455   2.143 -0.0362  0.0471 -0.0497
26455W        W42072   8.952   3.183   4.354  0.0903 -0.0981 -0.0339
26456W        W42073  17.547   2.626   2.243  0.3070 -0.1735  0.1500
26457W        W42074  10.002  16.130   6.342  0.1984 -0.2003  0.0583
26458W        W42075  14.724   8.362  11.533 -0.2480 -0.1793  0.5839
26459W        W42076  13.069  14.717  12.867  0.1941 -0.0782  0.2600
26460W        W42077   1.456  12.067  12.914  0.3018 -0.3742 -0.2609
26461W        W42078  10.138  16.499  11.410  0.2337 -0.2865  0.0594
26462W        W42079  12.609   1.076   4.446 -0.0495 -0.0214  0.0469
26463W        W42080   5.778  17.133  15.810 -0.1804  0.0113  0.0606
26464W        W42081  14.244  16.702  15.323  0.2140 -0.0722  0.1386
26465W        W42082   6.957  14.043  11.505  0.3069  0.1192 -0.0628
26466W        W42083   5.372  10.859   5.390 -0.1941 -0.3326 -0.5637
26467W        W42084   0.502   0.884  14.458 -0.1086 -0.0510 -0.0884
26468W        W42085  11.469  16.097   2.333  0.0725 -0.1227 -0.2460
26469W        W42086  10.232   2.892  14.634 -0.1025  0.0346  0.0227
26470W        W42087   0.333   3.546   0.630 -0.1029  0.1549 -0.2582
26471W        W42088   6.645  10.862   1.568  0.0690 -0.2537 -0.2019
26472W        W42089  11.430  13.960  15.547  0.1863 -0.0146  0.0947
26473W        W42090   0.156  17.360  11.757  0.1767  0.1997  0.1224
26474W        W42091   2.150   2.384  15.141  0.3501  0.2373 -0.1171
26475W        W42092   9.197   6.737   4.639 -0.2243  0.0430  0.0055
26476W        W42093   1.393  13.055  11.489  0.0369 -0.1983 -0.1922
26477W        W42094  17.715  10.114   0.729  0.2773 -0.3213  0.0258
26478W        W42095   2.863   6.295  14.436  0.2270  0.1378 -0.0039
26479W        W42096  14.822   3.751  15.878  0.3578 -0.2118  0.5423
26480W        W42097   0.108   1.597  14.800  0.2563 -0.1707  0.1094
26481W        W42098  14.604  10.645   1.746  0.2547  0.0019 -0.2479
26482W        W42099  13.671   3.455   5.233 -0.0797  0.2141 -0.5175
26483W        W42100   8.220  14.799  12.472  0.1984  0.0818 -0.1124
26484W        W42101  14.341   8.738   5.050 -0.2796 -0.0585  0.1789
26485W        W42102  16.544  16.958  11.816  0.1664  0.0587  0.1316
26486W        W42103   1.543   8.157   4.260 -0.1188  0.1871 -0.0992
26487W        W42104   6.205  13.490  11.595  0.0168 -0.1273 -0.0657
26488W        W42105   2.829   4.342   0.237 -0.1695  0.0990 -0.1357
26489W        W42106   5.105   3.278   2.527 -0.0136 -0.2437  0.2857
26490W        W42107   2.278   1.817   0.494 -0.1324 -0.2203  0.0645
26491W        W42108  17.081   2.511  10.519  0.1336  0.0876  0.1586
26492W        W42109   3.213   5.691  11.319  0.1060 -0.0403 -0.0496
26493W        W42110  17.681   3.359  15.170 -0.0254 -0.1761 -0.1297
26494W        W42111   8.150   3.761   1.692  0.1424 -0.1153  0.1229
26495W        W42112  11.051  13.524   6.658  0.1314  0.1952  0.1181
26496W        W42113   4.251  16.481   5.332  0.4027 -0.0886  0.0693
26497W        W42114   7.538   9.925  12.727  0.1199 -0.0041 -0.2926
26498W        W42115   4.270   0.755   0.465  0.0681  0.0342  0.1244
26499W        W42116   7.709  15.017  15.690  0.0625 -0.4360 -0.0359
26500W        W42117  15.430   1.382   5.534  0.0176  0.3077  0.1992
26501W        W42118   4.476  11.988  15.821 -0.2840 -0.1168 -0.0174
26502W        W42119   2.010  15.457  12.992  0.1624  0.1564 -0.2468
26503W        W42120   5.015   9.540  14.826 -0.2882 -0.2579 -0.1082
26504W        W42121  10.314   3.731   2.905  0.1623 -0.0851 -0.0637
26505W        W42122  11.154  15.587   4.662 -0.1298  0.0957  0.5231
26506W        W42123   7.336  13.107   6.074  0.1172 -0.1527  0.2523
26507W        W42124   1.086   8.739  15.834 -0.1273  0.1532 -0.0977
26508W        W42125   9.937   1.539  11.653  0.0393  0.0278 -0.1076
26509W        W42126  16.981  11.042  11.209 -0.2547  0.0626 -0.0469
26510W        W42127  13.563  12.488   0.428 -0.0091  0.1389  0.1970
26511W        W42128   1.430   2.402  15.713  0.0177  0.0116  0.0143
26512W        W42129   7.782   8.521   5.493 -0.0307 -0.0248 -0.2851
26513W        W42130   2.375  14.406  15.894 -0.1234  0.3165  0.0100
26514W        W42131   2.272  17.729   1.717  0.1314  0.2408 -0.0316
26515W        W42132  10.816   8.464  15.868  0.1103 -0.3143  0.1311
26516W        W42133   5.930  18.144  11.630 -0.0335 -0.2473 -0.2624
26517W        W42134   9.120   7.232  16.072  0.1300 -0.2470 -0.0775
26518W        W42135  10.168   3.167  11.886  0.1016  0.0375 -0.3321
26519W        W42136  13.672   5.435  13.440 -0.1743 -0.0912 -0.2511
26520W        W42137  13.964   5.365  13.842 -0.1422  0.1736  0.0500
26521W        W42138  12.654  11.043   3.920 -0.0844 -0.0756 -0.4145
26522W        W42139   7.630   1.601  15.612 -0.0997 -0.0689 -0.2175
26523W        W42140   9.554   4.439  15.434 -0.3579 -0.2866  0.0679
26524W        W42141   8.523   0.175   1.428 -0.1288 -0.1899  0.0310
26525W        W42142   1.021  10.669  15.596  0.1000 -0.2487 -0.2987
26526W        W42143   6.631  11.680   5.310 -0.1196  0.2503 -0.1948
26527W        W42144   5.957  11.272   0.499 -0.2942  0.0718 -0.0301
26528W        W42145   3.112   0.337   5.500  0.0709  0.0190  0.0725
26529W        W42146   7.608  15.857   4.819 -0.2270 -0.2117  0.0204
26530W        W42147   5.455  17.232   6.242  0.0763 -0.3055  0.1470
26531W        W42148   4.598   2.260   4.133  0.0425  0.0033 -0.0817
26532W        W42149   4.452   4.585   0.884 -0.1172  0.0514  0.1442
26533W        W42150  10.571   5.143   0.266 -0.0337 -0.0433 -0.2318
26534W        W42151  15.818   9.309  12.968 -0.1048  0.1315 -0.0431
26535W        W42152  15.442   0.641  11.712 -0.2003  0.1837 -0.1473
26536W        W42153   4.366   5.627  10.653 -0.0811 -0.3025  0.1266
26537W        W42154   6.117   5.477  15.172 -0.3365  0.0428 -0.0103
26538W        W42155   1.295  12.497  13.180 -0.1987 -0.2253  0.3811
26539W        W42156  13.566   1.920   2.195  0.1698  0.0992  0.2403
26540W        W42157  15.325   6.464   3.683  0.2935 -0.1571 -0.3768
26541W        W42158   4.544  16.514   2.171 -0.3379 -0.0929 -0.0059
26542W        W42159  18.232  17.385   3.372 -0.0060 -0.0346 -0.1006
26543W        W42160   9.559   8.632  13.651  0.0822  0.1026  0.2885
26544W        W42161  10.877  18.286   2.163 -0.0193  0.2051  0.1637
26545W        W42162  15.701  16.549  13.425 -0.4873 -0.0644  0.1019
26546W        W42163  17.472  11.676  12.772  0.2356  0.2964 -0.1183
26547W        W42164   0.190  15.755  14.349 -0.1730 -0.1985 -0.1687
26548W        W42165  14.228  11.111   5.723 -0.0516  0.0120 -0.2320
26549W        W42166   5.963   1.680  13.125  0.1749 -0.0511 -0.3007
26550W        W42167  15.589  13.187   3.437  0.1364 -0.0674 -0.1658
26551W        W42168  12.553   6.854   5.520  0.1453  0.3161 -0.1820
26552W        W42169   0.372   8.426  15.707 -0.0863  0.0179  0.0244
26553W        W42170  10.199  14.134   2.277 -0.0691  0.1448  0.1392
26554W        W42171  18.109   2.288   3.100  0.0636 -0.0230 -0.0396
26555W        W42172   6.747  12.603  11.588  0.2694  0.0763  0.4427
26556W        W42173  15.514   2.339   3.505 -0.0461  0.1302 -0.0194
26557W        W42174  16.728  17.440   0.789  0.1198 -0.2430  0.0578
26558W        W42175   1.314  13.912  12.646 -0.0096 -0.2744 -0.1729
26559W        W42176  16.499  15.856   0.075  0.1243  0.2877 -0.3096
26560W        W42177   5.503  12.696   1.087 -0.0109 -0.0737 -0.0735
26561W        W42178   2.586   7.591   2.423 -0.2813  0.2465  0.1639
26562W        W42179  16.231   2.141   1.032  0.1607 -0.0820 -0.0654
26563W        W42180  13.322   5.341   1.593  0.1194  0.3990  0.1141
26564W        W42181   8.703   9.145  12.703 -0.0578 -0.2767  0.0592
26565W        W42182  15.102  10.246  11.874 -0.1218  0.0985  0.0347
26566W        W42183   2.136  17.023  15.446 -0.0081 -0.3073  0.1496
26567W        W42184  10.643  17.123  13.402  0.1512  0.0045 -0.0005
26568W        W42185   4.718   4.216  15.648 -0.3969 -0.2009  0.0538
26569W        W42186  16.722   9.311   3.810 -0.1917 -0.1659 -0.4590
26570W        W42187   5.118   4.143  12.892  0.1001  0.3706 -0.1617
26571W        W42188  10.888   8.688   3.200  0.0092 -0.2293  0.1246
26572W        W42189   5.315   1.166  12.285 -0.2064 -0.2199  0.2344
26573W        W42190  17.278  15.593  13.591  0.1671  0.1752 -0.1326
26574W        W42191  10.896   9.686  11.602  0.0077  0.1702  0.1316
26575W        W42192   7.453   4.540  10.363  0.2530 -0.0693  0.0828
26576W        W42193  16.392   8.041   4.386 -0.2986  0.3689 -0.1181
26577W        W42194  13.682   8.588   1.359  0.2772  0.1886  0.1281
26578W        W42195  17.090  12.301  14.375 -0.0844 -0.1569  0.0793
26579W        W42196  15.873   1.586   0.234 -0.1592  0.1422 -0.0991
26580W        W42197  12.131   5.130  15.716  0.0645 -0.2931  0.0599
26581W        W42198   8.916   9.575  12.297  0.1200 -0.0752  0.0634
26582W        W42199  16.029   9.889  10.841 -0.1239  0.2261 -0.0614
26583W        W42200   9.120  18.108   3.193 -0.3330 -0.0989 -0.0409
26584W        W42201   6.729   4.666   0.513  0.1141  0.1481 -0.2117
26585W        W42202  11.967   2.221  15.277  0.2120 -0.0216 -0.3244
26586W        W42203  13.798  17.200  12.381 -0.0101  0.2726 -0.0514
26587W        W42204  16.538  17.428   0.249 -0.0269  0.2009  0.3016
26588W        W42205   5.339   8.377  15.347 -0.1016 -0.1200 -0.4372
26589W        W42206   8.653  11.031   2.446 -0.0680  0.2681 -0.2790
26590W        W42207   3.206  12.252   2.967  0.1455 -0.0141  0.0016
26591W        W42208   7.135  18.356   0.561 -0.0328 -0.0242  0.6354
26592W        W42209  11.455   7.262  15.480  0.0725 -0.2967  0.2788
26593W        W42210  10.803  16.279   2.735 -0.3685 -0.1934  0.0858
26594W        W42211   0.349   2.161   0.620  0.0971  0.1547 -0.1310
26595W        W42212  10.880   0.609   5.117  0.0293 -0.2190  0.0641
26596W        W42213  10.450  13.051  13.387  0.2162 -0.2830 -0.2218
26597W        W42214  11.877  13.825  15.451 -0.3493 -0.3326  0.0625
26598W        W42215   9.202   6.954  13.318 -0.1011  0.0520  0.0274
26599W        W42216  14.579   2.064  12.003  0.0057 -0.1635  0.0217
26600W        W42217  13.449  10.067   3.202  0.2546 -0.0365 -0.1042
26601W        W42218   8.562   4.402  11.860  0.1197  0.0634  0.1310
26602W        W42219   3.560   7.700   4.172  0.1989  0.0466 -0.0493
26603W        W42220  17.399   0.697   5.130  0.0839 -0.0084 -0.0107
26604W        W42221   1.509  18.371   3.345  0.2071 -0.4973  0.0611
26605W        W42222   5.105  16.110  12.867 -0.0887  0.0454  0.1298
26606W        W42223   5.003   2.653  14.745  0.1860  0.0279  0.0008
26607W        W42224   0.536   6.705  15.158  0.0078  0.3218  0.3460
26608W        W42225   5.262   6.133  13.805 -0.1579  0.0913  0.1060
26609W        W42226   6.113  15.641  11.372  0.2589  0.0117  0.4587
26610W        W42227  17.655  10.668  11.480 -0.0455  0.1072  0.1808
26611W        W42228   1.396  12.152   3.922  0.1112  0.0738  0.2319
26612W        W42229   4.016  18.100   3.808  0.0822  0.0759  0.0709
26613W        W42230   3.856   4.826  12.549 -0.1427  0.0890 -0.1383
26614W        W42231   7.917   9.391   4.527  0.0225 -0.2953  0.1017
26615W        W42232  12.443   2.742   5.692 -0.1282  0.0899  0.0905
26616W        W42233  13.972   3.377   1.308 -0.1241 -0.1112 -0.0173
26617W        W42234   2.157  11.592   5.694 -0.0716  0.2001 -0.1751
26618W        W42235   1.069   0.815  13.455  0.0024 -0.0561 -0.0105
26619W        W42236  16.246   4.707  11.565  0.2031  0.2648  0.2521
26620W        W42237   5.286  12.170  11.850 -0.1593  0.1327  0.2151
26621W        W42238  18.345   2.580   3.669  0.2315 -0.0967  0.1287
26622W        W42239  17.278   1.484  12.549 -0.1885 -0.0801  0.1717
26623W        W42240  18.079   5.637   0.743  0.3265  0.2665  0.1056
26624W        W42241   8.659  16.215  13.601  0.1394  0.0116  0.2907
26625W        W42242  15.579   4.278   1.809 -0.0623  0.2455 -0.1578
26626W        W42243  17.486  11.314   1.738 -0.1027  0.0428  0.0140
26627W        W42244   5.416  10.073   2.940  0.0652  0.2824  0.0209
26628W        W42245  13.936   1.045   4.353 -0.0275 -0.0993  0.0764
26629W        W42246   6.240  11.050   2.757  0.0311  0.0661  0.2262
26630W        W42247  14.702  13.468  11.456 -0.0188 -0.0542  0.0221
26631W        W42248   8.298  17.167   4.621 -0.1649 -0.0553  0.2113
26632W        W42249  11.846   8.478   1.133  0.1450 -0.1555  0.0958
26633W        W42250  16.112  10.920   0.042  0.0020  0.0221 -0.0851
26634W        W42251   7.424  18.069   4.400 -0.0999  0.2256 -0.0432
26635W        W42252   8.906  16.473  11.506  0.2841 -0.0658  0.0371
26636W        W42253  10.369  17.733  10.955 -0.1650 -0.3278 -0.2705
26637W        W42254   1.203   9.928   4.045  0.3073  0.1983 -0.0803
26638W        W42255  12.289  10.866  11.498 -0.1899 -0.0071  0.1195
26639W        W42256   8.591  13.334  13.095 -0.3218  0.1528  0.0311
26640W        W42257  18.344  12.138  15.647 -0.1381 -0.2412 -0.0725
26641W        W42258  12.143   4.320  15.405 -0.2781 -0.0082  0.0528
26642W        W42259  12.515  14.676  16.019 -0.0211  0.0533 -0.1453
26643W        W42260  11.532  11.172  14.871 -0.4130 -0.0096  0.2003
26644W        W42261   1.106  17.726  13.173 -0.0932  0.0720 -0.2294
26645W        W42262   2.611   3.286  15.222 -0.1007  0.1945 -0.1301
26646W        W42263   2.446  16.652   3.397 -0.1693  0.0182  0.1546
26647W        W42264   7.230   2.322  14.441 -0.0131 -0.1527  0.1773
26648W        W42265  14.216  14.646   5.518  0.3986  0.2535 -0.1216
26649W        W42266   6.422   9.754  11.222  0.0781  0.2518 -0.0329
26650W        W42267  13.818  16.885   0.652  0.2086  0.1683  0.0582
26651W        W42268  10.318  13.909  15.762  0.1430  0.0215  0.1002
26652W        W42269   9.841  18.292   1.806  0.0184  0.2738  0.4784
26653W        W42270  11.548  14.608   6.309 -0.2554  0.2274 -0.1476
26654W        W42271   6.074   8.566   4.724  0.1046  0.1723 -0.2238
26655W        W42272   8.566   6.430   2.189 -0.3632  0.1352 -0.0158
26656W        W42273   5.670  16.020   5.538  0.0667  0.0811  0.0772
26657W        W42274   6.364   4.127  13.986  0.4002  0.1572  0.0554
26658W        W42275  18.167  17.189   1.845  0.1554  0.0279 -0.2883
26659W        W42276  12.305   0.697   1.516 -0.1407 -0.0422 -0.2821
26660W        W42277   4.178  17.650  12.494 -0.0740  0.0665 -0.0877
26661W        W42278  15.901   3.105   0.160 -0.1355 -0.2285  0.0017
26662W        W42279   3.836  12.873  14.512 -0.1183  0.2107  0.2571
26663W        W42280  10.687   1.932   1.600  0.0016 -0.1146 -0.2288
26664W        W42281  15.574  16.170   4.474  0.0988 -0.2167  0.2692
26665W        W42282   9.505   1.086   1.933  0.1586 -0.2799  0.0231
26666W        W42283   4.745   6.513   5.690  0.0547  0.2339  0.0206
26667W        W42284   9.242   6.886   2.410 -0.0059  0.1073  0.3183
26668W        W42285   5.168  15.895  15.214  0.1203  0.1393  0.0821
26669W        W42286  11.713   3.974  14.456  0.0931 -0.3802  0.1955
26670W        W42287  18.218  14.510   1.440 -0.0161 -0.3270  0.1219
26671W        W42288  17.185  16.116   5.265 -0.0621  0.1702  0.1766
26672W        W42289  18.141   5.969  15.149 -0.1171  0.0435 -0.3084
26673W        W42290   0.203  14.736   0.564  0.1723 -0.0841 -0.0946
26674W        W42291  10.546   5.948  12.460  0.0521 -0.1173  0.1045
26675W        W42292   9.054  16.205   5.259  0.0676  0.1257  0.0216
26676W        W42293  16.397  10.735   3.492  0.1400  0.2066  0.0432
26677W        W42294   4.397   1.322   3.482 -0.1964 -0.1481  0.0209
26678W        W42295   6.713   0.663  12.444 -0.1033  0.0278 -0.0298
26679W        W42296  15.232  17.818  11.385 -0.1925 -0.1729 -0.0730
26680W        W42297   9.645   6.878   1.483 -0.3401  0.1068  0.0427
26681W        W42298  18.285  10.618   4.479  0.3594  0.0201  0.0081
26682W        W42299   9.293   0.570   1.700 -0.1344  0.3266 -0.0569
26683W        W42300   0.261   0.819  13.443 -0.2949  0.1468  0.1110
26684W        W42301  10.396   9.110   3.661 -0.1226 -0.1050  0.2627
26685W        W42302  13.052  16.472  13.146  0.0926  0.1147 -0.2070
26686W        W42303  17.369   5.654  13.892 -0.2730 -0.3808  0.3927
26687W        W42304   5.665   9.195  12.632 -0.0527 -0.0596  0.2206
26688W        W42305   1.434  17.795  13.634 -0.1218 -0.2504  0.1177
26689W        W42306   7.686  15.493   1.469 -0.4609 -0.1309 -0.1246
26690W        W42307  14.239   7.382  11.362 -0.0082 -0.0649 -0.0156
26691W        W42308  15.980   2.315   4.496 -0.0507  0.1454 -0.2858
26692W        W42309  14.973  17.758   1.132  0.3521 -0.3548 -0.0148
26693W        W42310   0.024  12.375   2.776  0.2291  0.4670  0.1808
26694W        W42311  14.296   8.377   2.661 -0.0745 -0.1714  0.3501
26695W        W42312   3.785   4.095  10.843  0.0886  0.1201  0.2887
26696W        W42313  15.885   8.895   2.186 -0.1987 -0.2005 -0.1205
26697W        W42314  15.177   6.717  13.175 -0.1518 -0.1014 -0.0323
26698W        W42315   5.386  10.464   2.560 -0.0354  0.3124  0.1786
26699W        W42316   4.476  10.683   3.032  0.0289 -0.1379 -0.2433
26700W        W42317   7.733   5.894   3.360  0.1322  0.1169  0.2247
26701W        W42318   9.766   7.206   2.318  0.1502 -0.3694  0.1556
26702W        W42319  10.375   0.056   2.146  0.0622  0.1783  0.0160
26703W        W42320  12.823   9.923  12.832 -0.5123 -0.0100 -0.2632
26704W        W42321  14.456   7.461  12.011  0.1323  0.0213 -0.0112
26705W        W42322  10.908  18.033  13.263  0.0033  0.1759 -0.1932
26706W        W42323   9.088  12.705   4.237  0.0741 -0.0317  0.0651
26707W        W42324  12.305   3.319  10.822  0.1179 -0.1364  0.0008
26708W        W42325  15.764  11.680  13.358  0.0762 -0.1796 -0.1487
26709W        W42326   2.727   0.268   0.898 -0.0110  0.1045 -0.1414
26710W        W42327   6.260  14.645  14.252  0.0368 -0.1754  0.0917
26711W        W42328  11.006   1.429  11.097  0.1474  0.1584 -0.2334
26712W        W42329   2.231   9.229   1.941  0.0395  0.2637 -0.0352
26713W        W42330   8.125   0.876   5.318 -0.0322 -0.1191 -0.2602
26714W        W42331   7.473   1.840  13.887 -0.0798 -0.2073 -0.0115
26715W        W42332  13.226  17.002   4.499 -0.1345  0.0567  0.0883
26716W        W42333  16.971   0.672   4.414 -0.2620  0.1488  0.2020
26717W        W42334  17.056  11.238   1.344  0.0548  0.1378  0.0169
26718W        W42335  16.263  16.503   3.419  0.0226 -0.1324 -0.0054
26719W        W42336   8.984  12.247   5.162  0.0707  0.4333  0.1305
26720W        W42337   8.596  16.191   0.062  0.1322 -0.1852 -0.1759
26721W        W42338   0.214   5.551  12.454 -0.2984 -0.0532 -0.1886
26722W        W42339  10.456  12.594   0.859  0.0656  0.1576 -0.0964
26723W        W42340  18.032   6.204   4.915 -0.1933 -0.3915  0.3551
26724W        W42341   3.233  13.230   2.635  0.2053 -0.0217  0.0709
26725W        W42342  14.542   9.411   3.805 -0.0438  0.1666 -0.0167
26726W        W42343   5.389   6.929  13.375  0.0777 -0.0064 -0.1035
26727W        W42344   1.047  10.104   4.485 -0.2490 -0.0152  0.1360
26728W        W42345   4.454   2.696   5.362 -0.2786 -0.2448 -0.2401
26729W        W42346  13.347   5.933   0.763 -0.4270 -0.2762 -0.1110
26730W        W42347   0.469   8.695   4.620  0.1336  0.4723 -0.1058
26731W        W42348  13.368  17.653   5.202 -0.1372 -0.0755  0.2536
26732W        W42349   2.933   9.618   0.237 -0.0750 -0.2087  0.2027
26733W        W42350   7.477  14.056  13.586  0.1199  0.2017 -0.1157
26734W        W42351  12.312  15.352  11.832  0.5011 -0.2429  0.1448
26735W        W42352   5.288   4.737  13.559 -0.2930  0.0491  0.0688
26736W        W42353   5.125   6.979   4.241  0.1838 -0.0693 -0.0229
26737W        W42354  17.142  16.045  13.235 -0.4242 -0.1061 -0.3480
26738W        W42355   6.493   7.913  11.045  0.0932  0.0766  0.2032
26739W        W42356   7.241   3.611   2.596 -0.0349  0.1906 -0.0878
26740W        W42357  14.501   4.022   5.293 -0.0564  0.0746  0.2798
26741W        W42358  16.980   4.129   2.529 -0.0864  0.0387 -0.2645
26742W        W42359  18.436  15.803  15.701 -0.1925  0.3851 -0.0983
26743W        W42360  13.332  15.605   5.176 -0.2725  0.0860 -0.0691
26744W        W42361  12.575   2.615   0.449  0.0503  0.0805 -0.0845
26745W        W42362  10.666   6.643   4.240  0.2563  0.1672 -0.0863
26746W        W42363  12.447   2.211   3.831  0.1824 -0.0890  0.0256
26747W        W42364  10.540   6.818  12.327 -0.0755 -0.1154 -0.1256
26748W        W42365   6.253  15.237   1.324 -0.0288  0.3151  0.3851
26749W        W42366   7.234  18.169   3.916 -0.1934 -0.1010  0.1773
26750W        W42367  16.259   0.586   4.057  0.0389 -0.0063 -0.0415
26751W        W42368   8.182  13.877  11.627 -0.0411 -0.1181 -0.2041
26752W        W42369  10.700  17.574   2.610 -0.2064  0.0723 -0.0569
26753W        W42370  11.647   5.465  14.849 -0.3889 -0.0041 -0.1682
26754W        W42371  17.783  12.810  11.269  0.1075 -0.0816  0.1837
26755W        W42372  12.581   4.178   4.883 -0.1988 -0.0379 -0.0867
26756W        W42373   7.018   7.594  12.281  0.2145 -0.2024  0.0828
26757W        W42374  11.054  14.895   2.903 -0.2189 -0.0658 -0.0205
26758W        W42375   7.499   5.519   2.322 -0.0934 -0.3089 -0.2189
26759W        W42376  16.171   3.318   3.024  0.1279 -0.0585 -0.1303
26760W        W42377  14.853  11.302  11.070  0.2244 -0.1536  0.1574
26761W        W42378  13.252   2.913   0.950  0.2849  0.3584  0.0611
26762W        W42379   0.086   7.390  15.593  0.1699  0.0730 -0.1559
26763W        W42380   6.758  14.071  14.572  0.1023  0.2481  0.0208
26764W        W42381  14.914  15.348   4.448 -0.2101  0.2104  0.0139
26765W        W42382   7.209  16.024   5.103  0.2788  0.0179 -0.2395
26766W        W42383  15.418   4.892   5.927 -0.1867 -0.3300  0.0289
26767W        W42384  18.162  11.752   1.788 -0.0835  0.1074  0.0251
26768W        W42385  11.092   3.919  10.985 -0.0009  0.0273  0.1576
26769W        W42386   9.401  15.627  14.149  0.4085  0.0485 -0.1286
26770W        W42387   8.311   6.322  12.709 -0.0774 -0.1204  0.3183
26771W        W42388   0.115  18.391  11.591 -0.0030  0.0274 -0.1406
26772W        W42389   3.267   9.769  12.348  0.2172 -0.0859 -0.1794
26773W        W42390   0.389   8.798   0.863 -0.4169  0.2033  0.0633
26774W        W42391   5.312   7.426  13.441 -0.3766  0.1742  0.1452
26775W        W42392   7.145   2.948  13.638 -0.1000 -0.0271 -0.1995
26776W        W42393   8.378   5.815   0.005 -0.3295 -0.0810  0.0245
26777W        W42394  11.115  15.414   2.985  0.2186  0.1753 -0.3841
26778W        W42395   6.745  16.088  12.440  0.0301 -0.1689 -0.0533
26779W        W42396   0.485  13.189   6.242  0.0287 -0.0103  0.1417
26780W        W42397  11.139  12.078   4.715  0.0991 -0.0879 -0.2373
26781W        W42398   1.074  16.042   1.674  0.2330 -0.1834  0.2763
26782W        W42399  11.022   0.627  10.149 -0.1529  0.2804  0.0105
26783W        W42400   2.073   8.138   5.163 -0.1655  0.0495  0.5191
26784W        W42401   9.192  10.217  15.926 -0.4622  0.0912  0.1282
26785W        W42402   7.294   3.469  16.003  0.0066  0.2330  0.1256
26786W        W42403   3.072  10.900  14.468  0.0820  0.0031  0.2146
26787W        W42404   7.720  14.818   5.402  0.2629 -0.3738 -0.2229
26788W        W42405  10.533  15.302  15.991 -0.4133 -0.0057 -0.3046
26789W        W42406   1.089  14.282   3.572 -0.0091  0.0901 -0.0675
26790W        W42407   9.713   6.270  15.373  0.1085 -0.1572  0.1510
26791W        W42408   1.451   5.971  11.291 -0.2138 -0.1727 -0.0607
26792W        W42409  15.936  16.480   5.074  0.1610  0.1585 -0.2231
26793W        W42410  11.476  17.283   3.320  0.1296 -0.0585  0.1208
26794W        W42411  14.649  10.668  13.244 -0.1180  0.0596  0.0715
26795W        W42412   0.055   8.118   1.309  0.4415 -0.2596 -0.1439
26796W        W42413  17.684  16.082   3.302 -0.4680  0.0672 -0.1871
26797W        W42414  15.124  12.935   3.949  0.0665  0.3383 -0.0758
26798W        W42415   9.245   0.445   0.698 -0.1932  0.1206 -0.1303
26799W        W42416   1.768   9.290   2.785 -0.2490 -0.0073  0.0874
26800W        W42417   1.997   8.652  12.116 -0.1404 -0.0013  0.1770
26801W        W42418  10.782  14.809   3.761  0.1344  0.0672  0.4256
26802W        W42419   4.860   8.504   4.328  0.1500  0.1327  0.1361
26803W        W42420   6.965   4.620  12.826 -0.2986  0.4577  0.0878
26804W        W42421  16.460  10.372  11.333  0.1269  0.0460  0.0584
26805W        W42422  10.672  17.199   4.642 -0.0341 -0.3813 -0.2584
26806W        W42423   7.754   1.774  11.227  0.1884  0.0579 -0.2948
26807W        W42424  10.688   5.294  13.362 -0.1577 -0.1432 -0.1561
26808W        W42425  15.280   5.824   1.460 -0.1067 -0.0820 -0.1412
26809W        W42426  10.719  16.013   1.857  0.2040  0.2773 -0.0985
26810W        W42427  13.218  17.440   0.291 -0.1649  0.0849 -0.1450
26811W        W42428   8.587   0.376   5.439 -0.1597 -0.0182  0.3977
26812W        W42429  12.505   1.847  15.689  0.0873 -0.1593 -0.2857
26813W        W42430   4.612  10.180   2.822 -0.4575 -0.1195  0.3098
26814W        W42431  15.352   1.198   1.110 -0.0280 -0.0987 -0.1467
26815W        W42432  13.190   6.635   0.542 -0.4812 -0.2292 -0.0444
26816W        W42433   4.020  14.497   5.239 -0.2810  0.1493  0.1146
26817W        W42434  17.946  16.759   4.327 -0.1306 -0.1180 -0.1383
26818W        W42435   4.706  16.219   2.927  0.1497 -0.1550  0.3248
26819W        W42436   9.476   0.565   2.155  0.0160  0.1800  0.0364
26820W        W42437  11.699  10.401   2.163  0.3950  0.1741 -0.1307
26821W        W42438  16.640   1.956  15.458  0.0588 -0.2025 -0.1100
26822W        W42439  17.936  12.602  14.918 -0.2342  0.2023  0.1904
26823W        W42440  16.636   1.986   5.642  0.1453 -0.1937  0.0863
26824W        W42441  17.289   4.558   2.551 -0.1828 -0.1256 -0.1765
26825W        W42442   9.919  11.303  15.769  0.0369  0.2212  0.3044
26826W        W42443  17.787   3.883   2.713 -0.2052 -0.0143 -0.0224
26827W        W42444  16.784  10.396  13.210  0.2388  0.1208 -0.1502
26828W        W42445   3.692   6.967   2.937  0.1757  0.2660 -0.0666
26829W        W42446   6.378   6.807  13.634 -0.1593  0.0188  0.1679
26830W        W42447  12.024   8.193  14.771  0.0141  0.5271  0.1163
26831W        W42448   1.253   6.103   2.752  0.0788 -0.0842  0.2177
26832W        W42449  15.135   2.963   2.652  0.1002 -0.0482  0.2001
26833W        W42450   4.031  11.813  13.612  0.0980 -0.2332  0.0202
26834W        W42451   7.595   4.013  12.893 -0.1952 -0.0260 -0.0813
26835W        W42452   5.030   3.040  13.234  0.0738 -0.0312  0.1453
26836W        W42453  12.330  13.706   1.607  0.1061  0.1864  0.2890
26837W        W42454  16.065   8.874   3.776  0.1208 -0.0635 -0.1087
26838W        W42455  11.213  13.807  12.631  0.0636 -0.2525 -0.1018
26839W        W42456   5.128   5.262   3.660  0.1901 -0.0891  0.1550
26840W        W42457   2.118   0.217  13.519 -0.1883  0.2003  0.1940
26841W        W42458   0.057  11.686  15.972  0.3675 -0.0780  0.2866
26842W        W42459  17.388  17.236   4.974 -0.2737  0.0846 -0.1479
26843W        W42460  10.612   7.175   0.537  0.0332  0.0753  0.1636
26844W        W42461  13.406  18.330  14.227 -0.0519  0.0439  0.1687
26845W        W42462   1.171  17.716  14.636  0.2539  0.1364 -0.5423
26846W        W42463  18.261   7.517   0.629 -0.1476  0.3974 -0.0639
26847W        W42464   4.514   4.886  14.550 -0.2030  0.3864  0.0140
26848W        W42465   9.463   0.820  15.139  0.2220 -0.0721 -0.3347
26849W        W42466  18.267   2.066   0.770  0.1524  0.0436  0.2096
26850W        W42467   5.873   9.138  13.820  0.1024  0.0226 -0.1517
26851W        W42468   8.440  17.593  15.502  0.0898 -0.0975  0.1876
26852W        W42469   4.233   2.793  15.909 -0.0017 -0.3102  0.1418
26853W        W42470  14.354   9.215  14.301  0.2146 -0.2320 -0.4378
26854W        W42471   5.374   9.232  15.213 -0.0021  0.1343 -0.0923
26855W        W42472  15.319   8.857   0.715  0.0328  0.1403  0.0246
26856W        W42473  15.120  12.726   0.443 -0.0308 -0.0145 -0.2515
26857W        W42474   0.123  12.709  14.890  0.0268  0.2712 -0.2105
26858W        W42475  15.222  11.648   6.061  0.1264 -0.0069 -0.1370
26859W        W42476   6.536  16.387   4.890 -0.0021 -0.0481 -0.3403
26860W        W42477   5.981   4.193  14.857 -0.0490 -0.1722 -0.3020
26861W        W42478  12.707   7.486  13.637  0.1797 -0.0148 -0.1852
26862W        W42479  16.946   0.063  15.640 -0.0971 -0.1174 -0.0027
26863W        W42480   0.059  16.222   1.492  0.2155  0.1332  0.2799
26864W        W42481   5.489   0.743   5.363 -0.0156  0.0930 -0.0745
26865W        W42482  18.327  11.999   0.656 -0.1077 -0.0160  0.0828
26866W        W42483  12.539   5.914  12.374  0.1082  0.1298  0.0329
26867W        W42484  18.144   1.546  12.644 -0.2136 -0.0926  0.4496
26868W        W42485  10.172   2.243   2.836  0.1122  0.2544 -0.0272
26869W        W42486   9.703  12.942  12.743 -0.1388 -0.2501  0.1954
26870W        W42487   4.510  15.690   2.085 -0.0176  0.2891  0.0583
26871W        W42488   4.949   6.569  15.160  0.0435  0.0441  0.1727
26872W        W42489  14.488   2.735  11.140 -0.1016 -0.0445 -0.4915
26873W        W42490   6.228   6.452  13.211 -0.1262  0.0185  0.2973
26874W        W42491  10.524  12.608   0.326 -0.1226  0.0781 -0.1734
26875W        W42492  12.693   1.093   0.702 -0.0792 -0.0322 -0.4029
26876W        W42493   7.383  10.434   2.128  0.1033  0.1045 -0.2102
26877W        W42494  16.745  13.213  13.881  0.0593 -0.1960 -0.1398
26878W        W42495   7.113   0.277   2.115  0.1396 -0.1137 -0.0700
26879W        W42496  12.478   2.049   1.392 -0.2928  0.2562  0.1201
26880W        W42497  18.426   3.812  14.159 -0.1410  0.2031 -0.1090
26881W        W42498  12.407  14.925   4.041  0.1416  0.1513 -0.2058
26882W        W42499  17.835   0.713  13.546  0.2918  0.1164  0.0792
26883W        W42500  11.896  11.339   6.182  0.1582 -0.0730 -0.0232
26884W        W42501  16.688   1.510   1.458 -0.0891 -0.2015  0.0472
26885W        W42502   7.681  15.534   4.246  0.1732 -0.0573 -0.0416
26886W        W42503  11.146   2.573   3.110 -0.1611  0.2958  0.3778
26887W        W42504  12.918  16.243   5.357  0.1462 -0.1499 -0.0674
26888W        W42505  15.003   1.911  12.702  0.1806 -0.1290 -0.2693
26889W        W42506   6.674  17.530   1.312  0.2073  0.0204 -0.1985
26890W        W42507   4.269   0.151   5.343  0.1258 -0.0896 -0.1552
26891W        W42508   0.921   7.380  12.199  0.0191  0.0146 -0.0155
26892W        W42509   8.399   4.343   1.269  0.0690  0.1437 -0.0063
26893W        W42510   7.365  12.349  14.791 -0.1787 -0.4730 -0.2085
26894W        W42511  12.266   9.816   2.834  0.0380  0.1127  0.1594
26895W        W42512  14.517   6.154   5.563  0.1554  0.0730 -0.0991
26896W        W42513   6.665  10.601  15.598 -0.0039  0.1689  0.2818
26897W        W42514   5.859   3.660  11.347  0.0800 -0.1198 -0.0391
26898W        W42515  14.713  10.646   5.016 -0.0531 -0.0964 -0.0986
26899W        W42516  13.915   2.831   2.141  0.0164 -0.1167  0.0823
26900W        W42517   6.971  18.385   4.563  0.0607  0.1250  0.0527
26901W        W42518  15.949   6.827  15.278  0.2619 -0.1140 -0.0745
26902W        W42519   5.551  18.340  15.949  0.1475 -0.2903 -0.2212
26903W        W42520  10.146   9.239   2.372 -0.1787 -0.0877 -0.1404
26904W        W42521  10.128   5.195  15.548 -0.0845  0.2708  0.2914
26905W        W42522  12.039  10.214   1.718  0.1196  0.1019  0.2287
26906W        W42523   5.426  11.785  15.023  0.5018 -0.0471  0.4812
26907W        W42524   5.231   9.572   4.477  0.1550 -0.1228 -0.0192
26908W        W42525   8.115  13.334  13.276  0.1015 -0.0225  0.1945
26909W        W42526  14.369   0.153  14.153  0.2439 -0.1758  0.1193
26910W        W42527  13.927   6.555  10.745  0.4264 -0.2624  0.0223
26911W        W42528   0.011   9.438  15.950  0.1703 -0.0167  0.1578
26912W        W42529   4.748   0.022  11.971 -0.0912 -0.1442  0.0373
26913W        W42530   2.918  16.414   4.757 -0.0122 -0.3061 -0.2860
26914W        W42531  18.121   9.711   6.075 -0.1331  0.0740  0.0611
26915W        W42532   7.355  12.659   2.353  0.0527  0.2452 -0.0532
26916W        W42533  18.096   0.996   4.528 -0.2709  0.0452  0.1055
26917W        W42534  15.441   7.917   4.619  0.1458  0.2311  0.0411
26918W        W42535  12.692   0.432  12.258 -0.3135  0.1002  0.1766
26919W        W42536  10.501   0.401   4.167  0.0661 -0.1595  0.3787
26920W        W42537  17.999  17.667  13.889  0.1126 -0.0931  0.1148
26921W        W42538   0.041  12.717   3.554 -0.1292  0.3334 -0.1158
26922W        W42539  16.188   8.305   0.790  0.0929  0.0511  0.0962
26923W        W42540  17.683   7.567  10.958  0.1115 -0.1979  0.1241
26924W        W42541   9.749  10.760  15.668 -0.1935  0.0353 -0.0356
26925W        W42542   6.819   7.857   1.414  0.0064  0.0935  0.1119
26926W        W42543   0.098   5.793  14.845  0.0279  0.1333  0.0456
26927W        W42544   0.837   3.455   5.775 -0.0874  0.1672 -0.1622
26928W        W42545  12.959  17.026   2.774  0.0765  0.0375  0.2930
26929W        W42546  18.327   7.506  14.311 -0.1461 -0.0165  0.0293
26930W        W42547   3.663   0.861  15.214 -0.1324  0.1708  0.0366
26931W        W42548   6.720   3.153   3.832 -0.2179 -0.1039 -0.2928
26932W        W42549  10.893   7.567  12.064 -0.3523 -0.0842  0.0059
26933W        W42550  10.468   6.808  10.615  0.3211 -0.1693  0.2997
26934W        W42551  16.335  14.476  14.337 -0.0243  0.2778 -0.1416
26935W        W42552  17.507   3.228  11.556  0.0470  0.2045 -0.0477
26936W        W42553   9.163  11.032   2.437 -0.2450 -0.0790  0.1747
26937W        W42554  14.503   9.765   0.606 -0.2923  0.1189  0.0680
26938W        W42555   5.451   7.466  15.833  0.0692  0.1343  0.0083
26939W        W42556   8.303  17.858   3.465 -0.1651 -0.0828 -0.3842
26940W        W42557  11.019  11.202  14.443  0.2324 -0.2189 -0.1665
26941W        W42558  16.859   0.802  11.966 -0.0478  0.2949 -0.2439
26942W        W42559   8.059   4.209  11.047 -0.3307 -0.1728 -0.0623
26943W        W42560  13.862  10.947   3.071  0.1779 -0.0984 -0.3334
26944W        W42561   5.448   5.813   4.203  0.0400  0.0404  0.2911
26945W        W42562  11.817   6.264  14.296 -0.1816 -0.1386  0.2501
26946W        W42563   2.125  13.745  13.290  0.0384 -0.2636 -0.1480
26947W        W42564   5.164  10.313  13.204 -0.1695  0.4295  0.1045
26948W        W42565   7.477   3.243   4.144  0.2102 -0.0680 -0.2609
26949W        W42566   9.813  13.762   5.712 -0.2236 -0.0625  0.4537
26950W        W42567   7.392  15.265   5.669  0.1494  0.4323  0.0496
26951W        W42568   3.522   5.537   2.278  0.2993 -0.0989  0.0785
26952W        W42569  13.021   0.234   1.682  0.1906 -0.0340  0.1798
26953W        W42570   0.784   2.787  11.779 -0.1779 -0.2178  0.1431
26954W        W42571  18.249  15.097   2.375  0.0447 -0.0759 -0.2084
26955W        W42572   4.960  13.562   0.591 -0.1138 -0.3396  0.2617
26956W        W42573   1.352   3.617  12.644  0.2176  0.3369 -0.2406
26957W        W42574   5.544   2.183  15.192 -0.0385  0.3869  0.1486
26958W        W42575   1.591  13.120  12.166 -0.0876 -0.1372  0.1325
26959W        W42576  15.843  15.402   3.926 -0.2125 -0.0637  0.1690
26960W        W42577  11.628   5.639  12.688  0.3722  0.1394 -0.0675
26961W        W42578  11.861   6.203  12.426  0.1382 -0.0627  0.0729
26962W        W42579  12.114   8.370  14.213  0.2494 -0.0317  0.2114
26963W        W42580   3.696   6.673   5.344  0.2038  0.3239 -0.2549
26964W        W42581   5.477  16.084  12.472 -0.0868  0.2109  0.1430
26965W        W42582   3.782  10.221   5.801  0.1533 -0.1523  0.3426
26966W        W42583   4.865  11.276   5.409 -0.4754 -0.6152  0.1730
26967W        W42584   1.641   3.741  13.761  0.1387 -0.2784  0.2225
26968W        W42585  10.459  14.925  12.095  0.3125 -0.2869 -0.0578
26969W        W42586   7.723  14.422  14.692  0.1115 -0.0172 -0.3683
26970W        W42587   3.119  13.703  12.493  0.0579 -0.0219 -0.0134
26971W        W42588   7.030   6.564   1.264  0.0978 -0.4609 -0.2439
26972W        W42589  10.554  10.002   2.021  0.2220  0.0977 -0.0442
26973W        W42590  12.274  18.193   1.680 -0.0273 -0.0844  0.2744
26974W        W42591   4.406   5.217  14.977 -0.3680 -0.0030 -0.1507
26975W        W42592  14.334   7.181  15.344 -0.1172 -0.2188 -0.1146
26976W        W42593   8.539   3.333  14.030  0.1810  0.3652  0.1003
26977W        W42594   3.099  15.716  13.520  0.0022  0.0298 -0.0984
26978W        W42595  14.868  11.089   4.203 -0.1043 -0.0998  0.0758
26979W        W42596  11.959   0.557   2.606  0.4167  0.0606  0.1895
26980W        W42597   4.835   2.175  14.021 -0.0020 -0.4334 -0.1827
26981W        W42598  12.976   5.009   0.430 -0.1435  0.0634  0.4054
26982W        W42599   5.745   3.476  12.871 -0.0489 -0.3248 -0.0095
26983W        W42600   6.372   3.471  14.978  0.0793  0.0405  0.1345
26984W        W42601   1.315  11.560   0.575  0.2831 -0.0156  0.1218
26985W        W42602  11.565   0.816  13.665  0.1792  0.1005  0.1091
26986W        W42603   6.805   6.602  15.474 -0.0014  0.4528  0.3954
26987W        W42604  14.495   9.933  12.600 -0.1994  0.0941  0.1599
26988W        W42605   4.774  11.971  15.409  0.1235  0.0646 -0.2496
26989W        W42606   8.244  10.174  13.665 -0.0181 -0.3208 -0.1032
26990W        W42607  12.906   7.059  14.318 -0.0043  0.1560  0.2841
26991W        W42608  13.609   0.074   1.563 -0.3645 -0.2677 -0.5088
26992W        W42609   7.931  16.570   3.433  0.2105 -0.1248 -0.0113
26993W        W42610  17.455   4.730  13.070  0.2250 -0.1050 -0.3911
26994W        W42611  14.402   3.782   1.467  0.1807 -0.2633 -0.0606
26995W        W42612  18.385  16.622  12.451  0.2913 -0.0285  0.1298
26996W        W42613  12.046  13.160  14.953  0.1407  0.2655  0.5167
26997W        W42614   6.532  13.867   4.625  0.3095  0.1850  0.0173
26998W        W42615  15.906   3.715  15.455  0.0361  0.2581 -0.1031
26999W        W42616   9.383   6.777  11.259 -0.1301 -0.1601 -0.0554
27000W        W42617  11.605   2.196   4.198 -0.1096 -0.1957 -0.2182
27001W        W42618   9.611   6.354  11.097  0.1850 -0.1317  0.1376
27002W        W42619   7.805  12.413  14.376  0.1882 -0.2563 -0.0072
27003W        W42620  13.745   6.929   0.381 -0.0077  0.0728  0.1585
27004W        W42621   1.903   4.132   6.266 -0.0945  0.1371  0.2511
27005W        W42622   0.256  13.137  14.000 -0.1325 -0.1985  0.2268
27006W        W42623   7.429  10.588   2.607  0.0817  0.0515 -0.1410
27007W        W42624  14.011  18.029   4.225 -0.0321 -0.0234 -0.0425
27008W        W42625  14.626  13.027   3.736 -0.3230  0.1973 -0.0455
27009W        W42626   9.108   6.880   0.338 -0.0255  0.0161  0.0453
27010W        W42627   1.035   6.247   4.046 -0.0541 -0.0297 -0.1728
27011W        W42628  10.393   1.027  13.113  0.0774 -0.1778  0.0640
27012W        W42629  14.398   5.962  10.928  0.0616  0.2681 -0.0219
27013W        W42630   2.459  12.252   4.556  0.1612  0.2462  0.2836
27014W        W42631   1.299   7.040   3.535 -0.2044  0.1483  0.0170
27015W        W42632   7.070  13.660   6.622 -0.1144  0.3930  0.3706
27016W        W42633   3.735  16.786   3.801  0.0810 -0.0993 -0.1951
27017W        W42634  13.679   2.193  13.497 -0.0743  0.0599  0.2403
27018W        W42635   1.164  11.169  12.087  0.2783  0.2229  0.1894
27019W        W42636  15.145   5.230   3.325  0.1606  0.4133  0.0967
27020W        W42637  14.160   1.447  13.992 -0.3945 -0.0463  0.1148
27021W        W42638   9.420   8.097   3.238  0.1296  0.1247  0.5143
27022W        W42639   9.379   3.996   1.247 -0.0603  0.0507 -0.1042
27023W        W42640   5.896  10.262   2.687 -0.0844 -0.0286 -0.1918
27024W        W42641  15.566  18.375   3.252 -0.1111  0.0015  0.2525
27025W        W42642   9.352   1.621   3.649  0.0213  0.2124  0.0464
27026W        W42643   1.556   3.510   0.138 -0.0673 -0.1232  0.1217
27027W        W42644   3.120   7.493   1.029  0.2506  0.2113 -0.0282
27028W        W42645   3.928  15.804   3.706  0.2278  0.0802 -0.1571
27029W        W42646   4.542   7.296  11.796 -0.0224  0.2706  0.2266
27030W        W42647  13.795   9.040   1.482 -0.0697 -0.0053 -0.1905
27031W        W42648   4.761   0.475   3.800 -0.1252  0.0713 -0.0198
27032W        W42649   1.982  12.395   3.094  0.2243 -0.3284  0.0488
27033W        W42650  12.465  16.324   4.000  0.0091 -0.1232 -0.1188
27034W        W42651   0.314  14.402   3.978  0.0691 -0.0196  0.2991
27035W        W42652   4.277  11.697   2.016  0.1648 -0.0800  0.5139
27036W        W42653   7.384   2.309   3.171 -0.2239 -0.0593 -0.3733
27037W        W42654  15.780   9.779   3.347  0.2056 -0.2038 -0.0147
27038W        W42655   1.316  16.490   0.950  0.0396  0.2389  0.4149
27039W        W42656   6.582  12.091  15.149  0.1012  0.0327 -0.7409
27040W        W42657  13.351   5.641   4.331 -0.1516  0.0158  0.0244
27041W        W42658  15.769   9.448  13.801  0.3377  0.0191  0.5211
27042W        W42659  11.441   9.247   0.954  0.0674 -0.4093 -0.0539
27043W        W42660   1.197  13.573  12.262 -0.1857  0.0151  0.3077
27044W        W42661  16.208   8.822  11.411  0.1707  0.1464 -0.0845
27045W        W42662   3.904   5.849  10.785  0.0500 -0.3534  0.1586
27046W        W42663   7.167   9.513  12.984 -0.1222 -0.0784 -0.0272
27047W        W42664  10.107   6.931  13.539  0.0607  0.2007  0.0650
27048W        W42665  12.879   4.236   2.993 -0.2870  0.0733  0.3189
27049W        W42666  11.483   3.557  11.037  0.2425 -0.0584  0.1493
27050W        W42667   3.269   9.333  14.575 -0.0912 -0.1739 -0.2618
27051W        W42668  14.323   6.989   0.421  0.0523  0.1343  0.2093
27052W        W42669   6.931  14.202  13.621 -0.0124  0.0445  0.3250
27053W        W42670   1.390   8.822  13.208  0.2972 -0.0552 -0.0551
27054W        W42671  11.134  17.163   1.233 -0.4766  0.1329 -0.0647
27055W        W42672  15.859   6.942   1.481  0.2406 -0.1873  0.1175
27056W        W42673   4.975  14.432  11.602  0.1008 -0.1491 -0.0909
27057W        W42674   7.945   3.569   4.083 -0.3841 -0.0497  0.1363
27058W        W42675   2.115   6.829  14.067  0.4376 -0.0796  0.0159
27059W        W42676   5.404  13.727   6.083  0.1370  0.1213 -0.0459
27060W        W42677  18.388   8.671   2.636  0.4447 -0.2268 -0.0428
27061W        W42678  10.835  17.204  11.610 -0.2670 -0.1571 -0.0726
27062W        W42679   7.774   5.043  11.274  0.2009 -0.3459  0.0838
27063W        W42680   2.249  18.094   6.108 -0.1493  0.2463 -0.0726
27064W        W42681  12.811  15.633  12.862 -0.2389 -0.1368 -0.0038
27065W        W42682   8.954  10.945   1.993 -0.0118  0.0848  0.1858
27066W        W42683  12.319   2.205   2.896  0.0015 -0.0904 -0.0560
27067W        W42684   9.996  12.428  15.138  0.1809 -0.0903 -0.0884
27068W        W42685   7.713  16.787   4.292  0.4030  0.2934  0.0823
27069W        W42686  10.440   7.000  13.914  0.0937  0.1140 -0.0132
27070W        W42687   9.048   5.104   4.479  0.1076 -0.0491 -0.0124
27071W        W42688   0.759  14.888  10.637 -0.0667  0.4000  0.2763
27072W        W42689  17.944  11.936  10.595  0.0335  0.0077 -0.0318
27073W        W42690   0.455  17.539   4.095  0.4797 -0.0668 -0.1035
27074W        W42691   6.047  11.059  14.386 -0.2132  0.0758  0.2248
27075W        W42692  11.792  17.586   0.696 -0.0513  0.1439 -0.2904
27076W        W42693   3.328  15.591   1.675  0.1286  0.1496  0.3868
27077W        W42694  10.860   9.347   3.421  0.0761  0.2146  0.0938
27078W        W42695  14.503   3.241  12.819 -0.3489  0.1374 -0.1751
27079W        W42696   8.997   9.297  14.205 -0.1769 -0.3164  0.1889
27080W        W42697  16.291  12.227   3.632  0.1139 -0.0148  0.0360
27081W        W42698   9.086   7.346   4.133 -0.0990  0.0790 -0.2726
27082W        W42699  11.148  14.419  14.674  0.1592 -0.1695  0.3487
27083W        W42700  11.898   7.009  13.591 -0.1264 -0.1393  0.1170
27084W        W42701  11.743   2.999  13.339  0.2600  0.3239  0.1849
27085W        W42702  16.158   2.345  10.394  0.3375 -0.0795  0.0364
27086W        W42703   6.739  11.653  15.477  0.0637 -0.1168  0.0941
27087W        W42704   9.862   7.525   3.525 -0.0964  0.3295 -0.1920
27088W        W42705  16.957  13.793   6.048 -0.4176 -0.1127 -0.5800
27089W        W42706   1.410   8.948   3.768 -0.0864  0.0820  0.4012
27090W        W42707  12.921   2.500  13.887 -0.0030 -0.4812 -0.0292
27091W        W42708  17.949   3.799   0.682 -0.1885  0.4066  0.0996
27092W        W42709   9.014   5.378   4.912 -0.0358  0.0015 -0.3257
27093W        W42710   6.774   9.824   4.050  0.1213  0.0162  0.3081
27094W        W42711   9.427  10.892   4.130  0.1411  0.1344 -0.0196
27095W        W42712  12.548   0.144   2.436  0.0904  0.0055  0.0160
27096W        W42713   9.458   9.152  11.537  0.0422 -0.2390  0.2245
27097W        W42714   6.394  17.749  14.268 -0.1047  0.1726 -0.0417
27098W        W42715  17.697  16.183   1.963 -0.1388 -0.0459  0.3881
27099W        W42716  13.761  10.267   4.659  0.2614 -0.2236  0.1822
27100W        W42717   2.965  16.135   3.559  0.0199  0.0985  0.1274
27101W        W42718   9.307  14.915  16.051 -0.3837 -0.2053  0.0900
27102W        W42719  11.144  14.407   3.800 -0.1644 -0.1568 -0.0907
27103W        W42720  14.062   3.425   4.797  0.1978  0.1415  0.1106
27104W        W42721  14.113   9.847  14.892  0.1218 -0.1271 -0.0108
27105W        W42722  12.448   3.744   1.018 -0.0603  0.0112  0.0029
27106W        W42723  10.930  10.368   1.856  0.0773  0.1851  0.0930
27107W        W42724   8.763   3.985  13.168  0.0821  0.2875 -0.0431
27108W        W42725   5.686   7.540  12.682  0.3051 -0.2824  0.0579
27109W        W42726   1.716  13.296   2.757 -0.0656  0.1558  0.1025
27110W        W42727   2.851  13.032   0.809  0.4550 -0.3169  0.2659
27111W        W42728  17.674  13.204   0.380 -0.0057 -0.0572 -0.3177
27112W        W42729   4.833  17.571   3.218  0.1730  0.0640 -0.3578
27113W        W42730   8.697   3.889  14.877 -0.2096  0.1538 -0.0229
27114W        W42731  17.405  13.818   3.004  0.2642  0.1511  0.0605
27115W        W42732  17.296   4.086   0.639 -0.0838 -0.1634 -0.1888
27116W        W42733   1.497  14.555   0.236 -0.0464 -0.0049 -0.0848
27117W        W42734  16.549   9.405   4.296  0.2475  0.2320  0.2633
27118W        W42735   8.560   4.289   3.976  0.2539  0.0090 -0.4007
27119W        W42736  12.105  11.037   4.284 -0.0460  0.0225 -0.1264
27120W        W42737  16.903   6.273   4.266 -0.1718 -0.0412  0.3420
27121W        W42738  11.877   5.121  11.517 -0.3014 -0.3135  0.2730
27122W        W42739   3.753  15.177  12.974 -0.1348 -0.2294 -0.2120
27123W        W42740   8.582  17.564   3.810 -0.2785  0.1255 -0.4521
27124W        W42741   3.776   8.467  15.798 -0.2581 -0.0106  0.3330
27125W        W42742   5.516   1.283   2.007  0.2479 -0.0424  0.1155
27126W        W42743   6.353   4.443   3.081 -0.1467 -0.0083 -0.1263
27127W        W42744  15.988  11.502   2.989 -0.0416  0.2679  0.0607
27128W        W42745  12.653  17.832   2.404 -0.0196  0.0025 -0.0801
27129W        W42746   2.554   0.098   0.042  0.0106 -0.0758  0.0243
27130W        W42747   2.927   1.180   1.603  0.1609 -0.2623 -0.0319
27131W        W42748  16.891  18.228  12.669  0.3994 -0.1385  0.0789
27132W        W42749   0.626   8.874   5.411 -0.2503 -0.5573 -0.0961
27133W        W42750   2.558  17.835  13.200 -0.3414  0.0826  0.1143
27134W        W42751  14.740   9.690   2.075 -0.2879 -0.2422  0.0603
27135W        W42752   9.139  18.181  14.756 -0.2530  0.0472 -0.1375
27136W        W42753   4.110   3.929  14.749  0.1227  0.0112 -0.2993
27137W        W42754  13.164   0.778   1.911  0.0998  0.0321  0.1429
27138W        W42755  18.445  13.764   0.845 -0.0448  0.1944 -0.4250
27139W        W42756   9.372   1.878  11.024  0.0466 -0.0499  0.0158
27140W        W42757   4.365   4.835  13.528  0.0672  0.0553 -0.1557
27141W        W42758  11.163  17.343   5.385 -0.0238 -0.2131  0.3279
27142W        W42759  12.232   9.410  15.349  0.0470 -0.1141  0.3719
27143W        W42760   1.115  13.304   5.627 -0.2000 -0.1926  0.0079
27144W        W42761  17.813  12.629  14.118 -0.1236  0.1630  0.0803
27145W        W42762   5.801   0.643   2.046  0.0558 -0.2612  0.1828
27146W        W42763  11.708  10.366   5.885  0.2359 -0.0766 -0.0571
27147W        W42764  11.921   7.193  12.028 -0.1074 -0.0385  0.0170
27148W        W42765  14.110   3.444  11.369  0.0617  0.1745 -0.0959
27149W        W42766   0.967   1.710   3.023 -0.1220  0.2855 -0.1839
27150W        W42767   9.656  10.805  11.466 -0.1057 -0.2013  0.2104
27151W        W42768  11.462   9.404  11.340  0.1671 -0.1441  0.2415
27152W        W42769  15.706  11.243   5.531  0.1475 -0.1299 -0.1143
27153W        W42770  12.730  12.873  10.231 -0.0123 -0.0982  0.0438
27154W        W42771  11.859  10.655   4.377 -0.0065  0.1807  0.2500
27155W        W42772  11.220   5.273   5.837  0.0611  0.0260 -0.2130
27156W        W42773   5.724   0.040   1.129  0.3106  0.2351 -0.1871
27157W        W42774  16.914  13.357   5.189  0.2738  0.0124 -0.1372
27158W        W42775   6.268   0.482   4.152  0.0900  0.0078 -0.0629
27159W        W42776   0.633   7.875  14.091 -0.1720 -0.2668 -0.0483
27160W        W42777  10.524   8.566   0.951 -0.1016  0.2167  0.1680
27161W        W42778   4.117   9.626  14.782 -0.0863  0.2250 -0.1518
27162W        W42779  10.351  13.396   5.010 -0.2479 -0.0929 -0.0071
27163W        W42780   4.302   0.341   4.721  0.1959  0.2872 -0.3302
27164W        W42781  14.325  16.267   3.916 -0.0913  0.5998 -0.0424
27165W        W42782   2.790   3.225   1.128  0.0150 -0.0021 -0.2528
27166W        W42783   2.789   6.479   4.275  0.2444  0.2235 -0.0316
27167W        W42784   9.471  13.673   2.947  0.2592  0.1120 -0.0779
27168W        W42785  10.346   1.582   2.643  0.0999  0.3434  0.1268
27169W        W42786  10.000   9.623  15.256 -0.1213 -0.1440 -0.0653
27170W        W42787   0.724   8.252   3.879 -0.2240  0.0468 -0.0129
27171W        W42788  14.507   0.491   1.735  0.1676 -0.2476 -0.2085
27172W        W42789  12.786   2.227   2.095  0.1452 -0.0712  0.0026
27173W        W42790   8.480   1.779  15.979  0.0553 -0.0442 -0.0960
27174W        W42791   2.937   5.141   0.533  0.5913  0.2890 -0.2343
27175W        W42792   2.969  12.008  15.182  0.3633 -0.1842  0.1692
27176W        W42793  14.365   1.607   6.054 -0.1160  0.0127  0.0219
27177W        W42794  16.961   6.782   4.477 -0.1258 -0.0309 -0.2072
27178W        W42795   1.353   3.101   5.001  0.2525  0.0628  0.0901
27179W        W42796   8.798   6.429   2.934 -0.2629  0.3761  0.0546
27180W        W42797   3.180  13.948  15.999  0.0701 -0.3040 -0.0773
27181W        W42798   6.382   8.883   4.645 -0.0742 -0.2325 -0.0055
27182W        W42799   4.924   6.066   3.296  0.0132 -0.1732  0.0797
27183W        W42800   1.373  16.215   0.440 -0.2140  0.3288  0.0058
27184W        W42801   5.896   2.028   2.501  0.2953  0.1972 -0.1969
27185W        W42802   7.385  12.364  12.031  0.1973  0.0764 -0.0657
27186W        W42803   2.493  10.715   5.595 -0.2257 -0.3038  0.1037
27187W        W42804   5.195   1.289  15.975  0.0856 -0.3418 -0.0864
27188W        W42805   8.007   1.079  14.448  0.3111 -0.4406  0.1780
27189W        W42806   3.350  11.399   2.671 -0.1899  0.0186  0.2155
27190W        W42807   3.455   8.826  13.814 -0.1244 -0.0897  0.0052
27191W        W42808  13.838   8.097  15.127  0.0375 -0.0814  0.0923
27192W        W42809   0.849   3.141  11.408 -0.0673 -0.1991 -0.2120
27193W        W42810  17.768  16.387   2.874  0.0619  0.1037 -0.4801
27194W        W42811  14.907   3.576  14.666  0.0314  0.1162 -0.1499
27195W        W42812   7.681   7.965   5.001  0.1479 -0.2429  0.1981
27196W        W42813   0.859  10.011  14.904 -0.1044 -0.1498 -0.1713
27197W        W42814  10.992   4.879  11.598 -0.2376  0.0537 -0.0162
27198W        W42815  15.774   0.405  13.928  0.1718  0.1327 -0.0811
27199W        W42816   8.949   8.045  13.997  0.1794 -0.0507 -0.1858
27200W        W42817  17.282   1.591  14.766  0.0434 -0.1265 -0.1513
27201W        W42818  12.780   0.725  11.486 -0.0172  0.2543  0.1116
27202W        W42819   1.440   4.141   1.919  0.0358 -0.0937 -0.1979
27203W        W42820  11.331   8.877   1.779 -0.2202 -0.2779  0.0816
27204W        W42821   0.922   3.869   4.408  0.2356 -0.1348  0.1698
27205W        W42822   6.895   2.740  15.188  0.0216  0.0197 -0.1139
27206W        W42823   8.067   2.619  11.309 -0.2325 -0.3647  0.1851
27207W        W42824  10.185  10.894  13.283  0.0482  0.1534 -0.1350
27208W        W42825  17.768   5.387   1.624  0.3450 -0.0974  0.0583
27209W        W42826  14.315   1.936   0.613 -0.1233 -0.1676  0.0473
27210W        W42827  13.073   3.276   1.722  0.3151  0.1772 -0.1821
27211W        W42828   0.705  12.380   0.726 -0.1160 -0.1253  0.2608
27212W        W42829   9.598   0.707   3.425  0.0534  0.0021 -0.0565
27213W        W42830   4.585  13.668   4.849  0.2678 -0.1005  0.0536
27214W        W42831   5.130  17.996   0.727  0.2321 -0.0779  0.1945
27215W        W42832   5.549  17.249  14.630  0.2559  0.2240 -0.1679
27216W        W42833   5.711   3.331   9.947 -0.0218 -0.0701  0.0881
27217W        W42834   3.684   2.721   1.624  0.0840  0.0144  0.0827
27218W        W42835   8.424   1.227   2.565 -0.1248 -0.0646 -0.2215
27219W        W42836  11.850   8.679   4.565 -0.2136  0.2611  0.0573
27220W        W42837  10.008   5.982   3.296 -0.1250 -0.2152  0.0490
27221W        W42838  12.139   8.275   0.332 -0.2481  0.0897 -0.0811
27222W        W42839   9.892  11.023   3.995 -0.3611 -0.1179 -0.1708
27223W        W42840  13.881  11.627  10.841  0.0275  0.0041 -0.3012
27224W        W42841   9.998  15.126   4.936 -0.0080 -0.3350 -0.0919
27225W        W42842   9.881  18.079  12.207 -0.0493 -0.2143  0.1264
27226W        W42843   8.913   0.496  11.448  0.0372  0.3088  0.0675
27227W        W42844   5.095   5.855   2.105 -0.1416  0.3699  0.1977
27228W        W42845  18.117   8.082   2.649  0.0397  0.4222 -0.1017
27229W        W42846   6.548   0.580  11.923  0.0785 -0.0314  0.1305
27230W        W42847  13.031   0.264  11.299  0.2098 -0.2642 -0.1857
27231W        W42848   8.994   2.633   1.767  0.0848 -0.0936 -0.0926
27232W        W42849  11.147  10.084   1.066  0.0923  0.1874  0.2778
27233W        W42850  17.652  16.154   3.814  0.0726  0.3244 -0.1748
27234W        W42851  14.715   3.042   2.433  0.0619 -0.0314  0.0380
27235W        W42852   2.085   2.933  15.961 -0.3035 -0.0308 -0.0073
27236W        W42853   0.946   1.712   5.557  0.2655  0.2160 -0.2746
27237W        W42854  10.863  11.466   4.144 -0.0816 -0.2940  0.0162
27238W        W42855   2.746  17.161  10.771  0.1702 -0.0537 -0.0264
27239W        W42856   4.607   6.438   1.144  0.2870  0.1172  0.1922
27240W        W42857   7.379  13.995  14.538  0.0673 -0.0849  0.0563
27241W        W42858  13.124   2.913  13.991  0.1870  0.1085 -0.2948
27242W        W42859   9.439   1.141   3.457 -0.3121  0.0412  0.0217
27243W        W42860  10.092   7.603  15.722  0.0388 -0.3495  0.2806
27244W        W42861   4.367   0.515   2.864  0.0411 -0.1459 -0.0255
27245W        W42862   4.324  15.097   3.384  0.0343  0.2926  0.2769
27246W        W42863  18.192   5.721   1.848 -0.0272 -0.1685 -0.1905
27247W        W42864   4.016  16.899  14.518 -0.0708  0.2276 -0.0701
27248W        W42865   8.143  13.533   3.057  0.0347  0.0042  0.1105
27249W        W42866   7.460   0.668  11.229  0.0040  0.0838  0.1104
27250W        W42867  16.667  13.155   1.140 -0.2564 -0.2428  0.0417
27251W        W42868  16.755  12.920   3.737 -0.1294 -0.0243  0.0081
27252W        W42869   3.350  16.087  13.303 -0.1372 -0.0137  0.2055
27253W        W42870  17.371   7.614   3.938  0.0997 -0.1671 -0.1197
27254W        W42871   7.333  15.627   3.232  0.0244 -0.0677  0.1013
27255W        W42872   0.996   4.698  15.311 -0.0148 -0.1847  0.2199
27256W        W42873   7.078  13.334   4.368 -0.1531  0.0500 -0.1987
27257W        W42874  12.947   2.236   3.673 -0.1078 -0.1558 -0.0077
27258W        W42875   3.022   0.078  12.315 -0.0164 -0.0627  0.1782
27259W        W42876  13.898  13.421   1.374 -0.1846 -0.1781  0.2035
27260W        W42877   6.868  14.862  12.415 -0.1412 -0.2055 -0.2330
27261W        W42878  15.014   1.001  16.004  0.4057 -0.0589  0.1853
27262W        W42879  13.418   2.926   1.926  0.0020 -0.1445  0.1629
27263W        W42880   2.697  17.473  11.698 -0.0138 -0.1189 -0.1650
27264W        W42881  17.813  10.906  14.252 -0.3375 -0.1441 -0.0767
27265W        W42882   1.281   2.347   2.103 -0.0324 -0.2437 -0.0699
27266W        W42883   0.015  14.536   3.627  0.2620 -0.3238  0.1077
27267W        W42884  16.007  17.359   3.413 -0.1667  0.0090  0.0840
27268W        W42885   4.568  15.932  15.314 -0.1223 -0.0201  0.3121
27269W        W42886  14.260   7.683   3.956 -0.1256  0.0666  0.0103
27270W        W42887  14.816   6.728  14.123 -0.0612  0.0602  0.1996
27271W        W42888   4.608  17.978   1.471  0.1528  0.3773 -0.1337
27272W        W42889   8.723   8.970   1.355  0.0631 -0.2411 -0.0966
27273W        W42890   2.532   2.252  10.251  0.1130 -0.3949 -0.0158
27274W        W42891   5.109   3.811   4.099  0.1370  0.0873 -0.1396
27275W        W42892   4.203   6.271  11.501  0.1984  0.0038 -0.3981
27276W        W42893   7.125  17.180   3.928 -0.0133 -0.2316  0.2631
27277W        W42894  16.276  13.444  15.899 -0.1666  0.1282 -0.0819
27278W        W42895   0.915   3.073   3.296 -0.0131 -0.2084  0.3533
27279W        W42896  14.882   4.569   4.501 -0.2011  0.1577 -0.0470
27280W        W42897   0.477   4.223  12.462 -0.3236 -0.0015  0.3921
27281W        W42898  13.653   8.099   0.860  0.1577  0.1218  0.1252
27282W        W42899   9.957  15.862   4.253 -0.0703  0.0388 -0.5182
27283W        W42900  13.374   1.051  14.188 -0.1845  0.0879 -0.2862
27284W        W42901   6.550   2.277  15.445  0.2466  0.2307  0.0562
27285W        W42902  13.720   6.753   1.319  0.3949  0.0707  0.2620
27286W        W42903  15.256  13.306   4.287  0.0327 -0.3592  0.0008
27287W        W42904   8.016  16.615   5.922 -0.1383  0.1942  0.0083
27288W        W42905   0.431  16.890   5.314 -0.2517  0.0291  0.3086
27289W        W42906  15.149   9.271  11.699  0.0803 -0.1342 -0.1446
27290W        W42907   6.006   4.151   4.579 -0.0774  0.0192 -0.0235
27291W        W42908   3.679   9.431   0.135 -0.0207  0.3478 -0.1114
27292W        W42909  11.620   4.519  13.688  0.2471 -0.0949 -0.2370
27293W        W42910  10.172  11.319   1.804 -0.0887  0.1464  0.0149
27294W        W42911  15.156  12.414   4.739  0.5516  0.0790  0.2063
27295W        W42912  17.574   4.108  11.221  0.2245 -0.0045 -0.6369
27296W        W42913   4.260   6.675  11.039 -0.1976 -0.0637  0.3808
27297W        W42914  10.933   2.177  16.010  0.1322  0.0685  0.2219
27298W        W42915  14.634   9.085  11.968  0.1150  0.2584 -0.1730
27299W        W42916   7.570  13.583  12.473 -0.3111  0.1031 -0.1826
27300W        W42917  17.993  14.553  12.242  0.1181  0.1853  0.0225
27301W        W42918  13.106   7.761  15.431  0.0865 -0.0046 -0.0463
27302W        W42919   1.006   4.039   6.528  0.2372  0.3179  0.2500
27303W        W42920   5.007   3.427  12.625 -0.1035 -0.1987 -0.2269
27304W        W42921  10.035  13.280  12.871 -0.1730  0.3125 -0.1737
27305W        W42922   5.867   3.968  12.774 -0.0142 -0.0446 -0.0154
27306W        W42923   8.874   7.259   1.621 -0.2467 -0.0523  0.3547
27307W        W42924  16.017   9.868  13.647 -0.0952  0.0741  0.0305
27308W        W42925  16.013   9.386   3.049  0.0848  0.2267  0.2682
27309W        W42926  11.596  15.972   0.530  0.0295  0.2193 -0.0768
27310W        W42927  11.777   3.595   4.765  0.1458  0.1260 -0.2044
27311W        W42928  16.053   5.196  12.760  0.0022 -0.1909 -0.0830
27312W        W42929  14.776  12.234  11.216 -0.1867 -0.2027 -0.0955
27313W        W42930   9.566   4.799   1.694 -0.1760  0.2353 -0.2962
27314W        W42931   6.082   2.224  13.096 -0.0126  0.2900 -0.0074
27315W        W42932  18.148   0.153  11.525  0.2612 -0.3789  0.0994
27316W        W42933   7.807   9.673  11.555 -0.0879  0.3500  0.2372
27317W        W42934   3.644   8.021  12.955 -0.2131  0.0782 -0.0654
27318W        W42935  11.504  17.985   0.423 -0.1725 -0.0530  0.1470
27319W        W42936   0.604  15.745  16.091  0.1125 -0.0942  0.2443
27320W        W42937  15.330   0.639  15.912 -0.3088  0.0491  0.1406
27321W        W42938   6.633  10.284  12.688 -0.1138  0.0528 -0.0171
27322W        W42939  11.411   9.620   1.385  0.0741 -0.1766 -0.2208
27323W        W42940   4.808   3.467  13.075  0.3943 -0.3144 -0.0805
27324W        W42941   1.331  18.209   1.226  0.2068 -0.0549  0.1219
27325W        W42942   1.490  13.354   1.907  0.0686  0.0795 -0.0923
27326W        W42943  11.893   1.873  14.358 -0.0834 -0.1907 -0.3271
27327W        W42944  13.958  18.187  12.358 -0.5379 -0.3746  0.1084
27328W        W42945   7.130   1.683   2.899 -0.0205  0.0547 -0.0350
27329W        W42946  17.908  17.661  13.105  0.0150  0.2149  0.3249
27330W        W42947   1.072  13.665  14.182 -0.0091  0.1332 -0.3178
27331W        W42948  16.390   5.892   2.149 -0.0048  0.4968  0.1055
27332W        W42949  15.790  16.652   4.627  0.0350 -0.2297  0.1149
27333W        W42950  14.143   0.902   3.104 -0.0123  0.0279  0.1605
27334W        W42951  17.274   7.671   2.159  0.0466  0.1483 -0.0814
27335W        W42952  13.395   5.108  15.219 -0.1406  0.2448  0.1692
27336W        W42953   3.170   6.810   2.752 -0.5043  0.4681  0.1329
27337W        W42954  14.824  17.004  16.044  0.0527  0.3880 -0.0111
27338W        W42955  17.001   5.811  12.899  0.0510 -0.1236  0.1491
27339W        W42956   0.715  13.279   0.481  0.3933 -0.1907 -0.0306
27340W        W42957   3.555   7.691   1.340 -0.0014  0.0915  0.2572
27341W        W42958  14.752   3.259  13.345  0.1362 -0.0564 -0.2032
27342W        W42959  10.415   7.139  11.094  0.1137 -0.0634 -0.0537
27343W        W42960  10.336   4.090   0.853  0.0090 -0.2584 -0.1215
27344W        W42961  17.091   9.634  14.118 -0.2284  0.0045  0.3102
27345W        W42962  17.853  14.235  15.582 -0.1374 -0.0951 -0.2846
27346W        W42963   5.906   9.038   4.771  0.0536  0.0965  0.0702
27347W        W42964  12.684  16.654  14.145  0.0763  0.1023 -0.0625
27348W        W42965   0.338   4.491  11.203 -0.1561  0.2241  0.0825
27349W        W42966   7.959  10.407  11.454 -0.0329  0.0289 -0.1296
27350W        W42967  11.999  15.274   4.574 -0.1106 -0.1742 -0.0221
27351W        W42968  11.813  16.891   6.520 -0.0728 -0.1549  0.1710
27352W        W42969  13.340  18.239  14.729 -0.1671  0.2693 -0.2688
27353W        W42970   9.533  18.373   1.449 -0.1221  0.1225  0.0747
27354W        W42971  18.390   1.310   2.158 -0.1033 -0.0321 -0.3377
27355W        W42972   4.019   9.609   2.609 -0.2160  0.0515 -0.4063
27356W        W42973  13.813   9.511  13.065  0.0174  0.2635 -0.2219
27357W        W42974   7.475  10.217  15.725 -0.3550 -0.1082 -0.1007
27358W        W42975   0.411  13.946   3.642  0.3750 -0.0934  0.3965
27359W        W42976  17.650  10.954   1.197 -0.2849  0.1133 -0.0749
27360W        W42977   1.120   1.087   6.089  0.0684  0.2059  0.5973
27361W        W42978   1.553   2.551  14.550  0.2057 -0.0946 -0.0438
27362W        W42979  13.306   7.927   3.806  0.2624  0.0712  0.3293
27363W        W42980  12.153   1.186   4.328  0.0750  0.3638  0.0710
27364W        W42981   6.417  11.971  15.635  0.1499  0.0368 -0.0132
27365W        W42982   2.379   8.908   3.304 -0.1891  0.5249 -0.1869
27366W        W42983  15.477  13.378  14.804  0.3109  0.2246  0.0839
27367W        W42984  15.371   5.785  11.534 -0.1305  0.0912 -0.1472
27368W        W42985  10.808   1.598   5.997  0.2978 -0.3622  0.1566
27369W        W42986  14.383   8.316  10.947 -0.2150 -0.0287 -0.1230
27370W        W42987   5.025   2.586   5.092 -0.3302 -0.1108  0.0131
27371W        W42988   0.166   5.201   3.024  0.0973  0.0258 -0.0085
27372W        W42989   0.807  14.605  12.975  0.2298  0.1773 -0.0425
27373W        W42990   0.449  16.071  15.689 -0.2537 -0.1401 -0.0200
27374W        W42991  14.361  18.139   4.650 -0.0317  0.0193  0.0630
27375W        W42992  12.925   4.826   4.990  0.0645  0.0019  0.0361
27376W        W42993   5.906   2.579  14.175  0.2449 -0.0864 -0.0801
27377W        W42994  14.446  18.418  12.431 -0.1162  0.0092 -0.1053
27378W        W42995   6.429   6.297  11.515  0.3412  0.2818  0.0907
27379W        W42996   8.984   9.668  10.947 -0.4800  0.2447 -0.3050
27380W        W42997   3.255  12.022  14.377  0.0402 -0.1744 -0.2192
27381W        W42998  14.463   3.764  12.722  0.2062 -0.1129  0.2105
27382W        W42999  10.378   0.186   3.103 -0.3938 -0.0085  0.3520
27383W        W43000  10.213  10.908  12.159 -0.1656  0.1662  0.0015
27384W        W43001  11.885   8.658   1.635 -0.1019  0.0180 -0.3912
27385W        W43002   8.325  17.617  13.281  0.0182  0.0929  0.2185
27386W        W43003   6.612  16.528   3.942 -0.1643  0.0937 -0.0302
27387W        W43004  10.288   4.560  15.474 -0.2698  0.3417  0.1728
27388W        W43005  15.133  16.789   4.084  0.3865 -0.0203 -0.2101
27389W        W43006   8.204  15.459  11.887 -0.1483 -0.1485 -0.2262
27390W        W43007  18.109  12.424  12.524  0.1977  0.0895  0.0483
27391W        W43008  18.297   4.234   0.186 -0.1858 -0.0463 -0.1240
27392W        W43009   8.474   0.497   4.250  0.1502 -0.0200 -0.1348
27393W        W43010   5.337  10.930  12.963  0.1495  0.1728 -0.0904
27394W        W43011   3.050   9.654  13.569 -0.2175 -0.0414 -0.0357
27395W        W43012  10.312   5.967   1.514  0.0340  0.1009  0.0283
27396W        W43013   5.887   2.417  11.143 -0.1403  0.1543 -0.3004
27397W        W43014   8.840   2.168  13.133  0.0740  0.2298  0.0609
27398W        W43015   6.085  17.381   2.481  0.1263  0.0671  0.1933
27399W        W43016   1.235  10.560   2.328  0.0786  0.0216 -0.0081
27400W        W43017  18.430   3.888   0.578  0.0930 -0.0650  0.0460
27401W        W43018   9.093   6.349   4.102 -0.0730 -0.2152 -0.2944
27402W        W43019  15.296  15.563  16.137  0.0033 -0.1444  0.1664
27403W        W43020  14.274  13.653  11.201 -0.1157 -0.0781  0.0540
27404W        W43021  13.371   9.003   0.717 -0.1351 -0.3491 -0.1080
27405W        W43022   9.813   2.229  15.049  0.0443  0.1409  0.1861
27406W        W43023  11.835   7.518  15.228  0.0291 -0.0182 -0.0914
27407W        W43024  15.078   7.772  14.301  0.3922  0.0569 -0.0992
27408W        W43025  13.953  13.029  14.058  0.1170  0.1566  0.0291
27409W        W43026  15.124   6.724   4.103  0.1025  0.0436  0.1471
27410W        W43027   9.066   7.095  14.109 -0.1865  0.0724 -0.2707
27411W        W43028  16.659  12.973  15.913  0.0041 -0.3820 -0.0148
27412W        W43029   2.644   5.800   3.492  0.0627 -0.1977  0.1067
27413W        W43030   8.460   2.772   0.267  0.3748 -0.0566  0.1092
27414W        W43031  10.394   0.988   0.117  0.4691 -0.1851  0.0035
27415W        W43032   4.395  16.063   0.212 -0.0681 -0.1519  0.1094
27416W        W43033   4.309   8.208  12.136  0.1591 -0.2894 -0.0526
27417W        W43034  16.086   0.480  10.901  0.0697 -0.1305  0.0062
27418W        W43035   0.415  15.067   0.939 -0.0014 -0.1384  0.2023
27419W        W43036  11.756  15.952  13.571 -0.0392 -0.0587 -0.1386
27420W        W43037   4.851  13.945   5.347  0.1261 -0.1205  0.0388
27421W        W43038  13.299   4.618  14.469 -0.0537  0.3612 -0.2069
27422W        W43039   7.877  15.901   6.144  0.0011 -0.0248  0.6001
27423W        W43040  13.174   7.824   0.820 -0.0605  0.0017 -0.1321
27424W        W43041   9.481   9.441   0.277 -0.3199 -0.0785  0.0058
27425W        W43042   9.879  12.231   4.672 -0.0916 -0.0324  0.1426
27426W        W43043   8.956  13.970   3.560  0.0935  0.2234  0.4217
27427W        W43044   5.888  14.153   0.568  0.0348  0.1339  0.1470
27428W        W43045   1.987   8.868   1.127 -0.1705  0.1196  0.1894
27429W        W43046  13.309   3.276   1.258  0.0335 -0.1771  0.3322
27430W        W43047  14.349   9.783   4.913  0.0213 -0.0792 -0.0253
27431W        W43048   9.605  11.790   4.742 -0.0234  0.3775  0.1967
27432W        W43049   0.574  12.555   3.753 -0.0682 -0.1211  0.0548
27433W        W43050   2.083   7.104   0.305 -0.3322  0.0233 -0.0012
27434W        W43051  15.341  16.552  13.841  0.2492  0.2322  0.1300
27435W        W43052  13.853  10.809  15.703  0.0474  0.0893 -0.1086
27436W        W43053  14.446  15.382   3.288  0.1607 -0.1755 -0.2784
27437W        W43054  17.189  13.139   3.523 -0.0676  0.1027 -0.0571
27438W        W43055   1.111   5.949   4.974 -0.0224  0.0920 -0.2925
27439W        W43056   1.105   8.426   1.320  0.1330 -0.0635  0.2688
27440W        W43057  11.415  12.949  13.105 -0.0300 -0.2490  0.0745
27441W        W43058   4.535   4.487   2.708 -0.0265 -0.3043 -0.2026
27442W        W43059  14.987   7.230  13.062  0.0145  0.1061 -0.2791
27443W        W43060   9.605  18.328  14.826 -0.0306  0.2260  0.1363
27444W        W43061   9.845  17.512   5.070 -0.3918  0.0154 -0.2962
27445W        W43062   2.638   5.005   1.768 -0.3517  0.1799 -0.1632
27446W        W43063  15.430   9.109  15.498 -0.1436 -0.2443 -0.0546
27447W        W43064  10.202  14.744  11.746  0.2037  0.2544 -0.2801
27448W        W43065   0.856  15.117  11.993 -0.2316 -0.0133  0.1780
27449W        W43066   5.741   4.450  13.619  0.0838 -0.0937  0.2545
27450W        W43067  13.855  17.613   3.924 -0.1231 -0.1829  0.0950
27451W        W43068  11.025   2.782  15.728 -0.0512 -0.1207  0.2597
27452W        W43069  11.055   5.634   5.123  0.1815  0.0501 -0.3670
27453W        W43070  15.361  10.932   0.711 -0.2004 -0.0531  0.0515
27454W        W43071   3.811  15.027   1.593  0.1054 -0.0908 -0.1300
27455W        W43072   5.762  17.771   2.861  0.1682  0.1142  0.1675
27456W        W43073  17.608   7.811  15.500 -0.0460 -0.0351  0.0845
27457W        W43074   1.028   2.424   1.356 -0.1645 -0.1293 -0.0808
27458W        W43075  10.854  15.005  14.435  0.1992  0.3429 -0.2462
27459W        W43076  15.466   4.280  11.990  0.0311  0.0783 -0.0135
27460W        W43077  10.251   5.901  13.406 -0.0918 -0.0783  0.1692
27461W        W43078  14.551   7.949   4.479  0.1389 -0.1795  0.0921
27462W        W43079  10.651  11.733  13.838 -0.1521  0.0521 -0.2519
27463W        W43080  17.803   5.810  15.890 -0.1391  0.0764  0.0209
27464W        W43081   0.469   0.350  12.679  0.1214  0.0871 -0.0074
27465W        W43082   9.553   3.182  12.552 -0.0115  0.3020  0.0421
27466W        W43083   4.894   3.340  11.673 -0.1089  0.3289 -0.2316
27467W        W43084   1.510  16.626   3.622  0.2259  0.0378  0.1171
27468W        W43085   0.937   6.212  11.188  0.0331 -0.1120  0.0747
27469W        W43086  16.222   5.258  11.365  0.1306 -0.2344  0.3899
27470W        W43087   9.218  17.953   2.776 -0.1129  0.0787  0.0217
27471W        W43088   2.695   4.348   5.079 -0.3660  0.1081 -0.0109
27472W        W43089  17.049   1.797   5.923 -0.1088 -0.0090 -0.0251
27473W        W43090   3.441  17.338  15.822  0.0794  0.1881  0.1203
27474W        W43091   6.726   9.313   0.988 -0.1682  0.2910  0.4390
27475W        W43092  10.358   9.498   3.284 -0.0078 -0.2893  0.0497
27476W        W43093   9.941   7.815  14.805  0.1534  0.0028  0.0423
27477W        W43094   3.101  16.783   4.491  0.1626 -0.2121 -0.1191
27478W        W43095  11.167   0.973   0.436  0.1068  0.2490 -0.0911
27479W        W43096  17.909  15.272   2.992  0.2085 -0.2331  0.1014
27480W        W43097  11.924  10.858  14.635  0.1714  0.0128 -0.1347
27481W        W43098   8.431   4.020   2.058 -0.0183 -0.1807 -0.2835
27482W        W43099   0.336  12.232   4.417  0.1829 -0.0098 -0.0090
27483W        W43100  12.806  15.804   3.449  0.2144 -0.0981 -0.0324
27484W        W43101   7.950  11.737  11.209 -0.4764 -0.2822  0.1723
27485W        W43102   8.560  11.496   0.020 -0.0144  0.0583 -0.2300
27486W        W43103  14.532  12.408  14.301 -0.0042 -0.1764 -0.2583
27487W        W43104  17.066   2.447   0.694  0.0039 -0.0421  0.0140
27488W        W43105   5.017   7.989   2.510 -0.2503  0.0518 -0.0575
27489W        W43106   9.519   2.675  12.359  0.1674  0.1665 -0.0402
27490W        W43107  12.324  11.085  12.957 -0.0832  0.0441  0.1348
27491W        W43108   3.432  15.526  11.701 -0.0601 -0.1817  0.2524
27492W        W43109  12.688  11.839   4.682 -0.0832 -0.0327 -0.0417
27493W        W43110  11.997   0.296   0.527 -0.0782  0.2082 -0.2828
27494W        W43111  18.453  16.911  13.430 -0.0795 -0.1886  0.5005
27495W        W43112   3.390   0.150   1.436 -0.0489  0.2298  0.0197
27496W        W43113   1.771   7.871  13.131 -0.3248 -0.2294 -0.1488
27497W        W43114   7.048   4.515  14.689  0.3844  0.0615  0.0537
27498W        W43115   6.121  16.869  15.276 -0.0855  0.1797 -0.2135
27499W        W43116   0.409  17.843  13.629 -0.1303 -0.1268 -0.1239
27500W        W43117   4.010   9.615   5.054  0.0539  0.1538 -0.0898
27501W        W43118   0.739  13.022   4.667  0.1361 -0.1926 -0.0911
27502W        W43119  11.782   4.150   0.760  0.2050 -0.1695  0.0344
27503W        W43120   6.567  17.159   0.857  0.0735  0.0963 -0.1215
27504W        W43121   5.056   8.528  14.934  0.1631  0.0181  0.0859
27505W        W43122   9.363  15.963  14.893 -0.0409 -0.0485  0.1463
27506W        W43123   3.031   5.556   3.204 -0.1335  0.3797 -0.1711
27507W        W43124   8.424   1.266   0.049  0.2638  0.0335  0.1113
27508W        W43125  17.349   0.679   2.799 -0.3143  0.0843  0.1005
27509W        W43126  11.350  10.066   1.554 -0.3484 -0.0571 -0.0487
27510W        W43127  17.664   0.069   4.784  0.1879 -0.1896  0.0038
27511W        W43128   8.940   8.910  12.236 -0.1920 -0.0820  0.1123
27512W        W43129   4.329  12.096   2.870 -0.0315  0.3299  0.2068
27513W        W43130   1.742  10.215  14.645  0.1034  0.0342 -0.2251
27514W        W43131  17.650   6.414  16.042 -0.1522 -0.0548 -0.1953
27515W        W43132   0.349   4.946   0.956  0.0761 -0.0107 -0.1550
27516W        W43133  14.432  17.027  11.069 -0.1031 -0.0206  0.0168
27517W        W43134   0.564  11.880  16.095  0.3521 -0.4091  0.2906
27518W        W43135  11.222  13.245   2.959 -0.1066  0.1840  0.2304
27519W        W43136   3.870   3.400  14.724 -0.1776 -0.0215  0.0491
27520W        W43137  13.314   7.313  15.882  0.0969  0.3564 -0.1350
27521W        W43138  15.491   8.774   4.185  0.1302 -0.1658  0.0485
27522W        W43139  12.178  14.632  13.442  0.0571 -0.1625  0.0032
27523W        W43140  16.068   1.337  13.534  0.2801  0.0763  0.1327
27524W        W43141   9.663  13.552   0.117  0.2356 -0.0438  0.0818
27525W        W43142   8.832  17.771  12.923 -0.0365  0.2839 -0.0510
27526W        W43143  15.725  14.680  16.027  0.1961  0.3688 -0.0546
27527W        W43144   9.218   7.097  15.617 -0.0285 -0.0865  0.2671
27528W        W43145  12.774   1.669   2.501 -0.2462  0.0861  0.2890
27529W        W43146   0.046   1.499   2.990 -0.1439 -0.1735 -0.0984
27530W        W43147  13.184  16.666   3.282 -0.1581 -0.0586  0.0527
27531W        W43148   1.630  12.166  14.730 -0.0102  0.3952 -0.2116
27532W        W43149   7.115  12.774  12.216  0.2087 -0.0866 -0.0497
27533W        W43150  11.881   0.481  12.779  0.1033 -0.2239 -0.0242
27534W        W43151  16.757   1.130  15.822  0.2454 -0.1558 -0.0332
27535W        W43152  11.651   2.285  10.912 -0.0812 -0.2102 -0.2344
27536W        W43153  14.167   1.375  11.984 -0.2715 -0.1055 -0.0068
27537W        W43154  11.958   6.271   0.870 -0.0822  0.0918  0.0530
27538W        W43155   8.475  14.612   3.872  0.0241  0.1813  0.5989
27539W        W43156   6.110  13.937  15.163  0.3072  0.0911  0.1662
27540W        W43157   1.653   3.164  15.892  0.2093 -0.0069  0.1728
27541W        W43158  18.414   0.761  14.432 -0.0828 -0.0314  0.0523
27542W        W43159   4.613   3.878  16.075 -0.0648 -0.0025 -0.0229
27543W        W43160  14.089   9.858  13.558  0.0045 -0.0422  0.0960
27544W        W43161   9.012  11.577  12.971  0.3214  0.2332 -0.0495
27545W        W43162  11.346   9.205   4.750  0.2407 -0.5620 -0.0269
27546W        W43163   3.867  13.435  15.099  0.2410 -0.3081  0.5456
27547W        W43164  13.299  17.941   2.171  0.0886  0.0607 -0.1115
27548W        W43165  16.570   7.200   5.054  0.2112 -0.0982  0.0333
27549W        W43166   6.692   9.871   6.046  0.3420 -0.3608 -0.2055
27550W        W43167   8.784   2.946  14.922  0.0802  0.1175 -0.0304
27551W        W43168   8.070   7.248   3.156  0.2468 -0.1433  0.0121
27552W        W43169  14.335   4.535   3.689  0.0283 -0.0611 -0.0204
27553W        W43170   7.627   4.342  14.014 -0.1657 -0.2567  0.0484
27554W        W43171   7.696   0.354  14.526  0.0616 -0.0976 -0.0774
27555W        W43172   3.469   3.363  11.670  0.3217  0.1532  0.1370
27556W        W43173   0.459   3.677   4.314  0.1170  0.0279 -0.0153
27557W        W43174   6.645  12.187   5.613  0.2507 -0.1936  0.1295
27558W        W43175  14.622  12.574  13.465 -0.1952  0.0469 -0.0348
27559W        W43176  17.449   6.936  14.003 -0.0696 -0.1328  0.1899
27560W        W43177   1.972  16.269   2.542  0.0391 -0.2438  0.0549
27561W        W43178  16.834  18.030  15.169 -0.1598 -0.3021  0.1810
27562W        W43179   8.819  14.828   5.845  0.1759  0.0894 -0.2694
27563W        W43180  12.767  13.505   2.251 -0.2666  0.1136 -0.4671
27564W        W43181   7.112  16.176   3.923 -0.1736 -0.2499 -0.0889
27565W        W43182   2.067   8.002   4.024  0.1877 -0.0614 -0.1358
27566W        W43183   8.922  17.549   1.659  0.1174 -0.2161  0.0258
27567W        W43184   0.141  10.049  13.751 -0.0957  0.0009  0.0428
27568W        W43185   4.349   8.633  12.889  0.0658 -0.0649  0.1175
27569W        W43186  12.195  16.487   2.612 -0.3526  0.0846 -0.0504
27570W        W43187  11.908  18.420   0.200 -0.1158  0.0494  0.0594
27571W        W43188  15.669  12.891   4.201  0.0235 -0.1383  0.2492
27572W        W43189   1.962   5.686   1.443 -0.2150 -0.1414  0.1429
27573W        W43190   9.218   6.041   1.586 -0.1152 -0.2236  0.2190
27574W        W43191   2.466  12.830  13.528  0.2495  0.0113 -0.3232
27575W        W43192  12.387  16.735   6.473  0.0211 -0.2852 -0.0895
27576W        W43193   3.664  14.586  11.804 -0.1387 -0.0509  0.2330
27577W        W43194   7.791  16.309  14.510 -0.0691  0.0514 -0.1661
27578W        W43195  11.694   8.941   5.007 -0.2787  0.0607  0.1710
27579W        W43196   1.311  13.018   1.586  0.4345 -0.1427  0.0657
27580W        W43197  12.706   7.839  11.117 -0.3246  0.3257  0.5043
27581W        W43198   5.025  14.308  14.336  0.2363 -0.2799  0.0747
27582W        W43199   4.165  11.171   4.702  0.1113 -0.1893  0.2865
27583W        W43200   9.717   3.794   1.911 -0.0110  0.1738  0.0479
27584W        W43201   4.573  10.125   4.178  0.2090  0.0997 -0.1382
27585W        W43202  12.200  14.461   4.826 -0.1313  0.2800  0.1053
27586W        W43203   2.069  15.640   5.481  0.0340 -0.0828 -0.0769
27587W        W43204   2.515   8.556  15.436  0.2393  0.0680  0.0365
27588W        W43205   7.921  15.905   1.623  0.1715 -0.2211  0.1990
27589W        W43206   5.920   1.319  14.767 -0.0009  0.0725 -0.1755
27590W        W43207   4.791   5.038   1.177  0.3050 -0.2351 -0.2667
27591W        W43208   5.771  13.382   0.640 -0.3423  0.0946  0.2497
27592W        W43209   4.441   6.243   4.145 -0.0472 -0.3669 -0.3586
27593W        W43210  15.022  10.669   2.009  0.4161 -0.3587  0.0447
27594W        W43211   8.217  10.769  15.987  0.2510 -0.2964  0.2763
27595W        W43212  13.399   7.488   9.910 -0.5437 -0.3770 -0.1602
27596W        W43213  15.643  17.165   3.090  0.1343  0.1671  0.0553
27597W        W43214   8.064   3.924   0.369 -0.1038  0.0984  0.0328
27598W        W43215   1.778  14.576   4.785  0.5621  0.2596  0.0041
27599W        W43216   5.145  13.347  13.274 -0.2030  0.0084  0.1488
27600W        W43217  12.839   3.139   5.514 -0.4280  0.0907  0.0998
27601W        W43218  14.641   3.921  13.728  0.3118  0.2049  0.1760
27602W        W43219   5.705  17.187  15.209 -0.2074 -0.0528  0.2188
27603W        W43220   8.408   5.417  15.837 -0.0947 -0.0521 -0.3078
27604W        W43221   8.735   4.820  11.299  0.1085 -0.0791  0.2711
27605W        W43222   3.926  16.763   0.780  0.0298 -0.2480 -0.2786
27606W        W43223  15.969   6.090  11.509  0.4194  0.0897 -0.0846
27607W        W43224  16.943  17.185   1.149 -0.0757  0.1922 -0.0218
27608W        W43225   2.258  14.733   0.469  0.2374 -0.2089 -0.2494
27609W        W43226  16.779  12.332   5.500  0.3776  0.2161 -0.0525
27610W        W43227   5.248   9.569   2.313 -0.0383 -0.3668  0.2291
27611W        W43228  16.030  13.359   2.622  0.0672 -0.0884  0.0663
27612W        W43229  11.437  10.555   1.701 -0.1190  0.0933 -0.3892
27613W        W43230  13.604  13.069   1.510  0.1520  0.0892 -0.0567
27614W        W43231   4.729   5.860   2.826 -0.0783 -0.1016 -0.2098
27615W        W43232   9.368   9.122  15.476  0.1562  0.0791  0.0124
27616W        W43233   9.044  17.650  11.396 -0.5272  0.1580  0.1986
27617W        W43234  14.778   4.844   5.058  0.1666 -0.1714 -0.0691
27618W        W43235  14.924  17.063   3.673  0.1259  0.0458  0.1351
27619W        W43236   1.212   3.610   2.710 -0.2461 -0.1151 -0.1869
27620W        W43237   6.128   3.646   9.734 -0.0366  0.0252  0.3926
27621W        W43238   9.703   2.889  13.845 -0.2320 -0.1125 -0.0044
27622W        W43239  16.555   6.446  15.974 -0.0663  0.1910  0.1632
27623W        W43240  13.635   5.197   1.092  0.2671  0.2516  0.0757
27624W        W43241   7.495   6.250   1.132 -0.0574 -0.1191 -0.1377
27625W        W43242  16.266  10.815  12.359 -0.0616  0.0627  0.0752
27626W        W43243  16.447  12.643   3.962 -0.1377  0.0645 -0.0928
27627W        W43244   8.567  11.132  11.329 -0.1004  0.0297 -0.3134
27628W        W43245  14.361   5.182  10.833  0.0279 -0.2595  0.3822
27629W        W43246  12.965   1.542  15.014 -0.0707 -0.4687  0.2471
27630W        W43247   5.464  17.137   1.009  0.1704  0.0345  0.0820
27631W        W43248  17.439   0.195  11.320 -0.1258 -0.1053 -0.0492
27632W        W43249  12.488   0.621   0.452 -0.2177  0.1204 -0.0309
27633W        W43250   9.324  15.429   2.340  0.1872  0.2268  0.2355
27634W        W43251  16.939  18.349   3.045 -0.2603 -0.0373  0.0267
27635W        W43252  17.710  18.191   5.180 -0.2550 -0.1378  0.2097
27636W        W43253  18.380  18.139   3.735  0.0161 -0.1060 -0.0435
27637W        W43254  13.173  11.644   3.374 -0.0496  0.0522 -0.1971
27638W        W43255  17.635   8.118   2.818 -0.0974  0.0226 -0.0334
27639W        W43256  14.412   5.949  14.856 -0.0035 -0.2070 -0.0240
27640W        W43257   9.474  13.622   5.027  0.0232 -0.1950  0.2034
27641W        W43258  10.717   1.235   2.653  0.2203 -0.2990 -0.2698
27642W        W43259  10.787   6.015   0.421  0.0071 -0.1127 -0.2046
27643W        W43260  15.607  10.229   1.989 -0.0482 -0.0219  0.1144
27644W        W43261   0.164   6.862  13.987  0.1994 -0.0469 -0.1176
27645W        W43262  15.292   6.163   4.853  0.2199 -0.0258 -0.0686
27646W        W43263   1.869  17.172  14.187 -0.0019 -0.0698  0.1808
27647W        W43264  10.176   2.039   4.402 -0.0772  0.0135 -0.1801
27648W        W43265   2.002   1.845  14.025  0.0458 -0.1323  0.0333
27649W        W43266  12.843   8.854   0.823  0.0791  0.3904  0.1433
27650W        W43267  15.018   8.197  13.070  0.1435  0.0546 -0.0139
27651W        W43268   0.967   0.493  12.299  0.0850 -0.0357  0.0049
27652W        W43269   6.709  13.770   5.738 -0.3247 -0.0345  0.3554
27653W        W43270  15.014   5.491  16.014  0.0119 -0.2157 -0.1438
27654W        W43271  14.577   6.811   0.840  0.0070  0.0587  0.0710
27655W        W43272  14.889   5.668   0.565  0.0795 -0.1911 -0.0255
27656W        W43273   7.362   8.125   3.436 -0.0634 -0.2608 -0.2319
27657W        W43274   5.192  15.098   2.643 -0.3284 -0.1732  0.1012
27658W        W43275  15.180   2.211  10.795  0.0202  0.0437  0.1871
27659W        W43276   5.241  15.149  14.140  0.0844  0.2560 -0.0307
27660W        W43277   2.341  12.665   5.546  0.0515 -0.1403  0.1393
27661W        W43278   4.120   7.435  13.412 -0.1917  0.3473  0.3463
27662W        W43279   0.089  17.377  15.598 -0.0081  0.0326 -0.1717
27663W        W43280   6.180   0.137   0.224  0.0556 -0.0854 -0.2780
27664W        W43281  17.930   9.220   0.373 -0.2088  0.1836 -0.2508
27665W        W43282   9.841  10.071   0.845  0.0868 -0.1834 -0.0999
27666W        W43283  10.807  12.364  12.751  0.1415  0.0989  0.4649
27667W        W43284   8.816  17.406   5.415 -0.1441  0.0354  0.3030
27668W        W43285  14.547   5.333   9.870  0.0765  0.1507  0.1729
27669W        W43286   8.921  15.311   5.666 -0.1561 -0.1133  0.2985
27670W        W43287   0.312   8.963   3.463 -0.3267 -0.0393  0.1106
27671W        W43288   9.154  10.070  11.893 -0.1770  0.1756  0.0742
27672W        W43289  17.650   4.870   1.748  0.0299 -0.1240  0.1623
27673W        W43290   2.727   2.314   4.469 -0.2955 -0.3755 -0.0156
27674W        W43291   5.480  13.208  12.863  0.1273 -0.0177 -0.0268
27675W        W43292   8.462   4.516   0.768 -0.2621  0.4389 -0.1811
27676W        W43293   0.044   0.361   1.657 -0.1217 -0.1063 -0.0230
27677W        W43294  13.008   6.188   5.186  0.1810 -0.0768  0.0466
27678W        W43295   3.938   5.787   3.636  0.1383 -0.2076  0.2497
27679W        W43296   6.758  11.937   3.707  0.2093 -0.1054 -0.1463
27680W        W43297  16.973   1.974   0.653  0.0462 -0.0925 -0.0950
27681W        W43298  14.876  17.810  15.677 -0.1361  0.0404 -0.2304
27682W        W43299  12.645  18.101  15.336 -0.1245 -0.1933  0.0658
27683W        W43300  10.115   3.707   1.070  0.2549  0.2484 -0.0240
27684W        W43301   0.441  17.014  13.204  0.1136 -0.0182  0.1121
27685W        W43302   1.458  17.527   4.024 -0.1849 -0.2457  0.0439
27686W        W43303   7.676   5.257   1.400  0.2768 -0.1304  0.1713
27687W        W43304   1.330   8.954  14.108  0.0259  0.3307 -0.4669
27688W        W43305   0.617  17.438   3.463 -0.0774  0.2206 -0.0007
27689W        W43306  12.496   1.810  12.201  0.2489 -0.2709 -0.0144
27690W        W43307   6.549   9.388  12.112  0.0647  0.1163 -0.0467
27691W        W43308  11.361  14.955   3.834 -0.1690  0.2734  0.1755
27692W        W43309  14.458   1.680  14.865  0.3706 -0.4447  0.0207
27693W        W43310  14.521  17.203   5.773 -0.0658  0.1033  0.2862
27694W        W43311   3.154  13.575   1.483  0.0544  0.1673 -0.0767
27695W        W43312  12.811   5.119  12.538  0.1722 -0.1171  0.1523
27696W        W43313   3.470   9.913   0.191 -0.0718  0.0214 -0.4707
27697W        W43314  12.590  13.232   4.498  0.0536  0.2544 -0.1416
27698W        W43315   9.811   2.583   1.694  0.1898  0.1041  0.2934
27699W        W43316   6.969   8.482  11.659 -0.0177 -0.0057 -0.1107
27700W        W43317   2.692   4.810   3.056 -0.1473 -0.1997 -0.0178
27701W        W43318   5.725  15.474   5.449  0.1197  0.1562 -0.0312
27702W        W43319  17.704   1.696   5.126  0.0239 -0.0274 -0.0246
27703W        W43320   4.805  11.094  12.240  0.0406 -0.2985 -0.1748
27704W        W43321  17.542  12.976   1.012  0.1068  0.0741 -0.1822
27705W        W43322  15.814  10.755  12.134 -0.0523 -0.0004 -0.2447
27706W        W43323   6.528  15.598   3.485 -0.1877 -0.0471  0.0133
27707W        W43324  14.109   8.232   2.168 -0.0904  0.0635 -0.1749
27708W        W43325  12.976   3.365  11.491  0.0313 -0.0459  0.1087
27709W        W43326   4.488   2.846  11.106 -0.5883 -0.1287  0.1099
27710W        W43327  14.953  16.231  14.154  0.2350  0.0189 -0.0629
27711W        W43328   1.996  15.154   1.195 -0.1068 -0.0830  0.1056
27712W        W43329   2.307   2.890  14.998  0.0751 -0.1789 -0.0857
27713W        W43330  15.498   3.668   3.925  0.0984 -0.0771  0.0242
27714W        W43331   9.643  15.974   3.871  0.1968  0.3538  0.4312
27715W        W43332   7.004   3.606   0.952  0.3582  0.4042 -0.1512
27716W        W43333  17.680   8.867   2.830  0.2861 -0.4224  0.4516
27717W        W43334   1.800  10.682  12.415 -0.1247 -0.4117 -0.0177
27718W        W43335   1.391   3.646   3.944 -0.0019 -0.2247 -0.1916
27719W        W43336  15.981  13.221  14.596 -0.1296 -0.1259  0.1542
27720W        W43337   8.817   3.801  15.956  0.2113 -0.0028  0.0443
27721W        W43338   9.052  17.464   2.900 -0.1673  0.0002 -0.2223
27722W        W43339  13.602   7.437  11.467  0.2617  0.2326 -0.0215
27723W        W43340  16.780   1.709   3.675  0.1955  0.1969  0.3319
27724W        W43341  14.729  15.337   2.079 -0.1037  0.2920  0.0698
27725W        W43342   0.292   9.111   2.469 -0.0028 -0.2362  0.2286
27726W        W43343   3.274   2.665  15.424 -0.0142 -0.3018  0.1693
27727W        W43344  14.639  11.377   2.921 -0.3236  0.4709 -0.0554
27728W        W43345   7.331   6.334  12.788  0.1429 -0.0972  0.1258
27729W        W43346   1.631  13.889  13.041 -0.0850  0.2557  0.0521
27730W        W43347   3.783   1.518   4.683  0.0804  0.1209  0.3067
27731W        W43348   3.748   3.638   3.952 -0.1922 -0.0685  0.0642
27732W        W43349   3.531   8.332   2.581  0.4712 -0.2443  0.3035
27733W        W43350   0.065   6.119   3.328 -0.0244 -0.2490 -0.0240
27734W        W43351   7.271   2.676   2.829 -0.0869  0.3012  0.0984
27735W        W43352   4.125  17.796  13.975  0.1291  0.2005 -0.1335
27736W        W43353  10.631   5.659  10.608 -0.2518 -0.1300 -0.0528
27737W        W43354  15.706   9.031  15.043  0.1595 -0.1295  0.0099
27738W        W43355   4.829  10.830  14.843  0.1247 -0.0053 -0.1486
27739W        W43356  13.161   7.907   2.835 -0.1394 -0.1311 -0.1038
27740W        W43357  15.776   6.525   2.315  0.0235 -0.1855 -0.1532
27741W        W43358  11.452   6.696  15.382 -0.0199  0.2934 -0.0933
27742W        W43359   9.150   6.051   3.658  0.1680  0.1392  0.1363
27743W        W43360   8.113  18.077   0.625 -0.1306 -0.1501 -0.1121
27744W        W43361   2.903  10.340   1.454  0.2224 -0.1107  0.2698
27745W        W43362   9.697   7.884  15.802 -0.1665  0.1730  0.4224
27746W        W43363   7.118  10.477  14.566  0.3716 -0.1393 -0.2622
27747W        W43364   2.722   6.604  14.831 -0.1644 -0.3130 -0.3746
27748W        W43365  15.735   0.123   4.609  0.0456  0.2955 -0.2028
27749W        W43366  15.338   3.315  14.808 -0.2302  0.1096 -0.0900
27750W        W43367  17.929  10.853  15.712 -0.2504 -0.2838 -0.3777
27751W        W43368   4.474  11.044   2.672 -0.4538 -0.2182 -0.2236
27752W        W43369   5.458  10.178  16.065 -0.1971 -0.0860  0.3583
27753W        W43370   2.083  10.077   1.530  0.0662 -0.1098  0.0061
27754W        W43371   5.162  12.276  14.116 -0.1017 -0.0472 -0.0746
27755W        W43372   4.079   3.858  11.192  0.4121 -0.1312 -0.1850
27756W        W43373   7.980  15.656  11.340  0.0748 -0.1159  0.0172
27757W        W43374  13.491  11.673  15.693 -0.2896 -0.2622 -0.1089
27758W        W43375  13.511   7.263   5.461 -0.0842 -0.1617 -0.1057
27759W        W43376  18.333  14.100  13.150 -0.3029 -0.0505 -0.1374
27760W        W43377   5.202  18.099  14.910 -0.1020 -0.1149  0.0220
27761W        W43378  16.908   3.879   4.938  0.2431  0.3829  0.2171
27762W        W43379   7.269   0.551   5.174  0.1981 -0.1885  0.0766
27763W        W43380  10.166   1.573  12.795  0.1677  0.2362  0.0844
27764W        W43381   4.251   9.221   1.517 -0.2991 -0.0105 -0.1719
27765W        W43382   6.709  17.502   4.086 -0.3274  0.2753  0.0430
27766W        W43383  12.223   5.828   1.834 -0.1955 -0.1585  0.0719
27767W        W43384   6.903   8.588  14.422  0.0600  0.1498  0.1167
27768W        W43385   7.952   7.432  11.108  0.1797 -0.1405  0.0184
27769W        W43386  17.969  11.697   2.557 -0.1093  0.0796 -0.2281
27770W        W43387  16.128  13.735  14.184 -0.0440 -0.3204  0.0346
27771W        W43388   1.515  10.602   0.796  0.3279 -0.1174  0.2480
27772W        W43389   7.482   7.451   5.291  0.2764  0.0321  0.0245
27773W        W43390   5.839   8.185  14.326 -0.2740  0.0274 -0.0542
27774W        W43391  17.146   7.188   1.381 -0.2485 -0.0865  0.0639
27775W        W43392   3.179   0.980   4.740 -0.1576  0.3079 -0.4167
27776W        W43393  10.393   2.879   3.862 -0.2584  0.1297 -0.1319
27777W        W43394   8.661  12.302  12.653  0.0425  0.4179 -0.3419
27778W        W43395   2.247   1.433   3.099 -0.2467  0.3678  0.2195
27779W        W43396  15.391   3.042   0.378  0.4118  0.0222 -0.2161
27780W        W43397  13.265   8.811  15.074  0.0090 -0.0936  0.2199
27781W        W43398  16.794  15.924   4.957  0.2443 -0.0055 -0.3466
27782W        W43399  15.903  10.041   0.670  0.1164 -0.0714  0.1348
27783W        W43400   4.485   0.614   5.652  0.0879 -0.1774  0.2112
27784W        W43401   1.449  10.519   4.535 -0.3075 -0.2003 -0.2143
27785W        W43402   3.609   6.480   0.164 -0.1139  0.0920  0.2224
27786W        W43403   2.306   6.685   1.288  0.0328  0.0745  0.0503
27787W        W43404   1.045   3.332  12.919  0.2647 -0.2416  0.0698
27788W        W43405  10.205  13.302  12.096  0.0301 -0.1289 -0.2531
27789W        W43406  15.314  11.969  12.599 -0.1270 -0.0948  0.1012
27790W        W43407   8.115  10.472  13.280  0.2325 -0.1379  0.2752
27791W        W43408  15.553  11.323   0.399 -0.0448  0.2149 -0.2261
27792W        W43409   6.845   8.122  15.119  0.2725  0.0264  0.0119
27793W        W43410  17.755   8.822  10.998 -0.1243 -0.0046 -0.1570
27794W        W43411   1.117   2.710   0.519  0.0360 -0.1296 -0.1651
27795W        W43412   3.544   9.473  15.548  0.2262 -0.1612  0.2989
27796W        W43413  15.081   4.235   3.569  0.2308 -0.1241  0.1036
27797W        W43414   5.118   8.602  11.102  0.1955  0.0756 -0.1306
27798W        W43415  12.461  17.769  12.557 -0.1418  0.2170 -0.3131
27799W        W43416  18.268  11.506   0.663  0.0581  0.1568 -0.0375
27800W        W43417   7.255  11.277   0.195  0.3859 -0.0507 -0.0202
27801W        W43418   9.828   1.670  15.691 -0.1220 -0.3115 -0.1224
27802W        W43419  16.679   3.399  15.828 -0.2892  0.5792 -0.0018
27803W        W43420  14.741   4.877  10.877  0.0604 -0.0385 -0.0970
27804W        W43421   1.419   6.488  13.424 -0.0861  0.0620 -0.1910
27805W        W43422   1.477   0.513  13.542  0.0480 -0.0029  0.4284
27806W        W43423   6.060   5.264  12.391  0.1038  0.1891 -0.0434
27807W        W43424   5.830   2.876   3.866  0.6329  0.0421 -0.2034
27808W        W43425   8.162  16.990  11.606  0.0115  0.2448  0.1073
27809W        W43426  18.380  15.996   4.483 -0.1544  0.1874  0.1477
27810W        W43427   2.252  14.822   4.874  0.2640  0.0047 -0.1135
27811W        W43428  11.378   8.665  15.954  0.1286 -0.0559  0.0351
27812W        W43429   8.281   5.167  13.296  0.3098  0.0989  0.2610
27813W        W43430  14.990   6.162   1.228  0.1430 -0.0023 -0.0445
27814W        W43431  11.730  13.833  14.428 -0.0515  0.3322 -0.1090
27815W        W43432   3.934   7.092   1.997  0.2425  0.2201 -0.2158
27816W        W43433   2.621   9.357  15.988 -0.0856 -0.1735  0.0462
27817W        W43434  15.996   8.437   0.295  0.1708 -0.1134 -0.0150
27818W        W43435   3.325   1.922   4.580 -0.2001  0.1151  0.1180
27819W        W43436   2.565  10.054   1.250  0.1351  0.1919  0.0838
27820W        W43437  13.296   1.238  11.172  0.1636 -0.0436  0.1757
27821W        W43438   0.162   8.278   5.027  0.3225  0.0743 -0.2843
27822W        W43439   6.577   6.774  14.591 -0.0885 -0.3452 -0.0502
27823W        W43440   3.404  15.194   0.768 -0.0261 -0.2562 -0.0700
27824W        W43441   3.987   9.296  14.416 -0.0080 -0.0811 -0.3289
27825W        W43442   1.978   8.616   5.275 -0.0449 -0.0083  0.0363
27826W        W43443   1.873   2.077   2.786 -0.2904 -0.2883  0.2393
27827W        W43444   0.324   8.941   4.040 -0.1855  0.0184 -0.0086
27828W        W43445  14.972  13.369  12.788 -0.0725  0.0573 -0.1505
27829W        W43446  16.114   2.148   2.154  0.0094  0.0043  0.0276
27830W        W43447   6.007  16.965   0.982  0.1543  0.1505 -0.4081
27831W        W43448  13.337   3.882   0.544 -0.0774  0.2447  0.0714
27832W        W43449   8.107  14.969  11.922  0.1082  0.2098  0.2019
27833W        W43450   8.072  15.266   1.261 -0.0994  0.2199 -0.1158
27834W        W43451   0.244  12.222   0.873 -0.3861 -0.1799  0.0258
27835W        W43452   0.719  17.187  10.674  0.0708 -0.0146 -0.0692
27836W        W43453   8.429   9.482   1.843  0.1205  0.1660  0.2441
27837W        W43454   7.924  17.268   1.807  0.0452 -0.2537  0.0532
27838W        W43455  14.473   4.606   1.203 -0.0402  0.0189  0.0147
27839W        W43456   3.767  17.319  13.338 -0.0468 -0.0887  0.0920
27840W        W43457  15.767   2.714   3.344 -0.0064 -0.3536  0.1476
27841W        W43458   1.539  17.440   0.485 -0.1710 -0.1489 -0.0927
27842W        W43459  16.844   5.364  11.173 -0.0648  0.2080 -0.0800
27843W        W43460  12.031   1.791   1.197  0.3776  0.2400  0.0946
27844W        W43461   1.429  15.697   0.367 -0.3530 -0.3724  0.2263
27845W        W43462   5.807  12.417  15.446 -0.3427  0.1653 -0.2655
27846W        W43463  14.256   1.079  11.255 -0.0291 -0.1699 -0.3064
27847W        W43464   1.031   9.523  10.996  0.0638 -0.3364  0.0420
27848W        W43465  17.106   6.181   3.296  0.2202 -0.0751  0.1547
27849W        W43466  18.176   7.191  15.855  0.3429  0.1398  0.1030
27850W        W43467  17.652   9.956   3.274 -0.0139 -0.0135  0.1197
27851W        W43468   0.651   2.639   4.903  0.0770 -0.3208 -0.2432
27852W        W43469   5.468  15.787  13.730  0.3251  0.0595  0.0764
27853W        W43470  11.911  15.099   6.222  0.2465  0.0546  0.0153
27854W        W43471   3.435  17.008  12.201  0.2246 -0.1157  0.0484
27855W        W43472  17.481   0.875   1.098 -0.1343 -0.3650 -0.3747
27856W        W43473   3.733   1.739   1.168  0.1081 -0.2226 -0.3192
27857W        W43474  13.038   4.579  15.603 -0.1074 -0.0612 -0.0974
27858W        W43475  10.591   5.564   1.603 -0.4448  0.2233  0.5581
27859W        W43476  15.842  16.747  16.019  0.3352 -0.3166 -0.2061
27860W        W43477  16.581  17.204   4.840 -0.2271  0.1363  0.1210
27861W        W43478  14.219   5.614  12.776  0.1298  0.1011  0.1700
27862W        W43479  10.408   9.989   2.805  0.0914  0.2429 -0.1042
27863W        W43480   1.505  17.853  10.634 -0.0331 -0.0207 -0.4333
27864W        W43481  10.745   8.920   1.478  0.0632 -0.2887 -0.0413
27865W        W43482   1.680  13.571  12.340 -0.2564  0.1748  0.1186
27866W        W43483   5.693  15.561  13.321 -0.0785 -0.2419 -0.0316
27867W        W43484   9.094   7.983   4.140  0.1507  0.1215 -0.1201
27868W        W43485   8.076   0.860   0.099  0.0470 -0.1370  0.0432
27869W        W43486  18.446  17.125   2.720 -0.0032  0.0064 -0.0768
27870W        W43487   3.201  12.451   0.723  0.0584  0.1998  0.3013
27871W        W43488  14.027  14.240  11.419  0.0544  0.0623 -0.0949
27872W        W43489   1.850  12.816   5.370  0.2228  0.0801  0.1964
27873W        W43490   2.555   6.486   2.642  0.0142  0.0884  0.0721
27874W        W43491   2.228  11.454  14.337 -0.0497  0.0990 -0.2730
27875W        W43492   1.465  10.435   5.570 -0.1598 -0.2202  0.2819
27876W        W43493  12.703   6.955  11.680 -0.0591 -0.0381 -0.0494
27877W        W43494   7.667   8.054  14.617 -0.2848 -0.0265 -0.2531
27878W        W43495   8.422   5.716  11.446  0.1000  0.1175  0.0937
27879W        W43496  16.725   0.754   0.006  0.2237 -0.2408 -0.2289
27880W        W43497   2.408   2.583  14.022  0.0564 -0.0462 -0.2431
27881W        W43498   4.802   5.644   3.655  0.1274  0.1218  0.0882
27882W        W43499  14.148  17.356  13.405 -0.0026 -0.0003 -0.3007
27883W        W43500  14.205   8.450  11.447 -0.1349 -0.2585  0.1497
27884W        W43501  17.050   6.098  13.789 -0.0511 -0.0499 -0.0430
27885W        W43502   5.004   5.886   5.015 -0.0916 -0.0918 -0.1329
27886W        W43503  10.277   9.918   4.928 -0.0075 -0.1199 -0.0918
27887W        W43504  11.268   6.964   3.108  0.2151 -0.0876  0.0272
27888W        W43505   5.425   9.622  15.727 -0.2252 -0.0012  0.1463
27889W        W43506  11.575  16.024  11.614  0.2246  0.3504 -0.2661
27890W        W43507   1.282   4.784  14.899  0.2666 -0.1820  0.1737
27891W        W43508  15.156  12.871   1.309  0.0164  0.2320 -0.0290
27892W        W43509   5.660   2.345   3.232  0.0449 -0.1316  0.0208
27893W        W43510   3.509  14.267  14.315 -0.3211 -0.2393  0.0566
27894W        W43511   7.632   5.508   2.906 -0.1286  0.0548  0.2018
27895W        W43512   3.643   2.200  14.825  0.0900 -0.2396 -0.0110
27896W        W43513   2.574  11.648   3.932 -0.1640  0.1513  0.0516
27897W        W43514   2.310   7.576   5.527  0.3346  0.0371  0.1216
27898W        W43515   3.309   1.802  13.333 -0.0788  0.2266 -0.1647
27899W        W43516   9.745   5.683   1.214 -0.2064 -0.2578  0.4723
27900W        W43517  13.662   2.872   1.342  0.0285  0.0839 -0.0178
27901W        W43518  16.250   1.118   3.071  0.1392 -0.2257  0.0288
27902W        W43519  14.113  12.143   3.173  0.2191 -0.3875 -0.2670
27903W        W43520  15.669   3.877   1.459  0.2003  0.2184 -0.2224
27904W        W43521  17.815  17.773  16.085  0.1868  0.2569  0.1243
27905W        W43522   0.605  14.351   1.690  0.4083  0.2687 -0.0384
27906W        W43523  16.646   1.306   0.103  0.1117  0.0919  0.2569
27907W        W43524   6.459  14.819   5.574 -0.0247  0.3578 -0.0250
27908W        W43525  15.646  10.502   1.572 -0.1858  0.3377  0.0605
27909W        W43526  10.229   9.907  10.825 -0.0066 -0.2208 -0.1870
27910W        W43527   4.695  15.829   1.653 -0.3256 -0.1438 -0.1145
27911W        W43528   3.066   6.736  14.435 -0.1678  0.0643 -0.2037
27912W        W43529   0.928   6.012   2.375 -0.2351  0.0457 -0.0808
27913W        W43530   9.854  10.988   3.197  0.1271 -0.0810 -0.0588
27914W        W43531  16.058  16.273   3.024  0.1048 -0.1616  0.1352
27915W        W43532   7.027   5.655  12.653  0.2786  0.0026 -0.2369
27916W        W43533  13.455   3.825   4.131 -0.0415  0.0533  0.0670
27917W        W43534   7.652   7.650  13.657  0.1209 -0.2221 -0.0476
27918W        W43535   7.378  11.869  12.120  0.1118 -0.0278 -0.1771
27919W        W43536   5.756   7.014  15.937  0.0289  0.1033 -0.0737
27920W        W43537   2.227  12.078  12.972 -0.0383  0.0806 -0.3574
27921W        W43538   6.573   8.557  15.261  0.2384 -0.0618 -0.1919
27922W        W43539  16.355   0.321  15.436  0.1752 -0.0734  0.0526
27923W        W43540  10.510  12.766   6.097 -0.2769 -0.0956  0.0977
27924W        W43541   7.136   2.915  11.076  0.0053  0.0845 -0.1082
27925W        W43542  12.479   8.308  10.929  0.1732  0.3219 -0.0772
27926W        W43543  13.904  10.332  15.754  0.2089 -0.0905 -0.1325
27927W        W43544  14.128  10.084  11.162 -0.2514  0.0759  0.0326
27928W        W43545   6.288  18.075   0.559 -0.0757  0.0910 -0.0886
27929W        W43546  15.558   0.098  15.048  0.0541  0.1475  0.0977
27930W        W43547   3.629  16.367   4.028  0.1352 -0.1052  0.0635
27931W        W43548  12.777   0.652   4.720 -0.3380 -0.1739 -0.1129
27932W        W43549  14.409  12.313  16.095  0.1076  0.1648  0.2622
27933W        W43550   2.383   9.194   0.974  0.1597  0.2865 -0.4819
27934W        W43551   3.738   1.505   1.600 -0.3407  0.2873  0.0336
27935W        W43552  13.084  16.697  14.712  0.0390  0.0628  0.0631
27936W        W43553  12.437  15.518   4.473 -0.2379  0.2951 -0.0401
27937W        W43554   4.310   1.800  11.363 -0.2786  0.3903 -0.1705
27938W        W43555  11.017   4.618  13.729  0.1546 -0.1728 -0.0151
27939W        W43556  13.775   2.465  14.664  0.0223  0.0000 -0.1505
27940W        W43557   2.616   1.383   4.172 -0.0815  0.2531 -0.2852
27941W        W43558   8.760   5.240  13.198 -0.0756  0.2505  0.0678
27942W        W43559   5.908   7.917   3.340 -0.2452 -0.0892 -0.1957
27943W        W43560   2.035   6.429  12.003 -0.2567  0.2749  0.1194
27944W        W43561  16.016  16.358   3.886 -0.0608 -0.0936 -0.1716
27945W        W43562  16.832   1.720  11.854 -0.1832  0.2034 -0.1620
27946W        W43563  18.347  10.317   2.239  0.2443 -0.1311  0.0765
27947W        W43564   8.954  13.645  12.899  0.1261 -0.0903  0.0019
27948W        W43565  13.233   0.420   4.833 -0.2171 -0.0846 -0.3837
27949W        W43566   5.086   7.221  11.885  0.2128 -0.1478 -0.1720
27950W        W43567  14.432  12.595  12.991 -0.1533  0.1394 -0.1597
27951W        W43568  16.634  11.987   3.821 -0.1010  0.1395 -0.4423
27952W        W43569   2.215  11.081  15.662  0.2326 -0.2815  0.3013
27953W        W43570   1.978  13.367  11.212  0.1245  0.0107 -0.2091
27954W        W43571   8.408  11.578   2.710  0.0898  0.2024 -0.3474
27955W        W43572   1.649   4.930   1.666  0.1188 -0.3853 -0.4086
27956W        W43573  17.980   8.677   0.758  0.3032 -0.3192 -0.1531
27957W        W43574  10.445  14.545  16.036  0.1764  0.3970 -0.1270
27958W        W43575   3.751   3.574  15.178 -0.1133  0.5293  0.1854
27959W        W43576  12.756   2.401  14.784  0.0667  0.1549 -0.0200
27960W        W43577   0.450   2.004  12.676 -0.0788 -0.2148  0.1969
27961W        W43578   0.174  16.552   5.044 -0.3792  0.1683 -0.2273
27962W        W43579   0.495  10.209  14.098 -0.0501 -0.1136 -0.1393
27963W        W43580  16.795   6.478  13.123  0.0521 -0.3053 -0.2747
27964W        W43581  11.249   9.572   0.493 -0.1123 -0.1126  0.0608
27965W        W43582  11.524   7.986  13.354 -0.0313  0.0204 -0.2403
27966W        W43583   7.644  16.842   3.781  0.1485 -0.0011 -0.2593
27967W        W43584   6.859  14.619   4.505  0.0879 -0.0326  0.0175
27968W        W43585   5.565   8.039   0.537 -0.3290 -0.3214  0.1006
27969W        W43586   4.204  10.786  10.478  0.2731  0.1996 -0.1146
27970W        W43587   2.749  15.452  12.828  0.2054 -0.0109  0.1976
27971W        W43588  18.201   9.829   3.337  0.2974 -0.2503  0.0758
27972W        W43589   4.680  17.114  14.549 -0.5359 -0.2922 -0.2446
27973W        W43590  17.235   9.715   0.437 -0.1526  0.0502 -0.1334
27974W        W43591   8.990   0.928  12.435 -0.2547  0.2377  0.0373
27975W        W43592  13.703  14.742   0.475 -0.0129 -0.2226  0.0249
27976W        W43593  14.658   0.578   3.559 -0.0122  0.1557  0.1163
27977W        W43594   5.792  16.367   2.108  0.0140  0.1553 -0.0950
27978W        W43595  15.069  10.267  11.251 -0.3126 -0.1999 -0.1693
27979W        W43596   0.151  13.520   3.817 -0.0273 -0.0136 -0.1353
27980W        W43597   8.669  16.643   3.993 -0.0524 -0.0710  0.1845
27981W        W43598  15.547   9.823   2.425  0.3039  0.1367  0.1168
27982W        W43599  12.366  11.773  13.192  0.1797 -0.1232  0.0014
27983W        W43600  11.562  14.279   1.272  0.2182  0.1375  0.2026
27984W        W43601  14.943   3.089  11.808 -0.1370 -0.1418  0.0042
27985W        W43602   9.890  17.869  15.007  0.1640  0.2833 -0.0071
27986W        W43603  14.454  11.951  15.681 -0.2631  0.1961  0.2012
27987W        W43604  12.480   5.036  16.052  0.3616 -0.1954  0.2293
27988W        W43605   5.669   0.336  13.285 -0.2055  0.0676 -0.2557
27989W        W43606   8.436  13.588   5.314  0.1563  0.4414 -0.0030
27990W        W43607  15.086   8.920   4.458  0.3971 -0.1194 -0.1428
27991W        W43608   7.149   1.894   4.116  0.1310 -0.4313 -0.1165
27992W        W43609  12.233  13.575   4.431  0.2362  0.2075 -0.1699
27993W        W43610  15.699   4.880   5.029 -0.0532  0.0549  0.2499
27994W        W43611  12.658  13.746   1.219  0.1870 -0.0377  0.0171
27995W        W43612  10.541   6.429   1.571 -0.0128  0.0177 -0.3575
27996W        W43613   9.008   5.823   0.039  0.0826 -0.0714  0.0754
27997W        W43614   4.378   0.033  13.262 -0.0585 -0.0767  0.0145
27998W        W43615   0.088  16.195  13.935 -0.2327 -0.0010 -0.0078
27999W        W43616   2.531  10.153  12.511  0.0459 -0.0102 -0.2352
28000W        W43617   1.841  17.471   1.766 -0.0869 -0.2406  0.1732
28001W        W43618   1.912   2.929   4.353  0.0015  0.0513 -0.1024
28002W        W43619  17.031  13.487  13.564 -0.3647 -0.0175 -0.2266
28003W        W43620  10.150   3.292  13.459 -0.1132 -0.0716 -0.0083
28004W        W43621   7.006   3.175   2.182 -0.5212  0.2485 -0.0732
28005W        W43622  14.470  16.186   0.933 -0.0769 -0.1701 -0.2113
28006W        W43623  14.550   1.238   3.850  0.2034 -0.2542 -0.1717
28007W        W43624   5.120   1.086  12.844  0.0913 -0.2706  0.0604
28008W        W43625   1.094   7.873  10.935  0.0349  0.0587  0.1694
28009W        W43626   6.296   3.472  12.878  0.2869 -0.1003  0.0406
28010W        W43627   9.627   3.838  15.397 -0.0939  0.0552  0.2752
28011W        W43628   5.092  10.419   5.342  0.0764 -0.1563 -0.0424
28012W        W43629  14.136  13.255   0.161 -0.2329 -0.2982  0.2422
28013W        W43630  11.271  11.612  15.318  0.2455  0.1972 -0.3229
28014W        W43631   3.050  13.004   1.925  0.0064 -0.0657  0.2580
28015W        W43632   4.557   1.508  14.474 -0.2284 -0.4454 -0.0063
28016W        W43633  12.908   1.471   4.915  0.2314 -0.1362  0.0685
28017W        W43634   9.882   4.516  16.013  0.0853  0.3084  0.4170
28018W        W43635   4.780  15.739  14.347 -0.1627  0.4476 -0.0128
28019W        W43636   9.871  13.277  14.122  0.0444 -0.1942 -0.0931
28020W        W43637  15.356   2.401  13.376 -0.0305 -0.0362  0.0570
28021W        W43638   5.611   1.176   5.528 -0.3294 -0.1848  0.1716
28022W        W43639   9.401   2.900   0.653  0.2844 -0.0223 -0.3253
28023W        W43640   6.838  11.172  12.949  0.1095 -0.1949 -0.1377
28024W        W43641  12.775   6.947  12.320 -0.3851  0.0353 -0.0057
28025W        W43642  17.874   5.850   5.194  0.1485  0.2954  0.2126
28026W        W43643  11.414  11.541  13.196  0.2849  0.1062  0.3143
28027W        W43644  11.090  16.880   1.644 -0.1217  0.1400 -0.2293
28028W        W43645   5.841   6.723  12.370  0.0522 -0.2575  0.0996
28029W        W43646   2.679  17.668   2.420  0.2855 -0.1317  0.2407
28030W        W43647  13.398  17.118  15.992  0.3564 -0.0011 -0.0918
28031W        W43648  18.063   8.269  13.381 -0.1099  0.3685  0.1754
28032W        W43649  18.044  16.523  11.837  0.1532 -0.1506  0.2260
28033W        W43650   1.688   2.802  12.282  0.1170  0.1706  0.3075
28034W        W43651  13.440  12.722   4.138 -0.1923 -0.0467  0.3806
28035W        W43652  18.286  15.748   1.478  0.0188  0.2166  0.0169
28036W        W43653  12.654   1.051   1.689 -0.3991 -0.2846 -0.1444
28037W        W43654  17.118  13.641   2.572 -0.0780  0.3245 -0.0605
28038W        W43655  17.005  11.704   2.676 -0.0551  0.0158 -0.2616
28039W        W43656   6.062   7.667  15.462 -0.0146 -0.1673 -0.0483
28040W        W43657  17.329  14.786   1.547 -0.0230 -0.3766  0.0234
28041W        W43658   4.656  11.482  15.360 -0.0851  0.0940 -0.2932
28042W        W43659   7.691  15.856  15.603  0.0127 -0.0432  0.2715
28043W        W43660   1.256  18.448  12.298  0.1570  0.0355 -0.2934
28044W        W43661   0.444   9.971  11.496 -0.1963 -0.2135  0.0569
28045W        W43662  12.240  10.860  14.206  0.0703 -0.2241 -0.0496
28046W        W43663   9.346  12.613  10.786  0.0563  0.2764  0.1465
28047W        W43664   3.488  12.422  11.947  0.0678 -0.0633  0.1965
28048W        W43665  18.077  12.863  13.642  0.2260 -0.2733  0.2883
28049W        W43666  16.238   8.133  10.943 -0.1409  0.3816  0.0741
28050W        W43667  13.249  14.493   5.739  0.3084 -0.0333  0.3282
28051W        W43668  14.436   6.995   4.705 -0.4164  0.3054  0.1654
28052W        W43669   3.442   0.596   6.146 -0.3600 -0.0835  0.0461
28053W        W43670   4.556   9.485   1.192  0.1070  0.0108  0.1870
28054W        W43671  10.029  10.377   2.760  0.3085 -0.0477 -0.3751
28055W        W43672   0.411   5.268   1.471  0.0306  0.1404  0.2814
28056W        W43673   9.157   1.523  15.010  0.0918 -0.0514  0.0922
28057W        W43674   9.098  10.452  11.493  0.0711 -0.1020 -0.3751
28058W        W43675   8.147  16.746   0.845  0.3316 -0.1082  0.3775
28059W        W43676  12.451   5.176  10.658 -0.1112 -0.2728  0.3243
28060W        W43677  14.588   4.837  13.745  0.0459  0.1954 -0.1066
28061W        W43678  13.466   1.467   1.079  0.4181 -0.1890  0.0990
28062W        W43679  17.312   7.098  11.505 -0.0828 -0.2116 -0.1606
28063W        W43680  12.312  16.324  10.970  0.0048  0.0531  0.1610
28064W        W43681   3.315   6.826  11.477 -0.0981  0.1033 -0.1451
28065W        W43682   9.691  13.916   4.507  0.0349 -0.2415 -0.3851
28066W        W43683  18.115   1.997  12.401 -0.0053 -0.3642  0.1993
28067W        W43684  15.047  11.122   3.718  0.1787 -0.0059 -0.3590
28068W        W43685   0.562  18.455   4.922  0.0217 -0.0184 -0.1532
28069W        W43686  12.523   6.066   4.803  0.0797 -0.0392  0.1608
28070W        W43687   9.192   6.091   1.089  0.1049 -0.1419 -0.0648
28071W        W43688  14.433  15.087   0.115  0.0171  0.2150 -0.0013
28072W        W43689   1.214  10.429   4.035 -0.0750 -0.1998 -0.0308
28073W        W43690   1.866   3.249  14.905  0.2439  0.3092  0.2043
28074W        W43691  15.977  17.826   3.271 -0.1569 -0.0555 -0.1549
28075W        W43692   1.227   0.762  15.184  0.3511 -0.0048  0.2822
28076W        W43693   3.450  11.529  13.969  0.0345  0.3404  0.0283
28077W        W43694  11.694   0.149   3.191 -0.0032  0.1273  0.1736
28078W        W43695   8.954   8.932  15.279  0.0411  0.0418  0.0060
28079W        W43696  14.059   5.980  11.395 -0.1262  0.0653 -0.0475
28080W        W43697   5.382   9.739  15.181  0.1851 -0.0507  0.0539
28081W        W43698   9.811  14.647  12.111  0.2301  0.0137 -0.2334
28082W        W43699   5.559  13.977   1.332 -0.1918 -0.2003 -0.1997
28083W        W43700  16.716   7.228  12.142 -0.0551 -0.0829  0.2569
28084W        W43701   4.827  17.066   0.331  0.0009  0.1096 -0.0196
28085W        W43702  11.242  15.646   0.411 -0.1201  0.0193  0.1386
28086W        W43703  15.747   8.262   4.731 -0.1836  0.3144  0.1813
28087W        W43704   9.862   1.602  13.512 -0.2137 -0.2293 -0.1850
28088W        W43705   6.866  13.004  10.400  0.0345  0.0803  0.0549
28089W        W43706  17.973   4.272  15.013  0.0082  0.0463  0.1540
28090W        W43707   7.461   4.037  15.924  0.0362  0.2850  0.1530
28091W        W43708   8.717  16.036   4.253 -0.0364  0.1815  0.0273
28092W        W43709   5.586   2.366   2.669 -0.1456 -0.4293 -0.0104
28093W        W43710  17.910   3.357  14.722 -0.0218  0.2704 -0.0355
28094W        W43711  18.281   6.519  13.173  0.0258  0.2513  0.1299
28095W        W43712   8.441   0.322  11.413  0.1012  0.0456 -0.0170
28096W        W43713  14.613  14.179  11.275  0.3890 -0.2963 -0.2229
28097W        W43714   8.785   5.339  14.323 -0.2643 -0.0071  0.0781
28098W        W43715   4.010   7.905   5.629  0.5676 -0.3152 -0.1689
28099W        W43716   9.177  15.093  15.074 -0.0937 -0.1811 -0.0718
28100W        W43717  13.840  13.651  14.846 -0.1023  0.0961 -0.0630
28101W        W43718  11.311  18.247  15.155  0.0144 -0.3293  0.1253
28102W        W43719   9.763   7.685   4.603  0.3629  0.0510  0.0531
28103W        W43720  13.997   6.556   3.262 -0.2333 -0.1254  0.2626
28104W        W43721  18.274  13.603  14.913 -0.4225  0.0175 -0.0381
28105W        W43722   9.676  12.217   0.926 -0.0060  0.1294 -0.0707
28106W        W43723   1.267   0.981  12.686  0.0967 -0.1498 -0.1268
28107W        W43724   7.105  11.221   4.559  0.1626  0.0223  0.0738
28108W        W43725   4.006   3.746   0.804 -0.2729 -0.3096  0.2139
28109W        W43726   3.409   9.811  14.025  0.1863  0.4361 -0.2648
28110W        W43727   2.018   6.928  11.949  0.2010  0.0810 -0.2648
28111W        W43728  18.245  11.503  11.379 -0.1108 -0.0766  0.0028
28112W        W43729   4.754   7.922  12.500  0.0032  0.0693 -0.0873
28113W        W43730  11.157  17.429  12.010  0.0991 -0.2160 -0.1381
28114W        W43731  10.277  17.178  13.797  0.2507 -0.3240 -0.0494
28115W        W43732   0.858  18.395  15.402  0.1217 -0.0341 -0.2981
28116W        W43733  15.704   0.109  11.559 -0.2938 -0.3168  0.3046
28117W        W43734   0.451  13.301   4.267 -0.0864  0.1069 -0.3352
28118W        W43735   0.455  17.490   2.931 -0.2168 -0.3201  0.2827
28119W        W43736   6.596   8.740   2.054 -0.1334  0.0554  0.1007
28120W        W43737   9.447  14.913  13.456  0.1110 -0.0886  0.0609
28121W        W43738  11.526   6.569  13.318  0.1450  0.0741  0.1660
28122W        W43739  15.341  12.937  13.007  0.3213 -0.0159  0.1370
28123W        W43740   0.810  13.334  13.756  0.2585 -0.1282 -0.1711
28124W        W43741  17.637   8.915   2.322 -0.2037  0.0270 -0.2281
28125W        W43742   4.840  16.992  12.154  0.1968 -0.0067 -0.2161
28126W        W43743  12.139  14.128  14.855  0.0164  0.1746 -0.1463
28127W        W43744   7.904   6.536   0.976 -0.0045 -0.0083  0.0037
28128W        W43745   9.130  11.001   4.709 -0.0361 -0.0159  0.0214
28129W        W43746   0.721  17.522   5.282 -0.0573  0.0554  0.2845
28130W        W43747   1.306  14.598  14.513  0.3070  0.0549  0.0397
28131W        W43748  16.218  15.466  13.240  0.0166  0.0903  0.0222
28132W        W43749  14.888   3.826   3.181 -0.5491 -0.0607 -0.4253
28133W        W43750   1.238  17.280  14.456 -0.0550 -0.2796 -0.0330
28134W        W43751   1.089   7.791   4.821 -0.1169 -0.2059 -0.1961
28135W        W43752   4.046  17.662  13.484  0.1784 -0.2538  0.3227
28136W        W43753   6.931  10.260  16.004 -0.0273  0.0653 -0.1677
28137W        W43754  10.646  18.199  13.686  0.1128 -0.0264  0.0512
28138W        W43755   9.377  16.247  13.009 -0.2376 -0.1435 -0.2200
28139W        W43756   6.893  11.376  11.608 -0.1314  0.2884  0.4465
28140W        W43757  13.759  10.270   3.552  0.0081 -0.0867  0.0869
28141W        W43758  15.439  14.475   3.884  0.0428  0.3773 -0.0316
28142W        W43759  14.213  13.723   0.939 -0.1186 -0.0582 -0.2457
28143W        W43760  11.000  13.543   2.458 -0.0722  0.0730 -0.2157
28144W        W43761   9.140   8.813   1.602 -0.2155 -0.2563  0.0254
28145W        W43762   7.727   5.564   1.872 -0.3071  0.1659  0.0970
28146W        W43763   3.871  17.091   0.038  0.1962 -0.1519 -0.1467
28147W        W43764   4.188  12.682  10.486  0.1943  0.2049 -0.2415
28148W        W43765   3.312  14.976  12.262 -0.1929 -0.1076  0.0395
28149W        W43766  16.609   0.597  13.266 -0.4292  0.1245 -0.1127
28150W        W43767   2.757  16.236  15.356 -0.1486 -0.1376 -0.0489
28151W        W43768   0.286   2.775  11.360 -0.1418  0.3241 -0.2356
28152W        W43769   7.675  13.443  13.882  0.4251  0.1037 -0.1402
28153W        W43770   5.086   9.437  13.409 -0.0233 -0.0290 -0.1510
28154W        W43771   2.460   8.224  13.794  0.0060 -0.1826 -0.1820
28155W        W43772   4.008  16.046  12.739  0.1719 -0.2960 -0.4230
28156W        W43773  12.779   7.428   1.843 -0.0145  0.0551  0.0201
28157W        W43774  14.312  11.083  10.620 -0.0263 -0.1880  0.4787
28158W        W43775   6.991  14.584  15.386 -0.0578 -0.2199  0.1872
28159W        W43776  14.235  12.383  12.121 -0.2579 -0.3792  0.0172
28160W        W43777   6.150  11.556  15.623 -0.0267  0.2999  0.3678
28161W        W43778   6.485   5.807  16.039  0.0160 -0.0864  0.3122
28162W        W43779  18.276   7.389   1.963 -0.0931  0.1580 -0.0371
28163W        W43780  18.369  12.980  15.318 -0.0914 -0.4106  0.1001
28164W        W43781  18.270  10.937   0.364 -0.3556  0.2446  0.4647
28165W        W43782  12.485   2.078   4.614  0.0738  0.0972  0.4551
28166W        W43783   5.337   3.019   5.166  0.1938  0.2813  0.0496
28167W        W43784   8.094  11.199  15.203 -0.0779  0.0119  0.1496
28168W        W43785  10.437   0.276  11.737  0.3098  0.1573 -0.3508
28169W        W43786  11.441   8.044  12.416 -0.3107  0.3403 -0.0939
28170W        W43787  10.093  17.314  12.758  0.2115  0.1392 -0.2459
28171W        W43788   8.678  15.213   3.316 -0.1272 -0.0140 -0.1322
28172W        W43789  17.326   5.952  15.636 -0.1317 -0.1998  0.4421
28173W        W43790   6.515  16.060   2.524 -0.3473  0.0721  0.0428
28174W        W43791  17.852   2.926   3.812  0.3524  0.2446  0.1555
28175W        W43792   7.801   4.012   2.669  0.2053 -0.2630 -0.0554
28176W        W43793   8.853  10.756  12.649  0.0332 -0.2843  0.0447
28177W        W43794   5.467   2.855   4.305  0.1573  0.1262  0.0416
28178W        W43795   6.984  11.239  14.590  0.0213 -0.4031  0.1788
28179W        W43796  15.866   9.152  11.529 -0.0362  0.0617  0.0286
28180W        W43797   1.237  14.773  13.127  0.1597 -0.2284  0.2441
28181W        W43798  17.903   0.511   4.281 -0.0715 -0.2114 -0.2861
28182W        W43799  13.726   2.197  12.964 -0.0390 -0.0585  0.1496
28183W        W43800   9.699   1.986   1.006 -0.0644 -0.0762  0.0306
28184W        W43801  17.777   2.960  12.861 -0.4394 -0.3069  0.0418
28185W        W43802   0.364   0.822  15.283 -0.0991  0.1469 -0.3215
28186W        W43803  11.527   0.703  14.933 -0.0318  0.1690 -0.0019
28187W        W43804   6.353  17.897   3.124  0.0018  0.0670 -0.2934
28188W        W43805   3.224  11.072  13.070 -0.1289 -0.0484 -0.1157
28189W        W43806  14.082   8.094   1.229 -0.1782  0.2278  0.2955
28190W        W43807   1.572  13.846  14.888 -0.1438 -0.1896  0.2014
28191W        W43808   9.495   3.759   0.831 -0.1032  0.0601  0.1682
28192W        W43809   3.462   2.573   0.396  0.0564 -0.3210 -0.1565
28193W        W43810   3.557   6.283   0.881 -0.1275  0.2824 -0.1734
28194W        W43811   9.801  10.455   1.352  0.0633  0.0772 -0.2171
28195W        W43812  14.895   5.889   1.781  0.3190 -0.0151 -0.1586
28196W        W43813   0.773   1.802   4.068 -0.2343 -0.1760  0.2566
28197W        W43814   9.190  15.203  12.687  0.1837 -0.1170  0.0448
28198W        W43815   7.725  11.215   0.935 -0.3207 -0.0481  0.0638
28199W        W43816   3.063   6.141   0.896  0.2422 -0.0475  0.0417
28200W        W43817  13.276   6.064   1.259 -0.1203  0.0544 -0.0554
28201W        W43818   1.139   7.677   9.960 -0.0381  0.4437 -0.3284
28202W        W43819  11.172  15.198   1.067  0.1462 -0.0216 -0.3835
28203W        W43820   6.259   6.921   1.102 -0.0845  0.1876 -0.0744
28204W        W43821  12.487   7.599   1.181 -0.0698  0.1868 -0.2417
28205W        W43822   5.262   1.974   4.173 -0.0094 -0.1118 -0.1183
28206W        W43823  10.439   6.086  12.973  0.3462  0.1136 -0.1129
28207W        W43824  15.678   4.189  15.783  0.2573  0.1166 -0.1573
28208W        W43825   4.561  16.350   4.123 -0.1478  0.0226 -0.3636
28209W        W43826   2.195   6.605   0.746 -0.0558 -0.2022  0.0858
28210W        W43827  17.020  17.516  15.919 -0.0119 -0.3469 -0.2792
28211W        W43828   1.827   5.398  11.165 -0.2171  0.0794 -0.0795
28212W        W43829  16.757  16.385  14.608 -0.1081 -0.1020  0.0274
28213W        W43830   6.773  18.274   4.040  0.2160 -0.0434  0.0749
28214W        W43831  10.221  12.623  11.195  0.0675 -0.1259 -0.1187
28215W        W43832   4.590  11.302   1.750  0.3397 -0.0703 -0.0855
28216W        W43833  17.017   9.329   5.281  0.1780 -0.0140  0.0788
28217W        W43834  15.024  17.316  15.641  0.0861  0.0079 -0.0464
28218W        W43835   2.989  14.618  12.461 -0.0236 -0.1064 -0.1845
28219W        W43836  16.268  16.560   5.524  0.0730  0.0997 -0.3291
28220W        W43837  13.130  11.718  13.012  0.0626 -0.0819  0.1477
28221W        W43838  18.320   0.411   3.083  0.2643  0.0812 -0.1506
28222W        W43839  14.559  17.768  11.734 -0.0968  0.1169 -0.2754
28223W        W43840  11.793  16.112  12.122  0.0458  0.2496  0.1127
28224W        W43841   0.980  13.261  14.564  0.3912  0.3890  0.2740
28225W        W43842  16.745   7.684  13.355 -0.0737  0.1426  0.1066
28226W        W43843  11.192  15.495  12.809  0.2009 -0.1663 -0.2633
28227W        W43844  10.775  14.166  13.484 -0.2069  0.4783  0.2012
28228W        W43845   7.000   8.646  13.877  0.2268 -0.1085  0.1902
28229W        W43846   5.356  16.704  14.584 -0.0961 -0.2194 -0.1016
28230W        W43847  16.290  17.513   1.527 -0.1638  0.1945 -0.2490
28231W        W43848   7.950   5.889  14.820 -0.4476 -0.2084  0.0135
28232W        W43849   5.079   2.708  11.936  0.0365  0.2449 -0.0510
28233W        W43850  15.291   2.760   1.102 -0.2258  0.1990 -0.3345
28234W        W43851   5.224   0.562   4.133  0.1209  0.2606 -0.2623
28235W        W43852  17.310  10.882   3.697 -0.2500  0.0305  0.2993
28236W        W43853  12.978   1.102  15.402  0.1038 -0.1236  0.2828
28237W        W43854   2.402   2.459   2.950  0.0996  0.0285  0.0366
28238W        W43855  15.843  10.862   2.462  0.0035  0.1186  0.0508
28239W        W43856  10.147  16.404   2.593 -0.0701 -0.0037  0.1260
28240W        W43857  13.904   2.948  11.059  0.0654 -0.3202  0.1289
28241W        W43858   9.057  12.095  12.984  0.1470 -0.0375 -0.1100
28242W        W43859   0.952   0.486   0.522 -0.1589  0.2760 -0.0588
28243W        W43860  13.519  11.404   4.258  0.1940 -0.0417  0.0154
28244W        W43861   1.419   3.305   2.356 -0.2505 -0.1171  0.1786
28245W        W43862   6.969   3.891  15.765  0.0249 -0.0960 -0.2283
28246W        W43863  12.009   9.766   4.145 -0.1103 -0.0061 -0.3139
28247W        W43864  12.634   1.424   3.985  0.0444 -0.2048  0.2821
28248W        W43865   0.345  18.366   3.921 -0.1119  0.3153 -0.4014
28249W        W43866  15.274   3.374  13.302  0.1092  0.0894 -0.2097
28250W        W43867   4.999   9.872  16.028 -0.1280  0.1805  0.0076
28251W        W43868  16.430   2.517  11.239 -0.2098  0.0868  0.1856
28252W        W43869  11.656   3.751  11.863 -0.0611 -0.1926 -0.0704
28253W        W43870  17.030  10.809  15.234 -0.0031  0.0039  0.0343
28254W        W43871   3.569  10.204  14.332 -0.0185 -0.2340 -0.0003
28255W        W43872   8.831  13.560   1.930 -0.2513  0.2890 -0.3200
28256W        W43873  10.159   7.527   2.206  0.1603 -0.0335  0.0051
28257W        W43874  15.092   0.212   3.381  0.0727 -0.1653  0.2418
28258W        W43875   7.199   7.168   1.046 -0.0070  0.4044  0.0489
28259W        W43876  16.772   9.009   0.915  0.5221 -0.1129 -0.1910
28260W        W43877  13.204   4.676  13.314  0.0178  0.3619 -0.3507
28261W        W43878   1.130   4.170   4.001 -0.0309  0.0523  0.0749
28262W        W43879  16.964  15.188   1.815 -0.0439  0.0154  0.3036
28263W        W43880   4.169  12.480  15.783 -0.1530  0.4928  0.0716
28264W        W43881  10.601  16.680  11.705 -0.2140  0.0348 -0.0380
28265W        W43882   0.780   3.131   6.174  0.2633  0.2502  0.0980
28266W        W43883  10.768  11.825  14.912  0.3472  0.0078  0.0236
28267W        W43884   3.417   0.311  13.519  0.0505 -0.0411  0.0555
28268W        W43885  11.615  12.811   2.052  0.4652 -0.1465  0.2480
28269W        W43886   4.433   3.400  10.775 -0.1888  0.1646 -0.3508
28270W        W43887   2.569   7.673   3.371 -0.1243 -0.3002  0.0429
28271W        W43888  16.161   2.616  14.908  0.1018  0.0267  0.1535
28272W        W43889  12.191   2.302   0.488 -0.2752 -0.1202 -0.2075
28273W        W43890  18.039  10.625  11.948 -0.0106  0.0712  0.2187
28274W        W43891   6.883  10.145  11.195  0.1238  0.1665  0.2383
28275W        W43892   4.339  14.102  12.247  0.0994  0.2914  0.0614
28276W        W43893  15.775   7.057   2.392  0.2649  0.1198 -0.2388
28277W        W43894   0.778  18.097   4.158 -0.1337  0.1011  0.0372
28278W        W43895   6.116  10.825  11.106  0.0263 -0.1298  0.0749
28279W        W43896   9.572  17.636   0.125  0.0146  0.2035  0.3459
28280W        W43897   0.826  10.850  16.117 -0.2101 -0.1890  0.2121
28281W        W43898   5.671   0.754  12.103 -0.0242  0.1753  0.1503
28282W        W43899   2.932  13.253   5.363 -0.1989  0.0568  0.0826
28283W        W43900   9.983   1.760  15.212 -0.0073  0.0920 -0.0373
28284W        W43901   5.185  11.677  11.813  0.0988  0.1050  0.3075
28285W        W43902  11.846   8.315   2.767 -0.0976  0.2178  0.0396
28286W        W43903  16.314  17.822   2.859 -0.0432  0.4274 -0.2501
28287W        W43904  15.434  17.817   3.257  0.1986  0.0717 -0.0007
28288W        W43905  14.137  14.381  15.590 -0.1509 -0.0011  0.1701
28289W        W43906   7.753  12.540   0.166 -0.3209 -0.0249 -0.4507
28290W        W43907  11.173   5.584  12.456  0.0640  0.1100 -0.1717
28291W        W43908  17.259  13.097  11.453  0.0965 -0.2110 -0.1680
28292W        W43909   6.556   6.480   1.179 -0.1114  0.0651  0.1664
28293W        W43910   2.255  10.761  14.479 -0.1943 -0.0720  0.3326
28294W        W43911  12.272  10.784   0.043 -0.0946  0.0207  0.2724
28295W        W43912   7.401  15.232   4.666 -0.1807  0.2638  0.0619
28296W        W43913   4.122   7.884   4.141  0.0821  0.1126  0.0659
28297W        W43914   3.154  14.496   1.736  0.0144 -0.1530  0.0307
28298W        W43915   6.357   6.422  10.663 -0.0271  0.0715 -0.0176
28299W        W43916   5.420   5.079   4.856 -0.6207 -0.1982 -0.2938
28300W        W43917   8.602  16.373   0.766  0.0571 -0.0173 -0.0183
28301W        W43918  15.762  18.060  15.590  0.0725 -0.0854  0.1979
28302W        W43919  15.608   2.647  12.961 -0.1041  0.1356 -0.1418
28303W        W43920   4.320  11.236   3.127 -0.0648 -0.2178  0.0718
28304W        W43921  12.801  15.280  13.782  0.5005  0.1591  0.3391
28305W        W43922   6.830  11.271   5.006  0.2081  0.3758 -0.0152
28306W        W43923   0.387   9.943   3.774  0.0578  0.5964  0.0196
28307W        W43924  13.141   1.743   0.168 -0.0614  0.2454 -0.2661
28308W        W43925  16.923   4.247   0.343  0.1650  0.0232  0.2231
28309W        W43926   0.074   7.874   0.861 -0.2887 -0.1166 -0.2001
28310W        W43927  14.702   4.131   4.466  0.1355  0.2731  0.0033
28311W        W43928  18.128   7.721   1.162 -0.1221 -0.0143  0.1795
28312W        W43929  16.769  11.386  12.118 -0.1571 -0.0444  0.0018
28313W        W43930   3.734   6.985  14.819  0.0776 -0.3168  0.0383
28314W        W43931  12.937  15.524   2.589  0.3388 -0.0219  0.1739
28315W        W43932  15.374   8.098  14.597  0.0243  0.0221  0.3883
28316W        W43933   2.953  15.304  11.927 -0.0094 -0.2901  0.0574
28317W        W43934   0.682  18.434   2.317  0.0325 -0.1617  0.0541
28318W        W43935  12.538   5.211  15.265 -0.0047 -0.1627  0.1021
28319W        W43936  11.897   6.422  15.437 -0.1172  0.0148 -0.1815
28320W        W43937   3.941  13.177   4.801  0.0930  0.1244  0.0153
28321W        W43938   9.318   5.436   2.262  0.1242  0.0296  0.1389
28322W        W43939  15.063  12.466  15.180 -0.1142  0.1443  0.0145
28323W        W43940   5.624   6.266   3.448  0.0038 -0.1449  0.3790
28324W        W43941  13.104  15.379   5.657 -0.0897 -0.0952 -0.2697
28325W        W43942  14.457  14.829  14.031  0.0577  0.3834 -0.2226
28326W        W43943   6.263  12.017   3.591  0.1828 -0.1146 -0.2277
28327W        W43944   1.582  13.311  10.319  0.1070  0.1483 -0.0533
28328W        W43945  17.605   2.331  11.399  0.3370  0.1095 -0.0345
28329W        W43946   2.799  10.986   5.232  0.0196 -0.3198 -0.0730
28330W        W43947   5.227   7.302   1.933 -0.1513  0.3626 -0.0816
28331W        W43948   8.835   3.504  15.301 -0.0118  0.2222  0.0391
28332W        W43949  16.872  15.441   1.419  0.2832  0.0868  0.0947
28333W        W43950   7.931  13.172   0.319 -0.0072  0.3328 -0.2687
28334W        W43951  13.035   6.751   2.789  0.1416 -0.0630  0.2401
28335W        W43952   5.760   4.902  13.950 -0.1873 -0.2921 -0.2545
28336W        W43953   9.666  16.573  13.258  0.0087  0.0112  0.1076
28337W        W43954  15.395  15.926   1.435 -0.4330 -0.3056 -0.2318
28338W        W43955  16.436  17.373   2.450 -0.0195 -0.1044 -0.2591
28339W        W43956   2.342  15.155  15.794 -0.3185  0.0082  0.0684
28340W        W43957   9.721  10.595   6.082 -0.3355 -0.0401  0.0757
28341W        W43958  10.011   4.871   3.356  0.0325 -0.2944 -0.0251
28342W        W43959   7.346  15.129  11.702 -0.1938  0.1148 -0.1676
28343W        W43960  17.792   5.073  12.680  0.1271  0.1131  0.0155
28344W        W43961   6.403  15.802   3.003  0.2914  0.2160  0.1227
28345W        W43962   5.115   6.747   2.035 -0.1809 -0.0442  0.2739
28346W        W43963  16.811   0.902  14.785  0.2917 -0.1827 -0.3124
28347W        W43964   7.387   1.508  16.065  0.0398 -0.1414  0.0150
28348W        W43965   3.158   3.039  15.083 -0.1469 -0.0626  0.0571
28349W        W43966   4.275   4.149   4.656  0.0391 -0.1337  0.0057
28350W        W43967  11.381   7.278  16.035  0.4417 -0.1380  0.1640
28351W        W43968  17.719   7.514   0.779 -0.5060 -0.1417  0.0897
28352W        W43969   4.033   4.958  15.301  0.2676 -0.1136 -0.1420
28353W        W43970   9.774   2.563  11.700 -0.0801  0.0444 -0.1397
28354W        W43971   4.113   2.427   0.164  0.0602 -0.2267 -0.4248
28355W        W43972  10.901   2.306   4.907 -0.1535  0.1902  0.0833
28356W        W43973   8.956   6.332  14.472 -0.2985 -0.0204  0.0327
28357W        W43974  14.934   8.817   2.291  0.0861 -0.0240 -0.0825
28358W        W43975   2.489   1.536   3.571 -0.0618  0.0277  0.1268
28359W        W43976  11.242  15.279  14.853 -0.1782 -0.5609 -0.2445
28360W        W43977   2.932  13.441  12.874 -0.0155  0.0703 -0.2944
28361W        W43978   5.822   7.321   4.860 -0.0252 -0.1396  0.2013
28362W        W43979   0.447   8.358   3.261 -0.1448  0.1013 -0.1587
28363W        W43980  12.650  13.348  13.275  0.1396 -0.3406  0.0049
28364W        W43981   2.944   7.262  14.515 -0.0094 -0.0020  0.1063
28365W        W43982  16.316  17.737  13.355  0.2150  0.2224  0.0729
28366W        W43983   2.966   4.306  15.100 -0.2847  0.1403  0.1467
28367W        W43984  12.962  17.754  15.570  0.1061 -0.0796 -0.2839
28368W        W43985  16.926  11.430  11.598  0.1303 -0.0956  0.0583
28369W        W43986  13.763  14.186   4.913 -0.0986 -0.2728 -0.3326
28370W        W43987   5.849   3.444  13.720  0.1596 -0.1805 -0.1024
28371W        W43988   7.005  11.591   1.841 -0.0939 -0.1073 -0.4626
28372W        W43989  12.697  13.902  12.741 -0.0473  0.1883 -0.3810
28373W        W43990  11.469  11.494   2.676  0.1635  0.0804 -0.0697
28374W        W43991  14.575   1.247   2.447  0.0857  0.0184 -0.2984
28375W        W43992   0.836  10.060  11.185  0.2139  0.3243 -0.1166
28376W        W43993  18.236   6.114   0.838 -0.0206 -0.0579 -0.4040
28377W        W43994  16.243  14.028   3.733  0.1591 -0.1007  0.0591
28378W        W43995   6.604   9.275   4.295  0.1363 -0.1460 -0.0702
28379W        W43996  16.084  18.376   1.606 -0.0702  0.0743  0.3297
28380W        W43997   0.067  16.672   2.394  0.1866 -0.0758 -0.2263
28381W        W43998   8.846   7.243   2.579  0.2304  0.2051 -0.2105
28382W        W43999   8.938   1.902  12.650  0.4104 -0.1760 -0.0734
28383W        W44000  12.111  15.238  12.969 -0.0174  0.2339  0.1277
28384W        W44001   2.879  15.165   2.514  0.1191  0.0568 -0.3242
28385W        W44002  10.626   7.448  13.658  0.0630  0.2434 -0.0115
28386W        W44003  12.873   5.915   2.854  0.4793 -0.1233  0.0070
28387W        W44004   2.232   5.151   4.801 -0.0357  0.3119  0.2131
28388W        W44005   0.919   9.636  14.569  0.1223  0.0833  0.0485
28389W        W44006   2.523   4.076  14.947  0.5166 -0.2221 -0.0878
28390W        W44007   1.761  18.243   5.199  0.0530  0.1377 -0.1291
28391W        W44008   2.046   4.705   1.394  0.1089  0.0985  0.2095
28392W        W44009   8.566   0.898   3.403 -0.1804  0.2726 -0.1253
28393W        W44010   9.273   9.241   1.319 -0.2305  0.0882 -0.0557
28394W        W44011   6.888  14.406  12.138 -0.1547 -0.3912  0.1822
28395W        W44012   0.658  12.409  15.868 -0.3501 -0.0422  0.2098
28396W        W44013   2.309   1.644  13.083  0.2100 -0.0400  0.2229
28397W        W44014   0.945   6.719   1.376  0.0021  0.1976  0.0381
28398W        W44015  12.154   6.777  15.854 -0.1095 -0.0168 -0.2335
28399W        W44016  16.447  18.220   0.280  0.0480 -0.1020  0.0738
28400W        W44017   1.198   7.431  15.321 -0.3340  0.0014  0.1150
28401W        W44018  11.702   1.758   6.387 -0.0815 -0.0277  0.0504
28402W        W44019  12.276  17.886  14.524 -0.0844  0.0975  0.2029
28403W        W44020   9.233   0.131  11.100  0.2509  0.1628  0.1865
28404W        W44021   6.189   1.467   3.277  0.1657  0.0207 -0.0247
28405W        W44022  17.158   3.365  15.083 -0.1551 -0.1812 -0.0699
28406W        W44023   0.021  12.423  11.547  0.1274 -0.0788 -0.0647
28407W        W44024  14.209  10.414   3.751 -0.1366  0.0048  0.0672
28408W        W44025   7.939  13.299  14.765  0.4496 -0.4276  0.0925
28409W        W44026  17.172  14.314   0.322  0.0900 -0.0354  0.1956
28410W        W44027  13.276   4.369  12.749 -0.0071 -0.0137  0.0089
28411W        W44028  15.141  10.143  15.978  0.0538 -0.1619 -0.1624
28412W        W44029  16.080  18.181   5.490  0.2789 -0.3341  0.2035
28413W        W44030  14.134  15.902  13.560 -0.0794  0.0574  0.2812
28414W        W44031  15.257   7.054  11.403 -0.0873  0.2221  0.3224
28415W        W44032  15.348   3.715  16.005 -0.1420 -0.2119  0.6142
28416W        W44033   9.900  13.825  15.403  0.0123 -0.0693 -0.3823
28417W        W44034  14.419  11.328   4.325 -0.0761 -0.1762  0.3208
28418W        W44035  18.061  11.053   4.328  0.2015  0.2846 -0.1132
28419W        W44036   5.857   1.223  11.488 -0.2379  0.0580 -0.0984
28420W        W44037   9.104  10.140   2.238  0.3256 -0.1221  0.0280
28421W        W44038   1.776   7.018  11.472 -0.1392  0.1855 -0.0871
28422W        W44039   5.543  17.198  11.714  0.0266  0.0610  0.1050
28423W        W44040   0.892  10.914  11.635 -0.1339 -0.0434 -0.0534
28424W        W44041  12.025  10.787  13.247  0.0680  0.0087  0.5332
28425W        W44042  15.991   8.099  13.287  0.0114  0.0561 -0.1449
28426W        W44043  17.386  12.827   0.065  0.0930  0.1667 -0.2623
28427W        W44044   0.556   2.474  15.143  0.3303  0.1633  0.1295
28428W        W44045  18.072   3.225   0.277 -0.2559  0.0893  0.3402
28429W        W44046  16.998   7.977   0.907 -0.0838 -0.1488  0.0022
28430W        W44047  14.782  12.568   3.926 -0.0826  0.2737 -0.0145
28431W        W44048   1.510  10.981   1.650 -0.1872  0.0502 -0.1961
28432W        W44049   7.565   5.368  14.567  0.0607  0.2341 -0.1945
28433W        W44050  14.555   2.987   0.487 -0.1573  0.0967  0.3467
28434W        W44051   2.158  10.820   2.306  0.0747 -0.2672  0.2841
28435W        W44052   7.944   1.583   3.354 -0.1254 -0.2326 -0.2248
28436W        W44053   7.538   9.804   2.551  0.2555 -0.0816  0.0031
28437W        W44054  10.301   2.302   5.161 -0.0563  0.3550 -0.0061
28438W        W44055  12.281   7.812  11.419  0.1558  0.2665 -0.2330
28439W        W44056  12.810   2.823  10.651  0.0913 -0.1588 -0.2574
28440W        W44057  16.091  10.641  14.808  0.3045 -0.0105 -0.1797
28441W        W44058  10.802  10.321   5.863  0.0451  0.0113  0.1948
28442W        W44059   2.791   4.301   5.989 -0.4513  0.0548  0.3743
28443W        W44060  16.322  13.801  15.392 -0.0460  0.0729  0.0107
28444W        W44061   9.680  14.496   5.540  0.2569  0.1361 -0.1694
28445W        W44062  16.458  13.482   2.879 -0.2605  0.1348 -0.2260
28446W        W44063  17.463  12.525   2.581  0.2100  0.1569 -0.1013
28447W        W44064   7.236   7.830  13.350  0.3831 -0.0986  0.3068
28448W        W44065  10.079  18.017   5.189  0.0128  0.1948 -0.2790
28449W        W44066   6.673  18.435   0.445  0.0627  0.2057  0.3261
28450W        W44067  16.693  17.101  13.744 -0.4440  0.0291 -0.4385
28451W        W44068  14.096   9.636   5.825 -0.0524  0.3897 -0.1826
28452W        W44069  17.839   6.213  15.489  0.2117 -0.0859 -0.0052
28453W        W44070   1.512  11.694  12.632  0.0118 -0.4013 -0.0635
28454W        W44071  10.571  14.801   2.895 -0.1372 -0.1790 -0.1780
28455W        W44072   5.686   3.272  15.431  0.1250 -0.0323 -0.3419
28456W        W44073   7.615   0.515   4.729 -0.1656  0.0250  0.2042
28457W        W44074   1.773   1.515   2.521 -0.0562 -0.1791  0.0473
28458W        W44075   8.187   3.104  12.018 -0.1644 -0.2140  0.0845
28459W        W44076  14.116  16.358   0.636  0.0769  0.1290  0.1121
28460W        W44077  12.628   1.000   1.188 -0.0230 -0.0585 -0.4813
28461W        W44078   6.424   9.663   0.121  0.3537  0.1265  0.3482
28462W        W44079  13.935   3.462  13.770 -0.0028  0.3599  0.4336
28463W        W44080  15.059   8.913  13.644 -0.1042 -0.0163  0.1581
28464W        W44081   5.182   9.065  11.405  0.2275 -0.0236  0.0638
28465W        W44082   3.021  15.047   6.334  0.0776 -0.0258 -0.3512
28466W        W44083  15.019  14.918  15.374  0.0838 -0.0805 -0.1378
28467W        W44084   1.416   1.222   4.476  0.1915  0.1410  0.2150
28468W        W44085  14.310  13.479  14.941  0.2598 -0.0076 -0.0030
28469W        W44086   9.334   3.861  16.084  0.0361 -0.1503 -0.0599
28470W        W44087   6.934   9.186  13.345  0.0523  0.3609 -0.1376
28471W        W44088   5.497  14.891  12.363 -0.1442 -0.1019 -0.0722
28472W        W44089   1.158  10.094   0.950  0.1240 -0.0353  0.1891
28473W        W44090  10.056   1.992  12.579 -0.1764  0.3376 -0.0879
28474W        W44091   2.940  10.282   2.002  0.0251 -0.3286 -0.0893
28475W        W44092  13.222  16.322  14.410  0.2150 -0.0086  0.0462
28476W        W44093  10.271   0.385   1.209 -0.2363 -0.2005  0.2607
28477W        W44094   3.618  14.678  15.468  0.0297  0.1046 -0.0403
28478W        W44095   7.356   1.592  13.403 -0.2101  0.0434 -0.1266
28479W        W44096  10.716   6.963  12.756 -0.0300  0.2498 -0.0236
28480W        W44097  14.121  12.115   3.786 -0.1366 -0.0017 -0.0712
28481W        W44098   7.001  17.007   2.666 -0.2385 -0.2502  0.0873
28482W        W44099  12.870  10.969   0.475  0.0288  0.1900  0.0799
28483W        W44100  16.766  11.538  11.151  0.3452 -0.1261 -0.0964
28484W        W44101  12.062   0.843  13.107  0.2111 -0.0678 -0.0047
28485W        W44102   7.502  10.755   1.700  0.3986  0.3453  0.0408
28486W        W44103  15.139   5.301   0.811 -0.1591 -0.2440 -0.1334
28487W        W44104   0.598   9.098   5.851  0.0244  0.1046  0.0952
28488W        W44105  11.198  11.549  15.842  0.0800  0.1240 -0.0877
28489W        W44106  12.589  13.123   3.014 -0.3400  0.0505 -0.5828
28490W        W44107  14.780   8.668  13.260 -0.1382  0.0148  0.0733
28491W        W44108   6.884  17.902   4.410 -0.3959  0.0264 -0.0035
28492W        W44109   8.503   2.353   4.562 -0.2768 -0.2136  0.1464
28493W        W44110  14.940   6.965  12.676  0.0188 -0.0679  0.1545
28494W        W44111  15.155   3.765  12.383  0.1966  0.0702  0.1896
28495W        W44112   4.414  14.374   2.032 -0.2116  0.5636  0.1376
28496W        W44113   8.374   9.589  12.298  0.0122  0.1201  0.0315
28497W        W44114   3.690   7.035   2.450  0.0890  0.0001 -0.4520
28498W        W44115   7.681  14.556  13.669  0.1078  0.1984 -0.0508
28499W        W44116   5.959   6.336   0.336 -0.1238 -0.1117  0.1238
28500W        W44117  10.090  11.119  14.442 -0.0616 -0.0535  0.1216
28501W        W44118   9.788   8.311  11.743  0.3145 -0.0699  0.3008
28502W        W44119   5.920  15.856  12.926 -0.2802 -0.0399  0.2489
28503W        W44120   1.182   0.643   4.131 -0.0132  0.1895 -0.0450
28504W        W44121  10.942   7.371  13.236 -0.1439  0.1167 -0.2317
28505W        W44122  14.068   9.688   2.627  0.3429 -0.1677  0.1599
28506W        W44123  17.526  14.437   5.972  0.1994 -0.0564  0.1755
28507W        W44124   0.077   6.869  13.479  0.2053 -0.0123 -0.4598
28508W        W44125   2.391  16.809   3.920 -0.1211  0.0697 -0.1288
28509W        W44126   2.582  14.253  14.949  0.2125  0.2360  0.1105
28510W        W44127  15.155  12.905  14.842 -0.0927 -0.0777  0.0004
28511W        W44128  14.579   5.620   4.700 -0.2110 -0.3842  0.3743
28512W        W44129   7.762  11.248  12.669 -0.1823 -0.0549 -0.1155
28513W        W44130   8.747   2.576  11.858  0.2107  0.1920  0.1870
28514W        W44131  12.436   0.231   0.190  0.2126 -0.0744  0.1337
28515W        W44132   8.040   5.419  11.028  0.3415  0.2296 -0.1432
28516W        W44133   9.246  18.132  11.254 -0.2288  0.0802  0.1465
28517W        W44134  11.197   3.834   4.786  0.0633 -0.0564 -0.1701
28518W        W44135   1.628  17.142   3.730  0.0268  0.1042 -0.1798
28519W        W44136   6.059   2.740   3.235  0.1406 -0.1451 -0.1949
28520W        W44137   7.855  10.831   2.599 -0.0690  0.0470  0.0246
28521W        W44138   6.539  18.207  15.523  0.0855 -0.1105 -0.0380
28522W        W44139  14.970   0.731  14.964  0.3303 -0.2020  0.2496
28523W        W44140  14.993   9.369   3.608  0.1581 -0.4501 -0.0641
28524W        W44141   0.938   6.756   2.022 -0.1481 -0.0450 -0.0962
28525W        W44142   9.942  14.432  13.290  0.0228  0.0877 -0.1522
28526W        W44143  12.929  16.487   0.870 -0.1368 -0.1027  0.2899
28527W        W44144   8.737   0.464  10.991 -0.0626 -0.0030  0.1383
28528W        W44145   8.700   7.239   4.431  0.0323  0.1104  0.0616
28529W        W44146   1.566  18.008  14.734  0.1505  0.3931 -0.2451
28530W        W44147  17.546  13.252   4.542  0.0235 -0.0883  0.1639
28531W        W44148  11.449   9.060   2.232 -0.1951  0.1467  0.1539
28532W        W44149   4.303   3.184  14.840  0.0728 -0.0143  0.2194
28533W        W44150  11.426  17.781   1.909  0.0045 -0.2352  0.4916
28534W        W44151   5.391   9.752  13.114 -0.2657  0.0516  0.0745
28535W        W44152  10.389   5.195   0.761  0.0084 -0.1738  0.0498
28536W        W44153  13.061  12.737  13.769  0.2636  0.0914 -0.0658
28537W        W44154   1.661   6.086  11.734  0.2052  0.2219  0.0171
28538W        W44155   5.699   0.347   2.526  0.0322  0.0654 -0.0124
28539W        W44156  15.616   5.854   1.798  0.3354 -0.0257  0.1378
28540W        W44157  10.280   4.898  12.471 -0.1469 -0.2065  0.1313
28541W        W44158   7.487  13.159  11.375  0.1446 -0.0341 -0.1615
28542W        W44159   3.600   6.768  10.226  0.1661  0.1547 -0.1370
28543W        W44160   5.221  12.032   2.231 -0.1050  0.2700 -0.2308
28544W        W44161  17.569  16.502  11.952 -0.0959  0.4525  0.1188
28545W        W44162   1.074   5.504   6.017 -0.0420 -0.0406  0.2220
28546W        W44163   6.300  10.651  11.857  0.3134  0.2625  0.2487
28547W        W44164  16.499  13.733   5.810  0.0751 -0.4403  0.0824
28548W        W44165   8.668   7.464  11.582  0.0298 -0.1823 -0.1219
28549W        W44166   9.793  12.041  15.945 -0.4243 -0.0016  0.1035
28550W        W44167   3.464  10.314   0.618  0.4619 -0.1533 -0.1854
28551W        W44168  15.316  17.345   3.399  0.1132  0.2880  0.0431
28552W        W44169   6.455   6.531   3.716  0.1686 -0.1348  0.2604
28553W        W44170  15.734  14.096   3.743  0.0635 -0.2966 -0.0893
28554W        W44171   7.627  17.671   1.585  0.1116 -0.2554 -0.1463
28555W        W44172   1.808   3.513   5.053  0.0531  0.0689 -0.2088
28556W        W44173  12.829   4.838   2.851  0.3508 -0.0031  0.1363
28557W        W44174  12.221  12.345   3.571 -0.0494  0.0135 -0.0532
28558W        W44175   4.942   7.316   4.554  0.1790 -0.2812 -0.0014
28559W        W44176   9.108  12.936   1.262 -0.0598  0.0318  0.3250
28560W        W44177  13.001  14.153   4.471  0.1014  0.2195 -0.0160
28561W        W44178   0.654  11.637  14.531 -0.3230 -0.0436 -0.3461
28562W        W44179  11.253  16.456   1.465 -0.0953  0.2885  0.1442
28563W        W44180  10.976  10.801   0.626  0.1940  0.0808  0.0619
28564W        W44181  13.857  15.776   5.039  0.0753  0.0178 -0.1168
28565W        W44182   1.008  17.378   0.724  0.1528  0.2343  0.0228
28566W        W44183   5.411  12.219  12.664  0.0998 -0.1303 -0.1274
28567W        W44184  13.426   7.871   3.321  0.0133 -0.0586  0.0864
28568W        W44185  12.820   2.121   4.155 -0.1512  0.1227  0.0519
28569W        W44186  17.046   0.541  13.520 -0.1347 -0.2373 -0.0185
28570W        W44187  11.008   5.120  13.976  0.1752 -0.3299 -0.1980
28571W        W44188  15.380   3.487   6.220  0.0452  0.2443  0.1065
28572W        W44189   0.873  16.086   5.573 -0.0009 -0.0268 -0.1510
28573W        W44190   5.526   9.498  14.783 -0.0598 -0.3290 -0.0459
28574W        W44191   4.019   5.045  13.840 -0.0341  0.0280 -0.0731
28575W        W44192   5.747   3.866   9.849 -0.1106 -0.0344  0.1201
28576W        W44193  13.656  12.264  10.788 -0.0564 -0.3384 -0.3762
28577W        W44194   6.235  14.723  13.713  0.1356  0.0209  0.1385
28578W        W44195  17.805  15.556   5.831 -0.0043 -0.2182 -0.0892
28579W        W44196  15.241   8.385   5.011  0.2772  0.1335  0.3213
28580W        W44197   9.675  11.582  11.719 -0.2698  0.0625  0.0580
28581W        W44198   3.831   6.046   0.545 -0.1880  0.3025  0.1321
28582W        W44199   1.489  17.253   1.379 -0.0836  0.0206  0.1909
28583W        W44200   6.879   5.963  11.701 -0.5161  0.4040 -0.1834
28584W        W44201   9.185  15.125  14.212  0.3445  0.1238  0.1067
28585W        W44202  13.927   4.725   3.626 -0.1100 -0.0812  0.2280
28586W        W44203   0.464   3.222   4.049  0.1561  0.1665  0.0897
28587W        W44204  11.023   0.207   4.191 -0.0170  0.0533 -0.0529
28588W        W44205  15.117   2.611   4.080  0.0482 -0.0305  0.0053
28589W        W44206  12.881   5.337   9.815  0.1845 -0.0196 -0.2344
28590W        W44207  11.275  12.482  12.779  0.3192 -0.1566  0.0719
28591W        W44208   8.380   5.108  10.837  0.2094 -0.1410  0.2153
28592W        W44209   7.649   7.806  12.920  0.0163 -0.3464  0.0066
28593W        W44210   3.673  15.582   2.585 -0.1173  0.0812  0.1919
28594W        W44211   5.499  12.581   5.193 -0.2240  0.1111  0.0541
28595W        W44212   5.607   1.624   4.003  0.1919  0.1302 -0.1713
28596W        W44213  10.947   4.903  10.559  0.0336 -0.3157  0.2445
28597W        W44214   8.339   9.988  12.561  0.1864 -0.0583  0.1377
28598W        W44215  10.095   7.376   2.688 -0.1127  0.0681  0.0912
28599W        W44216  15.036  16.671   1.185 -0.3371  0.1599  0.2914
28600W        W44217  12.932   2.484   0.081 -0.1063 -0.1851  0.1592
28601W        W44218  17.802   1.489  11.732 -0.1466  0.2997 -0.0447
28602W        W44219   4.769   3.336  14.674 -0.0730 -0.0505  0.2540
28603W        W44220  12.056   5.993  11.589  0.1783  0.1179 -0.1266
28604W        W44221  14.697  12.077   3.147  0.2050 -0.0078  0.0558
28605W        W44222   3.234   7.801  11.168  0.0492 -0.0471 -0.2036
28606W        W44223   8.158  15.296  15.460  0.0432  0.0796  0.1463
28607W        W44224   6.780   4.972   2.561  0.0869  0.0923  0.2356
28608W        W44225   9.147  14.578   1.797  0.0468  0.0038 -0.0568
28609W        W44226  16.408  14.104   4.300  0.0497 -0.3924 -0.0523
28610W        W44227   5.910  15.841   4.488 -0.2337  0.1116  0.2717
28611W        W44228   4.978  14.760   1.733  0.3774  0.1542 -0.2323
28612W        W44229  17.788   9.256  15.833  0.4331 -0.2864 -0.1218
28613W        W44230   4.469  14.479  14.388 -0.2760  0.2386 -0.4165
28614W        W44231   3.883  10.221   4.568  0.0657 -0.2979 -0.0780
28615W        W44232   1.031   8.792  15.288  0.0314  0.1611 -0.0293
28616W        W44233  14.777   9.062   0.851  0.1981 -0.0232  0.0926
28617W        W44234  12.654  17.798   4.281 -0.0083  0.0851  0.1985
28618W        W44235   7.883   5.777  10.636 -0.1852 -0.1165 -0.1777
28619W        W44236   8.258   4.044  15.681 -0.3766 -0.0934 -0.0493
28620W        W44237   9.882  17.444   2.874 -0.3900  0.0180  0.1337
28621W        W44238   0.427  14.719  13.358 -0.0438  0.2324 -0.0945
28622W        W44239  17.068   3.231   5.566 -0.0346  0.0291  0.2209
28623W        W44240   0.443  12.051   2.885  0.0356  0.0459  0.2679
28624W        W44241   1.930   2.154   0.333  0.0970 -0.1335  0.1621
28625W        W44242  14.219  16.805   0.311  0.0157 -0.1469 -0.0584
28626W        W44243   9.384   0.704   4.060  0.0519  0.2233  0.0586
28627W        W44244   7.365  13.753   0.277 -0.1405 -0.1504  0.2194
28628W        W44245   6.720  14.014   6.758  0.1770  0.0301 -0.0745
28629W        W44246  16.198   6.230  12.980 -0.0383 -0.2236  0.2238
28630W        W44247   8.318   7.883   1.947 -0.0937 -0.1709 -0.3403
28631W        W44248  14.116   6.784   9.745 -0.0228 -0.0888 -0.0456
28632W        W44249   6.151   7.307  12.686 -0.0086  0.0356  0.0841
28633W        W44250   8.830   9.165   2.320 -0.0605  0.2951  0.4331
28634W        W44251   6.889  15.320   3.275 -0.3469 -0.1159 -0.1020
28635W        W44252   7.595  12.826  11.962  0.4876  0.1550 -0.1655
28636W        W44253   7.707   3.584   2.449 -0.2919  0.0532 -0.1426
28637W        W44254  11.282   1.792  15.724  0.1373  0.0365 -0.1729
28638W        W44255   1.200   2.882  14.282  0.3398  0.1136 -0.1592
28639W        W44256   7.999  13.436  12.089 -0.2774 -0.0190  0.0535
28640W        W44257  11.542  14.754   5.125  0.1485 -0.2125  0.2911
28641W        W44258  16.292   3.611  13.004 -0.0169  0.0023 -0.3529
28642W        W44259   9.246  17.400  15.061 -0.0156 -0.0278  0.0003
28643W        W44260  16.187   7.948   3.210  0.1092 -0.0731  0.1592
28644W        W44261   4.788  13.990  12.949 -0.2107 -0.0919 -0.0760
28645W        W44262  16.810  12.134   4.287 -0.1580  0.1323  0.1223
28646W        W44263  13.896  10.379  13.627  0.0349  0.0980 -0.3052
28647W        W44264   1.684  10.147  16.042  0.0966 -0.0668  0.0862
28648W        W44265  16.048   5.570  15.347 -0.1166  0.2533  0.1591
28649W        W44266  18.219  15.634  11.866  0.1432  0.0736 -0.0667
28650W        W44267   0.507   9.979  12.464 -0.2823 -0.3709  0.2121
28651W        W44268   3.479  11.432  12.267  0.0643 -0.0820  0.1419
28652W        W44269  12.003  16.109   0.870 -0.0806 -0.0100  0.2333
28653W        W44270  18.305   8.102  12.917  0.2934 -0.0351  0.0173
28654W        W44271   0.108   5.573  14.304 -0.0509 -0.2888  0.1382
28655W        W44272  14.469  14.695   2.519 -0.1951  0.0326  0.2507
28656W        W44273   9.559   5.907  12.564  0.2441  0.2028 -0.0827
28657W        W44274   0.750   3.288   3.693  0.0858 -0.0181 -0.2924
28658W        W44275  14.318   8.582  13.093 -0.0760  0.0717  0.1682
28659W        W44276   8.941  14.872  12.299 -0.1431  0.0858 -0.2286
28660W        W44277   3.072  16.114   5.129 -0.2105  0.2124 -0.0247
28661W        W44278   5.201   0.323   3.271 -0.0292  0.1329 -0.4256
28662W        W44279   8.911  11.939   4.509 -0.0642 -0.2213  0.0213
28663W        W44280  18.357  15.509   4.429  0.0946 -0.1315  0.2014
28664W        W44281   4.363  17.622   6.195  0.0852  0.1511 -0.1642
28665W        W44282  16.514  15.719   2.766  0.0870 -0.2556 -0.3324
28666W        W44283   0.856   9.572   5.914 -0.0113 -0.1536 -0.1582
28667W        W44284   7.951   9.940   0.062  0.1563 -0.1555 -0.1381
28668W        W44285   9.185  17.018   5.585 -0.1917  0.0664 -0.1477
28669W        W44286   0.006  16.931  11.984  0.0982  0.0426 -0.1714
28670W        W44287  17.008   5.101   4.651  0.4399 -0.2956 -0.0347
28671W        W44288  15.406   1.625   0.108  0.4522 -0.2280 -0.2064
28672W        W44289  14.523  11.854   0.168 -0.1164 -0.0794 -0.1014
28673W        W44290  14.826  11.264  12.411 -0.0348 -0.2022  0.3657
28674W        W44291  12.856   6.178  11.146  0.2115 -0.1739 -0.1367
28675W        W44292   4.652  12.612   4.970 -0.2298 -0.0187 -0.2260
28676W        W44293  16.604  12.245  14.120  0.1521 -0.1433 -0.1372
28677W        W44294   3.845   0.066   1.105 -0.0290  0.0147 -0.1255
28678W        W44295  13.737   7.322   1.108 -0.1546 -0.1840 -0.1448
28679W        W44296  15.531  10.640  15.132 -0.2948  0.2157 -0.0232
28680W        W44297   8.085   2.147  10.984 -0.0999 -0.1143 -0.2816
28681W        W44298   7.513   6.729  14.778  0.0009 -0.0110 -0.0229
28682W        W44299   9.030  14.636  15.712  0.0056 -0.2926  0.2447
28683W        W44300   6.107  14.916   2.954 -0.4237 -0.0246  0.2574
28684W        W44301   3.982   9.815  10.543  0.0354  0.2241  0.0747
28685W        W44302   3.659  17.780  12.603 -0.0884 -0.4697 -0.0149
28686W        W44303   6.901  16.681   5.019 -0.0730 -0.0846  0.2085
28687W        W44304  11.007  10.105   2.849 -0.1838  0.2218  0.0950
28688W        W44305   0.333   0.337   0.992 -0.1866  0.0693 -0.2501
28689W        W44306   1.353  16.895  14.101  0.0866  0.1585  0.1958
28690W        W44307   6.544   7.590  12.791  0.0735 -0.2187  0.0735
28691W        W44308  17.985   6.658  12.797  0.0688  0.0712 -0.2938
28692W        W44309   4.218   5.245   1.130  0.1629  0.3504  0.5247
28693W        W44310  13.073  17.488  15.968 -0.1194  0.0466 -0.2193
28694W        W44311  16.378  12.897  13.145  0.1989 -0.4434  0.1468
28695W        W44312  11.544  14.339   0.750  0.0532  0.0656 -0.1234
28696W        W44313   7.150   9.126  15.062  0.0249 -0.0168  0.4615
28697W        W44314   4.399   2.044  14.343 -0.3046 -0.1418 -0.1148
28698W        W44315   1.296   0.141   0.233 -0.2879 -0.3230  0.1171
28699W        W44316   0.156   6.187   1.210 -0.2741 -0.0117 -0.0024
28700W        W44317  15.398  14.016   4.195 -0.0639  0.4004  0.0097
28701W        W44318   7.588   7.595  14.724  0.1042 -0.0496  0.1563
28702W        W44319  13.806  14.987   2.255 -0.1266  0.0609  0.1116
28703W        W44320   5.242  12.089  11.180  0.2977  0.1829  0.0858
28704W        W44321   3.218   8.822   3.531  0.2624  0.0902  0.0287
28705W        W44322   8.559  17.812  14.217  0.0038  0.1566  0.4054
28706W        W44323  15.526  14.184  11.978  0.4290  0.0998 -0.2017
28707W        W44324   0.968  17.612   4.396 -0.1955  0.0832  0.0944
28708W        W44325  14.046   8.831   0.411  0.2244 -0.0676  0.0413
28709W        W44326  10.561   9.692   3.734  0.0627  0.5917 -0.0886
28710W        W44327   1.284  11.340   1.268  0.1525  0.2537 -0.1089
28711W        W44328  16.939   2.286  11.812  0.1681  0.2653  0.0808
28712W        W44329   1.131   7.994   0.584  0.2084  0.1783  0.1062
28713W        W44330   1.257   3.731   5.651 -0.1710  0.2482 -0.2372
28714W        W44331  17.712   4.883  15.468  0.1107  0.3145  0.1429
28715W        W44332   4.223   1.505   1.941  0.0859 -0.2525 -0.0242
28716W        W44333   4.336   3.908   0.450  0.2047  0.2131  0.1305
28717W        W44334  10.197   4.216  11.831  0.3248 -0.0387 -0.0881
28718W        W44335   0.575   7.988   5.090  0.2787 -0.0205  0.0217
28719W        W44336   7.982   0.168  14.902  0.0439  0.0070 -0.0680
28720W        W44337   8.466   6.794   4.610  0.1721 -0.2305 -0.0149
28721W        W44338  13.991   0.923  14.723 -0.0476  0.1658 -0.0140
28722W        W44339  18.299  12.052  13.837 -0.2811 -0.0645  0.3304
28723W        W44340   9.851  16.324   0.273  0.0819  0.0630 -0.1290
28724W        W44341   2.689  15.508   2.905  0.0392  0.2957 -0.1516
28725W        W44342   6.036   0.006   4.124 -0.2204  0.1458 -0.1864
28726W        W44343  18.182   8.920  11.341 -0.1140  0.3113  0.1119
28727W        W44344  12.565   9.119  13.221  0.0280  0.2383  0.0071
28728W        W44345   8.446   3.658  11.819  0.3173  0.0413  0.1460
28729W        W44346   8.172  16.176  13.815  0.1466  0.1885 -0.0635
28730W        W44347   8.047   2.737   3.513 -0.4985 -0.1053  0.3311
28731W        W44348   9.431  13.673   0.545 -0.2989  0.0399  0.1365
28732W        W44349   9.842   5.395   5.123  0.1349  0.2060 -0.1437
28733W        W44350  12.084   9.805   2.068 -0.1420 -0.2761  0.1149
28734W        W44351  15.372  17.787  10.768  0.1329  0.1869  0.1054
28735W        W44352  18.300  16.455   4.674 -0.0633  0.2183 -0.0159
28736W        W44353  17.424   9.422   2.231 -0.0000 -0.0935  0.2395
28737W        W44354  15.886  17.504  13.103 -0.0636  0.0892  0.0556
28738W        W44355   6.339   5.554  13.328 -0.2291 -0.1279  0.0754
28739W        W44356   6.896   5.497   0.771 -0.1350  0.1484  0.1987
28740W        W44357   9.971  11.035   2.721 -0.0258  0.0215 -0.0550
28741W        W44358   6.177   9.607   3.497 -0.0433 -0.1427  0.1357
28742W        W44359   6.657  18.296  13.422  0.0611 -0.1172 -0.1667
28743W        W44360  18.160  15.555  14.552  0.0921 -0.3524 -0.0656
28744W        W44361  11.770  18.090   1.684  0.1457  0.3758  0.1162
28745W        W44362   4.977   6.030  15.061  0.2552 -0.1653  0.2134
28746W        W44363   8.145  10.220  14.705  0.1910 -0.2111  0.0565
28747W        W44364   3.849  14.750  14.888 -0.0387 -0.0781 -0.1516
28748W        W44365  14.206  11.222  12.574  0.1389  0.0192 -0.0084
28749W        W44366   0.298   1.256  15.710  0.2966 -0.1170  0.0237
28750W        W44367   1.225  14.594   3.210 -0.0386 -0.0013 -0.1556
28751W        W44368   2.369  15.822   6.416 -0.1411 -0.0940  0.2746
28752W        W44369   4.916   6.490   0.698 -0.1440  0.1007 -0.3208
28753W        W44370  13.160   9.273  11.727 -0.2639 -0.3100 -0.0233
28754W        W44371   9.097  14.420   5.676 -0.2418  0.1335  0.0044
28755W        W44372   0.072   2.310  12.290  0.1584  0.3813  0.2015
28756W        W44373   8.135  15.108  13.874  0.2145  0.1207 -0.0852
28757W        W44374  13.104  13.775   2.521 -0.0331 -0.1058  0.1436
28758W        W44375   1.474  10.988   2.658 -0.0657  0.3383  0.0260
28759W        W44376   0.662   7.645   2.501 -0.1162  0.3182 -0.0240
28760W        W44377   1.512  12.912   0.669  0.0858 -0.2131 -0.2266
28761W        W44378   2.115  17.056  12.984 -0.0218  0.1263 -0.0504
28762W        W44379   1.991  11.795   5.305  0.0855  0.0141  0.0092
28763W        W44380  11.394   2.407   2.730  0.1532 -0.2120 -0.0483
28764W        W44381  17.496  10.363   1.060  0.0324  0.2341  0.4734
28765W        W44382  16.111   1.564  11.857 -0.0800 -0.2469  0.1007
28766W        W44383   4.297  11.021  12.233  0.0224 -0.0609  0.1925
28767W        W44384  13.522  14.348   6.130 -0.2936 -0.1335  0.1013
28768W        W44385   1.852   5.468  15.654 -0.1571 -0.0358 -0.1174
28769W        W44386  16.829  17.609   1.364  0.2777  0.2388 -0.2441
28770W        W44387  11.231   5.160   0.519 -0.2110  0.0429 -0.2045
28771W        W44388   1.321   2.565  12.586 -0.3510 -0.0021 -0.1093
28772W        W44389   1.267   0.492   1.935 -0.2291 -0.3065  0.1295
28773W        W44390  10.501   6.304  11.563 -0.3001  0.1357 -0.2545
28774W        W44391  10.558   6.081   3.465  0.3407 -0.2302  0.0771
28775W        W44392  14.510  10.902  11.568  0.2167 -0.0593 -0.0169
28776W        W44393   6.237  10.140  11.536  0.2696 -0.1556 -0.1426
28777W        W44394   1.510  18.154   2.612  0.0092 -0.0591  0.0409
28778W        W44395   9.663   7.751  15.248  0.1919  0.3571  0.0507
28779W        W44396  14.025  11.273  13.224 -0.0098 -0.0243  0.0085
28780W        W44397  12.671  16.271  14.593  0.1458  0.0248  0.0912
28781W        W44398  15.188  17.849   2.113  0.0190 -0.1367  0.0234
28782W        W44399   0.366  18.224  11.177 -0.2293  0.2792  0.1203
28783W        W44400  14.547  15.825   1.367 -0.2952 -0.1185  0.0190
28784W        W44401  17.796   9.086  11.713 -0.0463  0.2943  0.0701
28785W        W44402  16.858   5.748   3.633 -0.2906 -0.4176 -0.0656
28786W        W44403   7.531   9.976  14.778 -0.1745  0.0041 -0.3272
28787W        W44404   0.822   9.385   2.344 -0.2614 -0.1436 -0.1828
28788W        W44405   7.890   4.537  14.467  0.2300 -0.2755 -0.0592
28789W        W44406   0.634   6.655   0.631 -0.2251  0.2815 -0.4219
28790W        W44407  16.846   4.651   4.561 -0.4478 -0.0320  0.4124
28791W        W44408   1.147  10.678   5.331  0.1828  0.1800 -0.2208
28792W        W44409  16.435   3.109   2.172  0.0249  0.0726 -0.0381
28793W        W44410  14.743   7.563   4.155  0.2623  0.1175  0.0146
28794W        W44411   3.995   9.955   3.342 -0.2493 -0.1428 -0.2695
28795W        W44412  18.069  15.873  14.910  0.0437 -0.2023 -0.3413
28796W        W44413  17.560  11.837  12.178  0.1714  0.1612  0.1514
28797W        W44414   6.947   4.122  12.673  0.1522  0.0885  0.0786
28798W        W44415  16.617   6.125  14.052 -0.2029  0.1344 -0.4984
28799W        W44416   3.011  15.752   6.378 -0.0728  0.0361 -0.1872
28800W        W44417   2.746  10.769  12.973 -0.1841  0.3790  0.3475
28801W        W44418   2.139  11.346  15.213 -0.0822 -0.1632 -0.0754
28802W        W44419  10.031  17.900  15.521 -0.2818 -0.0224  0.1898
28803W        W44420  13.992  17.142   2.103  0.2041 -0.0141  0.1191
28804W        W44421   7.923   3.190   2.649  0.0130  0.4546 -0.2345
28805W        W44422  18.237   2.991   5.175 -0.2860 -0.0593  0.0015
28806W        W44423   6.280   7.086  14.163  0.1005  0.0248  0.2006
28807W        W44424  11.260   7.702   1.854  0.3156  0.0206 -0.1647
28808W        W44425  10.285   7.603   3.150  0.0414 -0.0231 -0.1298
28809W        W44426  13.753  11.219  16.003 -0.0288  0.1595  0.0851
28810W        W44427  14.398  17.634   4.746 -0.2098 -0.1521 -0.0555
28811W        W44428   7.965   9.845  15.041 -0.1052 -0.1378  0.3671
28812W        W44429  15.263  18.297   3.686  0.0717 -0.1624  0.0019
28813W        W44430  12.888   9.708  10.279  0.0205  0.0826  0.2360
28814W        W44431   6.838  10.605  11.750  0.0050  0.3095 -0.1064
28815W        W44432   1.589   8.355  14.120  0.0256 -0.3044 -0.0645
28816W        W44433   6.086   8.982  14.338  0.1835  0.0004  0.0537
28817W        W44434  11.528  15.176   2.786 -0.1855  0.2197 -0.2313
28818W        W44435   8.346   8.858  11.055 -0.1405 -0.0961 -0.1084
28819W        W44436   6.396  15.791  12.672 -0.0582 -0.1925  0.0102
28820W        W44437   3.676   7.204  11.083 -0.0775 -0.2730 -0.1353
28821W        W44438   6.622   5.713   5.472  0.0288  0.0758  0.1288
28822W        W44439  13.277   6.626  12.537  0.0566 -0.1776  0.0149
28823W        W44440  17.753  13.977   0.953  0.0347  0.0785  0.0346
28824W        W44441   7.867   0.262  12.654  0.2909 -0.2955 -0.0269
28825W        W44442  17.704   0.366   2.553 -0.0387  0.3701 -0.1710
28826W        W44443   6.772   7.003   1.091 -0.1267  0.1000 -0.2275
28827W        W44444  10.645   8.433   1.422  0.1756 -0.0822 -0.4825
28828W        W44445  17.587  18.052  12.159 -0.0995 -0.0115 -0.0103
28829W        W44446   5.506  10.285  11.356  0.0887  0.1052 -0.0042
28830W        W44447  17.702   3.564  16.113 -0.0043 -0.0045  0.1505
28831W        W44448  14.328   7.234  13.956 -0.0124  0.0293 -0.2534
28832W        W44449   6.034   7.777  12.425 -0.2669 -0.1313  0.0395
28833W        W44450   2.497  15.038   4.480 -0.2292 -0.3030 -0.2480
28834W        W44451  14.539   3.072  14.478 -0.2846  0.1125 -0.3865
28835W        W44452   6.824  11.884  16.008 -0.0763 -0.2775  0.1168
28836W        W44453   1.588  16.970   3.231 -0.0649 -0.1901 -0.0586
28837W        W44454  17.485   4.558   4.022 -0.0829  0.0065 -0.0453
28838W        W44455  10.413  14.253   5.667  0.2232  0.0535  0.0519
28839W        W44456   0.113  16.208  15.387  0.0887 -0.0385 -0.0481
28840W        W44457  12.878   4.859  15.221  0.1034  0.0202 -0.2361
28841W        W44458   9.841  10.724  14.614 -0.2019 -0.0921 -0.2076
28842W        W44459   3.491  11.424  15.327  0.0357  0.0886  0.2542
28843W        W44460  10.200   0.553  12.048 -0.1068 -0.2523 -0.1987
28844W        W44461  11.220   0.834   1.785 -0.2340 -0.1114 -0.0096
28845W        W44462   0.038   2.021   3.386 -0.3510 -0.0851 -0.2652
28846W        W44463   1.199  13.932  15.326 -0.0356  0.3195  0.1697
28847W        W44464   5.750  11.225  16.104 -0.1392  0.1593 -0.1454
28848W        W44465  13.027  12.938   2.814 -0.1503 -0.1908 -0.1760
28849W        W44466  13.158   8.625  15.544 -0.0992  0.0872  0.0381
28850W        W44467  18.280   5.996   4.060 -0.1507 -0.3365 -0.1519
28851W        W44468  13.860   2.825  14.098 -0.1666  0.0695  0.1918
28852W        W44469  16.714   4.857  13.421  0.2192  0.1158 -0.1449
28853W        W44470   2.836  12.587   4.702 -0.0604  0.2881  0.0198
28854W        W44471  13.326   9.096  11.299  0.0424  0.2143 -0.1668
28855W        W44472  17.041   7.222   4.770 -0.0858 -0.3665  0.0103
28856W        W44473  12.944   3.694   1.244 -0.0302 -0.2073 -0.1388
28857W        W44474  13.689   4.004  15.079 -0.0140  0.1391  0.0854
28858W        W44475  11.586   3.005   0.321  0.2333  0.1030  0.2352
28859W        W44476   4.692   4.016   2.136 -0.1486 -0.0157  0.6027
28860W        W44477   0.842  10.503  13.968 -0.1266  0.1067 -0.1851
28861W        W44478  10.256  10.134  15.350 -0.1782  0.1373  0.1417
28862W        W44479  14.469   2.925   2.825 -0.3163 -0.1092 -0.2074
28863W        W44480  18.422   3.234   5.746  0.2100 -0.0854 -0.1198
28864W        W44481  14.719  11.740  12.318 -0.1543 -0.2150  0.2430
28865W        W44482  17.720   4.000   3.288 -0.0504 -0.2604 -0.0956
28866W        W44483   6.373   5.909  10.460 -0.3800 -0.0066 -0.0100
28867W        W44484   8.496  16.126   5.420 -0.0515 -0.0136 -0.1690
28868W        W44485   2.052  14.987  13.864 -0.0680  0.2360 -0.0421
28869W        W44486  14.152  16.206   5.399 -0.1991 -0.1015 -0.1518
28870W        W44487   1.648  11.756   3.835  0.0334  0.0145  0.4829
28871W        W44488   9.312  13.170  10.818 -0.1027  0.0284 -0.2387
28872W        W44489  10.990  14.560   3.336 -0.0819 -0.5043 -0.3811
28873W        W44490  17.757   7.247  11.856  0.1347 -0.0222 -0.0175
28874W        W44491   3.715   6.209  15.807 -0.2386  0.3909  0.6067
28875W        W44492   2.700   2.010   5.423  0.0477 -0.0422  0.1340
28876W        W44493  17.069   0.157  13.838  0.0652 -0.0404  0.2721
28877W        W44494   2.296   7.347  15.224 -0.1694  0.1044 -0.1710
28878W        W44495  16.145  15.912   3.443 -0.3045 -0.0116  0.2167
28879W        W44496   7.117  18.121  14.711  0.2142  0.3188  0.2454
28880W        W44497   6.160   0.957  11.182  0.1445  0.0550  0.2006
28881W        W44498  14.361  13.258   5.229  0.0102  0.0814  0.0262
28882W        W44499   5.036   1.954   2.573  0.1653 -0.3196  0.1476
28883W        W44500   7.836  14.177   1.996  0.2822 -0.0165 -0.0680
28884W        W44501  17.766   7.082   5.000  0.1231 -0.1741  0.1278
28885W        W44502  12.709   3.590   0.554  0.1074 -0.0161  0.0926
28886W        W44503  16.701   0.961  14.248 -0.2341 -0.2357  0.1678
28887W        W44504   9.143  13.995  13.242  0.3633 -0.0895 -0.1879
28888W        W44505  14.764   1.659   2.171 -0.1795 -0.0923 -0.0355
28889W        W44506   6.315   8.512  14.350  0.0573  0.0962 -0.3955
28890W        W44507   7.574   1.793   0.942  0.2147 -0.1823  0.0987
28891W        W44508  15.067   3.399   5.243 -0.3322 -0.1062 -0.2385
28892W        W44509   3.372   4.282   5.219  0.0491  0.2737  0.1260
28893W        W44510   3.320  17.300   0.152  0.0931 -0.0966 -0.1606
28894W        W44511  17.829   6.524   1.050  0.1828 -0.0748  0.1029
28895W        W44512  18.227   2.566   2.708 -0.0493 -0.4240 -0.2446
28896W        W44513   6.712  12.553   2.308 -0.1616 -0.0485  0.0645
28897W        W44514   5.556   6.521   1.621 -0.1130  0.1643  0.3346
28898W        W44515   7.488   8.957  14.667 -0.0646  0.0179 -0.2369
28899W        W44516   9.447  15.775  13.167  0.1552  0.1045  0.1089
28900W        W44517  16.447   6.491  14.402 -0.2924 -0.0407 -0.5164
28901W        W44518   3.002  13.628   5.685  0.1478 -0.0834 -0.1498
28902W        W44519   5.264   7.652  11.202  0.0196 -0.3781  0.2303
28903W        W44520   9.352  15.029   3.602  0.1910  0.0959  0.0576
28904W        W44521   3.885   2.722   3.652  0.0842 -0.1730  0.2049
28905W        W44522  11.265   7.194  11.994  0.0597 -0.1228  0.0259
28906W        W44523  14.105   9.916   0.357  0.2348  0.5358 -0.2188
28907W        W44524   5.968  13.403  15.784  0.0391 -0.0784 -0.1431
28908W        W44525   0.380   6.918   3.786 -0.2167  0.0255 -0.2420
28909W        W44526  16.638   9.058   0.147  0.0719  0.1051 -0.0953
28910W        W44527  12.125  13.278   0.426 -0.0365 -0.2614  0.1279
28911W        W44528  13.446   7.369  15.143 -0.0916  0.0525  0.2377
28912W        W44529   5.094  14.627  12.575  0.0340  0.0060  0.0250
28913W        W44530   1.241   6.902   2.792 -0.2110 -0.1854 -0.3347
28914W        W44531   2.385  14.327  10.800 -0.2261  0.2122 -0.2362
28915W        W44532   9.955  14.898  12.595  0.1940 -0.3874 -0.3103
28916W        W44533  11.118   6.478  13.602 -0.0684 -0.1653 -0.2088
28917W        W44534  17.877   5.232   2.642 -0.0411  0.0896 -0.2348
28918W        W44535  16.290   6.593  15.019  0.0987  0.0419 -0.3184
28919W        W44536   3.445  18.164   2.524  0.0618  0.1260 -0.1428
28920W        W44537   1.712   8.097   4.814 -0.0780  0.2294 -0.0638
28921W        W44538  15.416  12.501  14.413  0.0822 -0.2127 -0.1821
28922W        W44539  11.704  13.339   3.556  0.0049 -0.1249  0.0577
28923W        W44540  16.630  14.007   0.179 -0.0363 -0.2246  0.4871
28924W        W44541   1.529   7.004  15.599 -0.1935 -0.4796 -0.1205
28925W        W44542   5.108   4.253  11.050 -0.0740  0.1686 -0.1327
28926W        W44543  13.230   3.351  11.899 -0.2250  0.0360 -0.0003
28927W        W44544   9.487   8.861  12.530  0.0633  0.1209 -0.0400
28928W        W44545   9.297   8.501   4.178  0.0244 -0.1287  0.0850
28929W        W44546   6.002  15.197  13.507 -0.0403 -0.0148 -0.0564
28930W        W44547   1.286   5.240  16.036 -0.0819 -0.0035 -0.1629
28931W        W44548   6.324  15.031   0.250  0.0872 -0.1209  0.1050
28932W        W44549  15.498   1.898   3.777 -0.0710 -0.0933 -0.0897
28933W        W44550   2.649   8.188   2.301  0.1753 -0.1187 -0.1512
28934W        W44551   8.508  10.498  11.351 -0.1655  0.1494 -0.1287
28935W        W44552   4.821   8.415   2.708 -0.0623  0.1545 -0.0697
28936W        W44553   6.996   9.252  12.079  0.1112  0.2552 -0.2110
28937W        W44554  16.444   1.587   3.342 -0.0904 -0.1510 -0.0124
28938W        W44555   3.384   2.661   2.723  0.2568  0.0731 -0.0313
28939W        W44556   1.198  15.357  13.549  0.1016 -0.0487 -0.0422
28940W        W44557   9.714   3.524  15.837  0.1317 -0.3947 -0.0848
28941W        W44558  14.409   5.999  13.081  0.3740  0.3172 -0.0204
28942W        W44559   8.809   4.849  14.489  0.1407 -0.2436 -0.2246
28943W        W44560   1.133   3.416   0.512 -0.1766  0.2781  0.0107
28944W        W44561  15.372   4.294  13.524  0.2979 -0.2233 -0.1203
28945W        W44562   3.800   0.126   2.132 -0.0585  0.0485  0.4613
28946W        W44563   7.567   7.278   4.356 -0.1885 -0.2861 -0.1948
28947W        W44564   2.815   9.694  12.197  0.0292 -0.0876  0.3626
28948W        W44565  15.585   5.226  14.475 -0.1143 -0.1092 -0.0997
28949W        W44566  11.827   6.865  11.565 -0.1588 -0.3771 -0.2539
28950W        W44567   9.475  11.604  13.129  0.2578 -0.0553 -0.2971
28951W        W44568  10.456   2.393  13.309 -0.2357  0.0579  0.2437
28952W        W44569   6.616   0.218  15.196  0.0632 -0.0410  0.0028
28953W        W44570   9.846  16.946   1.500 -0.1369 -0.2615 -0.1717
28954W        W44571  12.362   6.885   4.980 -0.0849  0.0277  0.0898
28955W        W44572  17.974  13.674   4.483 -0.0560  0.1259 -0.3093
28956W        W44573   7.865  10.245  15.340 -0.0232  0.0320  0.1158
28957W        W44574   0.672  11.895   0.511 -0.0895 -0.1001  0.3361
28958W        W44575  14.491  13.899   2.844 -0.3410  0.1339 -0.1513
28959W        W44576  13.893   8.483  14.671 -0.0039  0.2303  0.0912
28960W        W44577  16.311  17.785   0.637 -0.1024  0.1297  0.1159
28961W        W44578  16.057  16.942   5.201  0.0049  0.0388 -0.2229
28962W        W44579   3.789   7.524   2.696 -0.0581 -0.3185 -0.0635
28963W        W44580   8.117   8.149   5.154  0.3224  0.0316 -0.4720
28964W        W44581   5.260   1.752   1.778 -0.1737 -0.1531 -0.0864
28965W        W44582   0.029  16.938  12.893 -0.0248 -0.1513 -0.1362
28966W        W44583   7.991   5.121   3.960  0.0599  0.1845 -0.2478
28967W        W44584   6.836  16.838  15.963 -0.2420 -0.1445  0.3108
28968W        W44585  15.692   5.866  15.094  0.1600  0.0394 -0.4220
28969W        W44586   9.060   8.829   3.754  0.0593 -0.0059  0.0235
28970W        W44587   0.444   3.771   5.071  0.3501 -0.1938 -0.0842
28971W        W44588  16.959   3.681  14.719  0.1183  0.3985 -0.1075
28972W        W44589   5.965   0.801   5.428  0.1651 -0.0614 -0.0539
28973W        W44590   6.234  10.973   0.856  0.0375 -0.0013 -0.2340
28974W        W44591   0.582  11.323   0.057 -0.2521 -0.3426 -0.0890
28975W        W44592  10.858  16.015   1.380 -0.3660  0.0297  0.0529
28976W        W44593   5.753  12.626   2.699  0.3734  0.0368  0.1333
28977W        W44594  10.834  12.609  14.902 -0.0003  0.1773  0.1688
28978W        W44595   6.522  11.915   0.550  0.4317  0.2274 -0.3362
28979W        W44596   9.162  13.238   4.955  0.2682 -0.0842  0.1085
28980W        W44597   2.064   5.523  12.534 -0.0420 -0.1110 -0.3850
28981W        W44598   1.779   3.559  15.424  0.1272  0.0730 -0.3997
28982W        W44599   5.696   9.080  11.415 -0.0968 -0.2145 -0.1843
28983W        W44600   4.730   8.241   5.202 -0.0517  0.1651  0.0703
28984W        W44601   3.918   6.042  15.298 -0.2897  0.0164  0.0734
28985W        W44602  15.730  10.639   4.192  0.1304  0.2623 -0.1665
28986W        W44603   8.992   2.414  12.242  0.1834 -0.0637 -0.0818
28987W        W44604   6.831   4.963  11.703  0.0095 -0.0490 -0.0685
28988W        W44605  16.221  17.363  16.018 -0.1321  0.0728  0.1387
28989W        W44606   9.154   1.861  13.498 -0.0522  0.3764 -0.0665
28990W        W44607   1.049   5.746  11.394  0.1216  0.1368  0.1987
28991W        W44608  16.120   9.507   1.452  0.1203  0.1712  0.2735
28992W        W44609   3.376   9.812  11.260 -0.2155  0.0747  0.0001
28993W        W44610  15.410  10.701   2.772 -0.0055 -0.5500 -0.0728
28994W        W44611  12.195  10.128   0.457  0.0869  0.1305 -0.0604
28995W        W44612   3.873   4.342   4.383  0.0346 -0.1708 -0.2471
28996W        W44613   0.365  15.779  12.624  0.1627  0.2543 -0.1238
28997W        W44614  16.930  15.260   5.671  0.2186  0.1362  0.1771
28998W        W44615  14.906   9.232   1.970 -0.3063 -0.1647 -0.0158
28999W        W44616  17.718   3.845  14.995 -0.1671 -0.0768 -0.2293
29000W        W44617  17.443   9.589   2.995  0.0046 -0.0413 -0.0009
29001W        W44618   4.231   5.907  14.345  0.4019 -0.1976 -0.0277
29002W        W44619  11.427   8.123   2.592 -0.0308  0.1575 -0.1651
29003W        W44620   9.363  16.126  14.292  0.2344 -0.0734 -0.1451
29004W        W44621  13.821   1.354  12.901 -0.2789 -0.2127 -0.0343
29005W        W44622   8.965  17.892  12.033 -0.0631 -0.1547  0.0105
29006W        W44623   0.691  16.064  12.943  0.2079  0.1710 -0.0833
29007W        W44624  15.281   6.969  14.167  0.0372 -0.0367 -0.3229
29008W        W44625   4.389  16.831  12.034  0.0254 -0.0362  0.0346
29009W        W44626  18.243  17.535  12.054 -0.2161 -0.0560 -0.1218
29010W        W44627  12.752   4.582   4.099 -0.3332  0.5970 -0.0971
29011W        W44628   8.012  12.173   4.101 -0.0935  0.0789 -0.1760
29012W        W44629  12.531   8.919  15.359 -0.1835 -0.2584 -0.1257
29013W        W44630  11.608   2.861  10.635 -0.0809  0.2360 -0.1187
29014W        W44631  12.601   1.760   3.629  0.2081  0.3303 -0.1724
29015W        W44632  14.685  16.573   0.200 -0.4616 -0.1277  0.2479
29016W        W44633   2.275   0.346  13.012 -0.1788  0.1046 -0.3135
29017W        W44634  17.512  12.429  15.909  0.2970  0.2026 -0.0987
29018W        W44635  17.420   6.139  15.202  0.2252  0.1779 -0.2429
29019W        W44636  15.105  16.497  11.286 -0.0423  0.1174 -0.1250
29020W        W44637   0.019  13.317  12.069  0.1456 -0.2323 -0.0154
29021W        W44638   3.158   5.739   3.630 -0.1035 -0.0213  0.0150
29022W        W44639  10.584   1.162  14.002  0.1867 -0.1678  0.0799
29023W        W44640  15.701  15.622   4.754 -0.1247  0.0195 -0.0654
29024W        W44641   5.327   7.800   2.810 -0.1870  0.0223  0.0993
29025W        W44642  17.353   0.062  13.004  0.1686 -0.0791  0.0902
29026W        W44643  15.818  16.946  13.035 -0.1688 -0.0803  0.0983
29027W        W44644  14.748  14.223   4.564  0.1038 -0.2441 -0.0721
29028W        W44645  10.014  13.604   4.713 -0.0170  0.0478  0.0562
29029W        W44646   6.380   4.443   4.311  0.1928  0.0426  0.0980
29030W        W44647   1.358  11.062  15.579  0.1587  0.2147  0.2794
29031W        W44648  15.917  14.740   1.167  0.0305 -0.0009 -0.1750
29032W        W44649   2.164  15.803   4.667  0.1566 -0.1877 -0.1082
29033W        W44650   7.052  10.672   1.317 -0.1690 -0.3782  0.0401
29034W        W44651   8.767   6.284   5.303  0.0927  0.3498  0.0903
29035W        W44652  17.081   3.727   1.438  0.0512 -0.2370  0.0217
29036W        W44653   7.258  17.040   0.148  0.1445  0.1114 -0.0758
29037W        W44654   1.338  11.383   4.055  0.5327 -0.3176 -0.2607
29038W        W44655  12.098   8.025  12.210  0.1569 -0.0390  0.2282
29039W        W44656   0.330  13.667  15.751 -0.0357 -0.2400  0.0253
29040W        W44657   4.105  14.690  12.107  0.2426 -0.1482 -0.1425
29041W        W44658   2.335   7.508  15.774 -0.1573 -0.3218 -0.1564
29042W        W44659  15.650  16.039  13.111 -0.0463 -0.1262  0.2404
29043W        W44660   3.473   3.027  14.104 -0.0868 -0.1201  0.1383
29044W        W44661  15.056   6.433   0.088 -0.2547 -0.0764 -0.0037
29045W        W44662   3.514   5.637  11.684 -0.0887  0.2252  0.1293
29046W        W44663  17.175   7.464   3.001 -0.0561  0.0022 -0.0435
29047W        W44664   8.869   6.427   1.202  0.0908 -0.1032 -0.3021
29048W        W44665  13.283   5.272  12.715 -0.0831  0.3340 -0.4818
29049W        W44666  13.305  11.653  12.503  0.0526  0.1862 -0.3640
29050W        W44667   4.784   8.955  12.753  0.0719 -0.0968  0.1202
29051W        W44668   8.903  15.523   0.955  0.0399  0.1523 -0.0775
29052W        W44669   1.874  14.268  12.814 -0.0143 -0.0110 -0.3853
29053W        W44670   1.854   0.920   3.965  0.3930 -0.0006 -0.1558
29054W        W44671   4.492   5.213  15.568  0.3233 -0.2978 -0.0800
29055W        W44672  17.399   6.310   3.798  0.0689 -0.1535 -0.1472
29056W        W44673   1.797  16.236  13.825  0.0240  0.2539  0.0203
29057W        W44674   6.538  12.450  13.665 -0.2627  0.2167  0.3224
29058W        W44675  18.040  10.205  13.614 -0.0664 -0.2567 -0.1540
29059W        W44676   0.954   1.187  16.000  0.0662 -0.2305  0.0722
29060W        W44677   5.897  12.667   0.174 -0.1316 -0.0790 -0.1012
29061W        W44678  16.681  13.155  11.085 -0.2809 -0.2931 -0.0309
29062W        W44679   9.389   5.950   3.026 -0.3948 -0.0540  0.1387
29063W        W44680  16.592  16.751  15.518  0.0170 -0.0738 -0.2122
29064W        W44681   8.270  14.252  15.439  0.1432 -0.0262 -0.0761
29065W        W44682   7.977  14.700  11.259 -0.1219  0.0362  0.1320
29066W        W44683  17.849  10.499  14.712 -0.0439  0.3081  0.4324
29067W        W44684   4.073  10.887   5.195  0.1493  0.2943  0.0335
29068W        W44685   2.002   0.526   3.438  0.1472 -0.0675  0.1453
29069W        W44686   3.919  11.397  14.105 -0.1043  0.0155  0.1526
29070W        W44687   5.313  16.170  15.947 -0.1430  0.0007  0.1127
29071W        W44688  12.589  15.176   5.662 -0.1921 -0.1341  0.2249
29072W        W44689  14.373  11.042   4.883  0.3430  0.2681  0.0216
29073W        W44690  16.074   9.870   2.389 -0.0557  0.1463 -0.2152
29074W        W44691  15.564   2.819  15.566 -0.1215 -0.2989  0.0502
29075W        W44692  12.045   6.579  14.009  0.1823  0.3686  0.0107
29076W        W44693   4.359  14.133   4.940  0.1450  0.1135 -0.0157
29077W        W44694  10.850   2.013  14.719 -0.2440 -0.1757 -0.1991
29078W        W44695   3.978   5.487  11.541 -0.1623  0.1063 -0.2556
29079W        W44696   1.092   9.760  13.322 -0.3693  0.2461  0.2341
29080W        W44697   0.796   5.820   3.912  0.0220  0.1419 -0.3061
29081W        W44698  16.627   6.070  12.755 -0.3803  0.2631  0.1572
29082W        W44699   0.565   5.866  11.208  0.1309 -0.1856 -0.2610
29083W        W44700   5.565   2.865  15.054 -0.1548 -0.0434 -0.0306
29084W        W44701  10.568  16.775   2.553 -0.2620 -0.3191  0.1101
29085W        W44702  15.432   3.376   2.661  0.2329 -0.0817  0.2603
29086W        W44703   0.804  13.969  13.804 -0.1106  0.1309 -0.0327
29087W        W44704  10.089  16.064   1.118 -0.1217  0.1568  0.0529
29088W        W44705  14.905   7.268   1.756  0.0365  0.1784 -0.0840
29089W        W44706  15.471   7.044   3.941 -0.0055  0.1039 -0.3601
29090W        W44707   4.474   1.157  13.174 -0.2981 -0.1942  0.0882
29091W        W44708  13.055   1.819   2.137 -0.2215 -0.1768  0.0440
29092W        W44709   1.658   7.893   3.289  0.0288  0.0932  0.2330
29093W        W44710   9.170   5.733   0.558 -0.0573  0.0171  0.1326
29094W        W44711   9.858   1.347  13.942 -0.3211 -0.0332 -0.0280
29095W        W44712   6.114   1.365   1.114 -0.0568  0.1073  0.0339
29096W        W44713   1.900  12.762  13.277 -0.0057  0.0001  0.1941
29097W        W44714   9.867   3.433   0.538  0.3669 -0.4283 -0.3750
29098W        W44715   4.952   2.996   0.385  0.1918 -0.0113 -0.2760
29099W        W44716  18.379   7.571  13.012  0.4020 -0.1932 -0.2455
29100W        W44717  14.784   1.861  10.841  0.0139  0.0526 -0.3083
29101W        W44718   4.318   6.060  11.019  0.1811  0.0740 -0.2330
29102W        W44719  17.069  15.672   1.820 -0.0323  0.2429 -0.0534
29103W        W44720   1.855   2.465   2.047 -0.0505  0.2922 -0.2093
29104W        W44721   5.381  13.075  13.630 -0.3935 -0.0213  0.1103
29105W        W44722   3.740   2.044   4.219  0.0875 -0.4873  0.0696
29106W        W44723  15.572  12.290  12.309  0.1044 -0.2158  0.2048
29107W        W44724   9.326  12.228   4.648  0.1019 -0.0773 -0.3350
29108W        W44725  16.950  18.271  12.153  0.0058 -0.0022  0.0793
29109W        W44726   0.518   5.399   1.041 -0.3878  0.0705  0.2737
29110W        W44727   6.605   5.775   2.405 -0.2065  0.2027 -0.1602
29111W        W44728   1.972   9.958   5.671  0.2364  0.2385  0.0588
29112W        W44729   6.358  12.933  13.422 -0.1688 -0.0003  0.0461
29113W        W44730   0.643   3.631  11.376  0.0341  0.1247 -0.1322
29114W        W44731   7.753  16.671   2.391 -0.3169  0.1550 -0.2929
29115W        W44732   9.209   3.794   0.406  0.0759  0.4408 -0.3083
29116W        W44733   5.723  11.293   5.255  0.1025 -0.0003  0.0231
29117W        W44734   0.564  10.403  11.713  0.2019  0.0607 -0.0972
29118W        W44735   4.801  16.967  15.458  0.0352 -0.0427  0.1165
29119W        W44736  15.292   8.293  10.833 -0.2494  0.2492  0.0843
29120W        W44737   8.372  10.521   5.819  0.0337  0.1028  0.0478
29121W        W44738  18.062   3.144  11.935  0.2069 -0.1716  0.2786
29122W        W44739  12.367   3.239  14.368 -0.1011  0.1777  0.1289
29123W        W44740  17.036   6.614  14.049  0.5196 -0.1549 -0.0664
29124W        W44741  13.819   8.101   3.526  0.1070  0.1707  0.2759
29125W        W44742  18.391   5.500   4.201  0.1437  0.1848  0.1120
29126W        W44743  17.181   1.300   5.079 -0.1484 -0.2846 -0.1301
29127W        W44744   3.827  11.972  14.050 -0.2021  0.0032 -0.1851
29128W        W44745   0.767  12.489   4.537  0.0915  0.0382  0.1340
29129W        W44746   9.370   8.622  15.202  0.0412 -0.1338  0.0498
29130W        W44747  16.923   2.051  13.971  0.1651 -0.1398 -0.3216
29131W        W44748   0.044   6.737   2.492 -0.6684  0.4485  0.4121
29132W        W44749   0.852   2.872   0.927 -0.1151  0.1739 -0.1218
29133W        W44750  18.300  13.857   5.788 -0.4033 -0.1515 -0.2045
29134W        W44751  10.660  15.639   2.236  0.0959 -0.2677  0.1599
29135W        W44752  17.871  15.081  15.217  0.2179  0.0858  0.0941
29136W        W44753  13.041   7.497  11.229 -0.0776 -0.0076 -0.1761
29137W        W44754   9.596   5.209   3.440  0.1280  0.1347  0.1753
29138W        W44755   4.927   7.037  13.255  0.0532 -0.1352 -0.2009
29139W        W44756   1.667  13.675   4.800 -0.1668  0.0450  0.0427
29140W        W44757   5.311  10.113  15.559  0.4387 -0.0450  0.3798
29141W        W44758   7.919   9.143   1.472  0.1062 -0.3357 -0.3026
29142W        W44759   5.924   9.963  14.304 -0.2345  0.0372  0.0910
29143W        W44760  12.450  12.941   0.038 -0.4072 -0.0152  0.3897
29144W        W44761  14.364   7.663  16.087  0.0852 -0.3421  0.0909
29145W        W44762  12.661  12.065   4.232 -0.2342 -0.1112 -0.0794
29146W        W44763  17.147   6.262  11.732  0.0254  0.1225  0.2128
29147W        W44764  11.605  18.374   2.741  0.0313  0.0847 -0.0977
29148W        W44765  15.029  12.069  11.681 -0.2228 -0.0544  0.1887
29149W        W44766  17.426   2.234  13.875  0.0590 -0.1540 -0.0042
29150W        W44767   8.303   2.900   1.935 -0.3657 -0.1658  0.2319
29151W        W44768   7.928  11.234  11.890  0.0289 -0.0604 -0.1399
29152W        W44769  10.933   5.910  12.767 -0.2690  0.0418  0.2878
29153W        W44770  17.820  14.630  11.211 -0.0397  0.0249  0.0994
29154W        W44771  17.602   2.578  14.230 -0.0237  0.1310  0.0352
29155W        W44772  16.980  12.644   5.150  0.2536 -0.2761  0.1986
29156W        W44773   5.060   8.043   4.176  0.1889  0.3463  0.1488
29157W        W44774  13.209  15.765   4.699  0.0528  0.1741  0.2393
29158W        W44775   7.935  13.987   3.171  0.0374  0.1142 -0.0644
29159W        W44776  15.760   5.931   3.108  0.0691  0.1116 -0.2131
29160W        W44777  10.881  10.636  13.809 -0.0728  0.1096 -0.0954
29161W        W44778   2.680  18.236   4.827 -0.1754  0.1929  0.2079
29162W        W44779   5.833   8.202  15.398 -0.1471 -0.3312  0.1307
29163W        W44780  15.161   3.839   5.909  0.2120  0.0320 -0.1647
29164W        W44781   9.858  15.040   2.238  0.0312 -0.2539  0.0749
29165W        W44782  16.023   5.307   4.884 -0.0914  0.0435  0.1437
29166W        W44783   1.834   5.038  12.529  0.1487  0.0812 -0.1770
29167W        W44784   7.469   8.844   3.104 -0.1210 -0.3162  0.4245
29168W        W44785   5.554   5.886   5.129  0.1142 -0.3334  0.1707
29169W        W44786  12.878   5.176   1.808  0.4646  0.2309 -0.0990
29170W        W44787  11.978  16.648  12.904  0.1116  0.0545 -0.1885
29171W        W44788   9.046  16.286   2.404 -0.1127  0.0165  0.2136
29172W        W44789  15.296   3.831  14.684  0.0338 -0.1023  0.4358
29173W        W44790   0.299   4.114  11.952  0.1422  0.0195 -0.2467
29174W        W44791  14.219   9.642  15.968 -0.2670 -0.0006 -0.0559
29175W        W44792  17.048  10.831  13.595 -0.3723 -0.4243  0.1224
29176W        W44793   1.627  12.655   0.284 -0.1099 -0.1887  0.2071
29177W        W44794  14.345  17.152   4.537  0.1157 -0.1614  0.1140
29178W        W44795  13.456   5.590  10.833  0.2223 -0.0590 -0.1435
29179W        W44796   1.666   1.456   1.062 -0.3913 -0.2183  0.1125
29180W        W44797  17.343  11.387   3.837  0.0542 -0.3282 -0.0615
29181W        W44798   5.441  10.616   4.236  0.0958  0.3267 -0.0819
29182W        W44799   0.940   0.586  14.184  0.0616  0.1215 -0.1435
29183W        W44800  18.028   7.537   4.590 -0.1440 -0.4195  0.0568
29184W        W44801  14.560   7.325  12.684 -0.0509  0.1033 -0.2573
29185W        W44802  11.445   6.866   0.413  0.0869  0.3211  0.0067
29186W        W44803  11.575   0.883   0.154 -0.0061  0.0049 -0.0244
29187W        W44804   0.984  12.098  11.087  0.0962 -0.0433  0.0212
29188W        W44805   0.397  11.841   3.341 -0.1553  0.2029 -0.2745
29189W        W44806  10.025   1.224  15.502 -0.1232 -0.2764  0.1565
29190W        W44807   2.302  17.554  14.073 -0.0911  0.2956  0.1267
29191W        W44808   7.193   7.677   4.188 -0.1205 -0.0368 -0.1449
29192W        W44809   0.915  15.038  14.693  0.6277 -0.0185  0.0719
29193W        W44810   3.670  14.790   4.989  0.0367  0.0703  0.1701
29194W        W44811  16.677   6.392  13.631 -0.1448 -0.3418  0.0565
29195W        W44812  15.995  15.160  15.590 -0.0020  0.0353 -0.0478
29196W        W44813  11.293   7.544  12.437 -0.2346 -0.1050  0.2918
29197W        W44814  12.811  12.887   0.868  0.1915 -0.3042 -0.0390
29198W        W44815  18.176   5.206  12.920 -0.0437  0.2610  0.0820
29199W        W44816  16.547   8.208   5.897  0.2500  0.4018 -0.1357
29200W        W44817   6.835   6.133  11.113 -0.1278 -0.0708  0.2388
29201W        W44818  11.596   5.188   4.029 -0.3873 -0.1413  0.2433
29202W        W44819  15.469  13.770  11.747 -0.0529 -0.0139 -0.5141
29203W        W44820  15.140  14.782   5.170 -0.1374 -0.2326  0.0568
29204W        W44821   0.543   1.516   2.241 -0.0895  0.1269  0.4149
29205W        W44822   9.565   6.406   1.616 -0.2746 -0.1119  0.2493
29206W        W44823   0.706  15.426   4.985  0.0636 -0.1556  0.1522
29207W        W44824  11.351  15.330   3.403 -0.2484 -0.1647  0.1885
29208W        W44825  13.006  15.057   3.877  0.0407  0.0461  0.1858
29209W        W44826   7.055  11.701   3.430  0.1724 -0.1298 -0.0913
29210W        W44827   0.736   3.890   0.554 -0.0513 -0.3318  0.0757
29211W        W44828  10.145  12.305   1.565 -0.1870 -0.0689  0.2950
29212W        W44829   6.382   2.297  14.976 -0.0032  0.0331 -0.0962
29213W        W44830   6.697  15.982   4.292  0.2539 -0.2447  0.1968
29214W        W44831  11.095  15.424  10.712  0.2084 -0.1175 -0.1732
29215W        W44832   2.294  11.201  14.750 -0.2240 -0.1343 -0.1935
29216W        W44833   0.709  14.336   5.552 -0.0259  0.1808 -0.0918
29217W        W44834  13.365  14.650   2.694  0.0636  0.0532 -0.1834
29218W        W44835   2.244  16.307  14.900  0.2125 -0.1833  0.0026
29219W        W44836  11.686   6.381   0.431 -0.1867  0.2113 -0.0116
29220W        W44837  16.442   5.130   3.038 -0.1437 -0.0945 -0.0909
29221W        W44838  10.315  14.128  14.649 -0.0736  0.1128  0.1484
29222W        W44839  16.151   7.030  11.674  0.2509 -0.2612 -0.3266
29223W        W44840   7.254   8.063  14.306  0.1037 -0.0099 -0.0183
29224W        W44841  15.944   8.360   1.922  0.0517  0.0409 -0.0036
29225W        W44842   2.874   6.186  11.191 -0.0347 -0.0356 -0.1072
29226W        W44843   9.229   3.077   2.260 -0.0001 -0.3984 -0.0684
29227W        W44844   5.803   3.020  14.595  0.0669  0.0809 -0.0768
29228W        W44845   4.591   5.041  14.019  0.4700 -0.0987 -0.0588
29229W        W44846  15.240   4.089  10.661  0.1934 -0.2695 -0.1099
29230W        W44847  16.476  18.378   2.838 -0.1587  0.2424  0.1685
29231W        W44848  14.796  12.467   1.664 -0.0504 -0.0955  0.0356
29232W        W44849   2.440   6.032   5.015  0.2636 -0.0884  0.1103
29233W        W44850   9.725  15.148  15.896  0.1493  0.2817 -0.0884
29234W        W44851  14.055  18.346   5.091 -0.2200 -0.1963 -0.2487
29235W        W44852  15.970  11.788  16.063 -0.2343 -0.3010  0.2439
29236W        W44853   5.561  11.708   2.459  0.2370  0.2228  0.0422
29237W        W44854  11.733  18.375  11.032 -0.0245  0.0439 -0.2677
29238W        W44855   4.988  17.979   2.172 -0.0845 -0.0086 -0.0154
29239W        W44856   9.642  12.993  15.517 -0.3568  0.0680  0.1141
29240W        W44857  18.032   3.246   1.671  0.0448 -0.3246 -0.0054
29241W        W44858   8.733   8.251  11.044 -0.0747 -0.0306 -0.0437
29242W        W44859  11.860   4.294   4.294 -0.1374 -0.0248 -0.0220
29243W        W44860  13.862   8.315   1.703  0.1837 -0.0451 -0.3346
29244W        W44861   3.111   4.672   5.005 -0.2577  0.1690 -0.1566
29245W        W44862   4.168   8.757  11.353  0.2509 -0.0566 -0.0349
29246W        W44863  17.964  15.504   2.489 -0.3017  0.3514  0.1026
29247W        W44864   2.593  16.629  13.656  0.1273  0.1086 -0.0366
29248W        W44865   2.721  17.591   1.917  0.3184  0.2869 -0.1295
29249W        W44866   2.702   8.495  15.936  0.0870  0.0687  0.2340
29250W        W44867  11.299  14.063  13.321 -0.1232  0.0216  0.3039
29251W        W44868  16.862   7.146   1.828  0.0144  0.0787 -0.1636
29252W        W44869   9.550  13.422  14.543 -0.0688 -0.1226 -0.2728
29253W        W44870  16.513   9.937  13.296 -0.3014 -0.1732  0.1757
29254W        W44871  15.770   9.940  11.247  0.1340 -0.2097  0.0479
29255W        W44872  12.529  16.870   2.453 -0.1766 -0.0505  0.0765
29256W        W44873   0.902  12.338  13.541 -0.0314 -0.2401 -0.1063
29257W        W44874   9.533   5.607   1.709  0.0653  0.3294  0.1115
29258W        W44875  13.191  12.985   3.810 -0.0316 -0.1430 -0.1579
29259W        W44876   4.042  18.097   2.273 -0.3721  0.2820  0.1854
29260W        W44877  14.572  15.723   0.123 -0.0999 -0.1569  0.2129
29261W        W44878  12.291   3.060   4.800 -0.2657 -0.0307  0.1305
29262W        W44879  11.453   8.380  13.835  0.0257 -0.0285  0.0941
29263W        W44880   9.882   4.779   2.145  0.0035  0.0004 -0.4297
29264W        W44881  13.945  14.323   1.403  0.0352 -0.0713 -0.0600
29265W        W44882  17.498   7.431   2.573  0.1212  0.0023 -0.0151
29266W        W44883  14.066  15.557  13.915  0.0525  0.0615  0.2063
29267W        W44884   7.932  17.926  13.237  0.2610  0.0625  0.3265
29268W        W44885  11.603  15.594   1.595  0.2853  0.0360 -0.2606
29269W        W44886  17.672  15.818   0.099 -0.0328 -0.1361 -0.0341
29270W        W44887   1.660   5.466  15.102 -0.3507  0.3130  0.3131
29271W        W44888   0.622   4.136   3.825 -0.2340 -0.4383 -0.0692
29272W        W44889  17.309  12.787  14.135 -0.0079 -0.1778 -0.1818
29273W        W44890  13.395  14.402  12.762 -0.1129  0.1121  0.2683
29274W        W44891   4.065   9.021  10.903 -0.1818  0.2702 -0.2355
29275W        W44892  10.852  12.215   3.165  0.2288  0.0951 -0.1430
29276W        W44893  14.365  13.747   5.391 -0.2735 -0.1398  0.0957
29277W        W44894   2.951   5.035   4.042  0.1384  0.2060 -0.1308
29278W        W44895   2.797   4.535  11.278  0.0657  0.1818  0.0481
29279W        W44896  10.334  10.600   4.739  0.1667  0.1782 -0.4738
29280W        W44897   7.425   6.129  14.805  0.3859 -0.0230  0.1389
29281W        W44898  12.306   4.301   3.974 -0.0864  0.1622 -0.0062
29282W        W44899  15.567   2.521  15.959  0.1179 -0.2051 -0.0860
29283W        W44900  16.602  14.156  14.009 -0.1027  0.0411  0.1469
29284W        W44901  15.213  11.324  10.711  0.3105 -0.1233  0.0025
29285W        W44902   3.634  14.576   1.518 -0.0730  0.0059 -0.1887
29286W        W44903   5.772   7.851  11.795 -0.3166 -0.1162  0.3982
29287W        W44904  13.681   7.680  14.817  0.2489 -0.1001 -0.1293
29288W        W44905   2.721   9.798   5.036  0.1455 -0.0508 -0.1272
29289W        W44906  16.151  11.219  13.337 -0.0708 -0.0782  0.0676
29290W        W44907  14.358  18.051  12.119  0.0221  0.0155 -0.2504
29291W        W44908  15.003   1.487  11.189  0.2211 -0.0675  0.0971
29292W        W44909   6.959   2.775  12.770  0.2127  0.0366  0.0852
29293W        W44910  14.828  11.977  15.254  0.2321  0.4007  0.1596
29294W        W44911   4.128  15.935  15.080 -0.1650  0.1660 -0.0300
29295W        W44912   1.644   6.662   3.212 -0.0900  0.1025 -0.1825
29296W        W44913   0.642   2.157  15.548  0.3324 -0.1033  0.0265
29297W        W44914   4.519   5.388   2.797  0.0155  0.0948 -0.0063
29298W        W44915   4.416   4.946   5.227  0.2721 -0.0891  0.2452
29299W        W44916   3.136  15.857   1.283  0.1636  0.0404  0.0185
29300W        W44917  13.825   2.172  15.618  0.0680  0.4288 -0.0481
29301W        W44918   9.990  11.559   0.874 -0.1657  0.0488  0.1543
29302W        W44919  13.542   5.876  15.782  0.3173  0.0086 -0.0612
29303W        W44920   8.002  14.129  13.206 -0.0008 -0.1494  0.2517
29304W        W44921  10.751   6.502  13.099  0.1284 -0.1070  0.0503
29305W        W44922  11.323   0.567   4.117 -0.0927  0.0043  0.1472
29306W        W44923   4.783  16.343  13.580  0.0276  0.1307 -0.0764
29307W        W44924   7.915   2.337  11.916  0.0207 -0.3920  0.0931
29308W        W44925   1.408   5.235  14.684  0.2038 -0.1458  0.0601
29309W        W44926  13.321  16.607   1.849 -0.2044 -0.0914 -0.0528
29310W        W44927   3.909  18.090  11.083 -0.2904 -0.2346  0.0764
29311W        W44928   7.980  11.151  15.728 -0.0843  0.2657  0.0970
29312W        W44929   1.796   3.217   2.044  0.1213 -0.2453 -0.0161
29313W        W44930   6.144   1.083   2.921 -0.0389 -0.1007 -0.0398
29314W        W44931  17.126   0.698   0.370 -0.1551 -0.1512 -0.1936
29315W        W44932   6.024  15.430   3.670  0.0295  0.1852  0.3408
29316W        W44933  17.185  15.378   4.253 -0.1069 -0.1022 -0.1880
29317W        W44934  15.036  10.555  12.875 -0.0748 -0.2046  0.1290
29318W        W44935   5.806  17.789  12.038  0.3779  0.1826 -0.0533
29319W        W44936  12.406   3.146  12.609  0.1719  0.2738  0.1420
29320W        W44937   2.251  15.451  13.967  0.3722  0.1329 -0.2299
29321W        W44938  17.909  14.269  14.867 -0.0160 -0.2295 -0.0704
29322W        W44939  14.774   6.334  13.233  0.1147 -0.1361  0.1446
29323W        W44940  13.199  12.089   5.884  0.2793 -0.1120 -0.3193
29324W        W44941  13.595   8.069   5.346 -0.1817 -0.0863 -0.3877
29325W        W44942   9.579   3.362  13.027 -0.3289 -0.0108 -0.1888
29326W        W44943  13.539   9.957  12.904 -0.3346 -0.3148  0.1171
29327W        W44944  12.611  17.163  14.188  0.0333  0.3785  0.2911
29328W        W44945   4.550   2.210  10.358 -0.2016 -0.0829  0.1172
29329W        W44946   0.444  17.571   0.400  0.3442  0.0428 -0.0406
29330W        W44947   7.134   1.167   0.290  0.1072  0.0416 -0.1612
29331W        W44948   3.935   1.862  15.828  0.0345 -0.2180 -0.1523
29332W        W44949  16.410   2.046   3.488 -0.0747 -0.1025  0.0852
29333W        W44950   0.017  17.536   4.723  0.0008 -0.1184 -0.0172
29334W        W44951  12.457  16.681   5.817 -0.0116  0.0087  0.1382
29335W        W44952  10.268  15.830  12.649  0.1777  0.3897 -0.0276
29336W        W44953   8.556   2.217   2.321 -0.0591  0.1514 -0.2255
29337W        W44954   0.772  14.730  11.695  0.5658 -0.0410  0.0829
29338W        W44955   4.254   4.413  12.663 -0.0235 -0.1039  0.2505
29339W        W44956  11.657  17.903   4.168  0.2311  0.0479 -0.2986
29340W        W44957  14.429  16.243  14.923  0.0414 -0.1660 -0.3841
29341W        W44958  11.195  17.845   3.159 -0.0487 -0.2958  0.1585
29342W        W44959  17.001   8.548   3.114 -0.1989 -0.2310  0.0644
29343W        W44960   2.338  12.783   2.858 -0.1630  0.2944 -0.0144
29344W        W44961   9.266   1.949   4.499  0.2819  0.1295 -0.2290
29345W        W44962   5.733  14.399   2.249 -0.2165 -0.0411 -0.3207
29346W        W44963  14.241   0.263  16.058  0.1779 -0.0935  0.1777
29347W        W44964   6.948   3.107  12.375 -0.4326 -0.0145  0.0409
29348W        W44965   5.626   8.369   5.151 -0.0608  0.0089  0.1914
29349W        W44966  17.542  11.036   6.045  0.4267 -0.4236 -0.0002
29350W        W44967  12.747   6.567  13.647  0.2023 -0.0670 -0.3324
29351W        W44968   2.584  18.245  12.232 -0.3940 -0.0183 -0.0662
29352W        W44969   7.103   5.474  13.691 -0.1899  0.0782 -0.0001
29353W        W44970   1.735   8.572   3.951 -0.2207 -0.1621 -0.3343
29354W        W44971  13.603  17.613  16.110  0.3337 -0.0217 -0.2609
29355W        W44972   4.337   8.561  14.835  0.0394 -0.1466  0.3011
29356W        W44973   5.163   1.643   0.446  0.1007  0.0129  0.0101
29357W        W44974   9.802   1.791   3.678 -0.1772 -0.2976 -0.1913
29358W        W44975  10.808  11.790   0.432  0.1405  0.0791  0.0978
29359W        W44976  11.979  12.154   2.547  0.1860 -0.2582 -0.0263
29360W        W44977  16.904  13.082   2.121 -0.0569 -0.1739  0.0674
29361W        W44978  16.041  17.585  15.549 -0.2070 -0.0184 -0.0185
29362W        W44979   4.029   2.359  11.896  0.0851 -0.0924 -0.0346
29363W        W44980   5.451   5.648   2.414 -0.0694  0.0122  0.3765
29364W        W44981   2.821  17.878  11.356 -0.3997 -0.1262 -0.1106
29365W        W44982   1.595  17.247   2.534 -0.0849  0.5045  0.1788
29366W        W44983   6.062   6.363   2.892 -0.1437 -0.0421  0.0903
29367W        W44984   9.830  17.109   2.417 -0.3546 -0.0603  0.3466
29368W        W44985   3.017  14.917  13.688  0.3378  0.0595 -0.2210
29369W        W44986  15.278   0.535   3.744  0.2460  0.0234 -0.2347
29370W        W44987  13.615  13.911  12.510 -0.0942 -0.1970  0.1321
29371W        W44988   8.416   0.580   1.210 -0.4991  0.1582  0.1183
29372W        W44989   8.585   1.417  15.190 -0.0038  0.1132 -0.0471
29373W        W44990   8.285   6.402  13.226  0.0096  0.2700  0.0812
29374W        W44991   4.883   7.626  11.604  0.0085  0.1456 -0.3854
29375W        W44992  14.741   2.004  15.786  0.1465 -0.0152  0.0539
29376W        W44993   9.636  10.984   4.659  0.1294 -0.2946  0.1179
29377W        W44994   1.835   2.795  15.065 -0.1505 -0.0761 -0.3252
29378W        W44995   2.009   4.463  11.994  0.0296  0.1540 -0.0218
29379W        W44996   1.830   4.983  12.048  0.3780  0.1001  0.2240
29380W        W44997  14.878   9.611   5.011 -0.0925 -0.1198 -0.0830
29381W        W44998   9.870  13.946   2.647 -0.1322  0.1454  0.1436
29382W        W44999   0.671   7.841  15.915 -0.1757  0.0809  0.2574
29383W        W45000   6.755   5.359   4.290  0.3882  0.1568 -0.0843
29384W        W45001   6.917   0.948  15.398 -0.1053 -0.3016 -0.1513
29385W        W45002   4.462  10.426  13.782 -0.1010  0.1258 -0.1048
29386W        W45003  14.027  13.074   4.342  0.1848 -0.0412 -0.0247
29387W        W45004  11.030   9.658  13.964 -0.0578  0.1155 -0.1993
29388W        W45005  14.977   0.970  13.899  0.0158  0.1234 -0.2881
29389W        W45006   7.983  11.082   5.342 -0.2975 -0.2213  0.0190
29390W        W45007  12.882  11.457  14.457 -0.1038  0.1717 -0.2483
29391W        W45008   4.728  12.260  13.672  0.0875 -0.1754  0.0330
29392W        W45009   3.653   9.048  14.761  0.1264  0.0534  0.1016
29393W        W45010  12.625  15.478   1.701 -0.0991 -0.1546  0.2917
29394W        W45011  17.294  13.750  12.240 -0.1922  0.1163 -0.2826
29395W        W45012   3.556   1.403  13.500 -0.0146 -0.0174 -0.1778
29396W        W45013   3.312  14.651   4.157  0.2429  0.1392 -0.0202
29397W        W45014  13.719  16.336  14.351 -0.3694 -0.1790  0.0010
29398W        W45015  10.794  15.149   1.361  0.2745 -0.1609 -0.1416
29399W        W45016   7.684  16.675   0.181 -0.1816 -0.2865  0.1796
29400W        W45017  11.940   8.187   1.842 -0.0344 -0.4017 -0.0421
29401W        W45018  13.501  10.702  12.694  0.3758  0.0242  0.0978
29402W        W45019   1.949   6.897  12.858  0.0758  0.2751 -0.2612
29403W        W45020  14.932  12.789  14.400 -0.2663  0.0563 -0.0866
29404W        W45021  14.280   6.016   2.406  0.0715  0.2653  0.1167
29405W        W45022   8.071   4.451   0.378  0.0396  0.0034  0.0656
29406W        W45023   3.972  16.879   4.623  0.0717  0.0683 -0.1213
29407W        W45024  18.073   6.017  11.695 -0.0480 -0.2644 -0.1831
29408W        W45025  17.120  14.182   3.378  0.3545 -0.1728  0.0237
29409W        W45026  12.973   9.626   0.372 -0.0716  0.1664 -0.1490
29410W        W45027   2.906  16.212   5.692  0.0984 -0.2777  0.0524
29411W        W45028   2.174   1.125  13.841 -0.1281 -0.0722 -0.0437
29412W        W45029   2.146   3.749   1.389 -0.0431  0.3060  0.0623
29413W        W45030  13.111   7.278  13.265  0.1708  0.3689 -0.0323
29414W        W45031   7.824  14.451   0.989 -0.0116 -0.1022  0.1293
29415W        W45032  13.328  16.639  16.109 -0.1581 -0.0728 -0.0651
29416W        W45033  11.090   2.717  15.098 -0.0131  0.0891  0.0140
29417W        W45034  13.833   0.260   4.763 -0.1023  0.1465 -0.1672
29418W        W45035  10.165  11.841   4.566 -0.0439 -0.0008 -0.0792
29419W        W45036  13.623   4.339   0.295 -0.2295  0.0796  0.2973
29420W        W45037   6.608  12.194  12.611 -0.1907  0.1543 -0.1695
29421W        W45038   7.443   9.299   2.249 -0.3333  0.0162  0.0682
29422W        W45039  13.057   8.218  11.985  0.1021  0.0034 -0.3940
29423W        W45040  15.162   2.455   5.272 -0.1352  0.3027  0.2436
29424W        W45041   3.595   6.637   4.810 -0.0158  0.1759 -0.5143
29425W        W45042  16.928   5.797  15.400  0.1697 -0.1845  0.0961
29426W        W45043  12.500  18.258   4.455  0.2024 -0.6182  0.0489
29427W        W45044   8.907  14.082  13.674 -0.3625 -0.0560  0.1607
29428W        W45045   4.077   3.412   0.376 -0.0620  0.0463  0.0439
29429W        W45046  10.475  16.783   5.985  0.0095 -0.1021  0.2629
29430W        W45047  18.402  15.850   3.980  0.1801 -0.0464 -0.0028
29431W        W45048   1.613  16.397   0.054 -0.0629 -0.2213 -0.0103
29432W        W45049   5.622  17.329  12.237 -0.0396  0.1188 -0.3064
29433W        W45050   3.706   4.884   2.799 -0.0165  0.0076  0.0982
29434W        W45051  16.171  11.685  12.960  0.0100  0.2747 -0.1421
29435W        W45052  16.060   4.454   2.994  0.1632  0.2584  0.1392
29436W        W45053   2.471   2.430   1.271 -0.0956  0.2743 -0.1920
29437W        W45054   4.816   8.161   4.695 -0.3415 -0.1874 -0.0060
29438W        W45055   4.515   4.130  12.289 -0.0070 -0.3315  0.0588
29439W        W45056   8.213   7.455   4.359 -0.0818 -0.2859  0.1064
29440W        W45057  18.083   1.290   3.121 -0.0014 -0.0050 -0.3737
29441W        W45058  12.732   9.097  12.010 -0.2712 -0.1608  0.0262
29442W        W45059   6.108  12.480  13.380 -0.1105 -0.1078 -0.1053
29443W        W45060  14.228   9.309   4.888  0.1539 -0.0352 -0.1309
29444W        W45061   2.272  14.488  13.496  0.2610  0.5377 -0.3249
29445W        W45062   1.333  18.447   3.837  0.1558 -0.2679 -0.1800
29446W        W45063   5.383   6.461  12.185 -0.0784  0.0268  0.1186
29447W        W45064  18.152   9.678  11.101  0.3629  0.1675  0.0036
29448W        W45065  10.727   7.442   3.854  0.1864  0.0589  0.0050
29449W        W45066  17.430   2.499  14.712 -0.0698  0.0425  0.2660
29450W        W45067   9.759   0.612  11.117  0.1484 -0.0226 -0.0684
29451W        W45068   7.632  18.313   1.045 -0.0516 -0.0631 -0.0571
29452W        W45069  15.064  13.875  12.109  0.1282 -0.0756 -0.0526
29453W        W45070   9.455   5.252   4.743 -0.0937 -0.0070  0.2249
29454W        W45071  12.108  10.506   1.149 -0.0932  0.1460 -0.3013
29455W        W45072   3.720  16.260   1.882  0.2642  0.1571  0.0641
29456W        W45073   0.745   1.388   0.836 -0.1185  0.3178 -0.0887
29457W        W45074  11.100   1.274  14.264  0.4570 -0.1468 -0.2338
29458W        W45075   0.668  11.618  15.209  0.3801  0.0729 -0.0928
29459W        W45076   3.471  12.113   5.660 -0.2286 -0.0278  0.2998
29460W        W45077  12.093   2.945   0.309 -0.4083  0.0988 -0.1117
29461W        W45078  18.093   3.426  13.337 -0.1911  0.1781  0.0419
29462W        W45079   9.851   9.502   5.120 -0.1930 -0.0840 -0.5282
29463W        W45080   2.623   0.194  12.617 -0.2267  0.0215 -0.0563
29464W        W45081   4.854  17.572   3.728  0.1867 -0.1672 -0.2315
29465W        W45082   8.024   5.028   4.428  0.0665  0.0706  0.4904
29466W        W45083   2.982  17.321   5.157 -0.1608 -0.0464  0.1966
29467W        W45084   6.087  18.319   1.637  0.0723  0.0716 -0.0952
29468W        W45085  11.010   1.911  10.442  0.0505 -0.0739  0.0274
29469W        W45086  15.805  14.161  13.537  0.1471 -0.1785 -0.1013
29470W        W45087   4.192   4.809   2.427 -0.0272 -0.0328 -0.3273
29471W        W45088   9.091  14.666   1.219  0.0727  0.0512 -0.2471
29472W        W45089  12.058  10.432  10.420  0.1860 -0.0836 -0.0174
29473W        W45090  14.592   0.776  11.543  0.3348 -0.1310 -0.1173
29474W        W45091  18.052   8.449   4.849  0.1558 -0.1360  0.2210
29475W        W45092  16.304  10.709  14.178 -0.0804 -0.1704 -0.2605
29476W        W45093  18.203  17.212  12.398 -0.2542  0.1703 -0.3578
29477W        W45094   8.491   2.780  15.922  0.1034 -0.1655 -0.0948
29478W        W45095  15.997   0.153   3.258 -0.1751  0.1603  0.0097
29479W        W45096   5.706  15.104  13.114  0.2011 -0.0995  0.1755
29480W        W45097  14.351   9.310   0.813  0.0725  0.2065 -0.1882
29481W        W45098   6.487   1.644  14.787 -0.4856 -0.2193  0.2056
29482W        W45099   7.600   4.500   2.569  0.2706 -0.0245  0.5361
29483W        W45100   7.711   8.457   4.946  0.0463 -0.0396  0.0369
29484W        W45101   4.221   2.524   2.358  0.0608  0.2238  0.0298
29485W        W45102  10.026  18.212   0.776  0.0736  0.2893  0.1562
29486W        W45103   0.247  10.232   2.547  0.0661 -0.0390  0.1610
29487W        W45104  16.248   5.066   1.739  0.0625 -0.1545 -0.1821
29488W        W45105   4.077   1.944   4.835 -0.1782 -0.0212 -0.1840
29489W        W45106  15.144  13.631   2.387 -0.0275 -0.0727  0.3736
29490W        W45107   5.941   0.487  11.136  0.1786  0.3609  0.1299
29491W        W45108  15.221   0.075  13.731 -0.0184  0.0562  0.2640
29492W        W45109  10.428   1.617   3.633 -0.1552 -0.0177  0.2374
29493W        W45110   7.043   4.030   1.239  0.0511  0.0629  0.0188
29494W        W45111  12.751  16.817   4.626 -0.0621  0.1476  0.0144
29495W        W45112   2.269  13.906  14.264 -0.0340 -0.0819 -0.0162
29496W        W45113   8.736  18.283  14.505 -0.0035 -0.2003  0.2356
29497W        W45114   8.315  14.674   5.932 -0.0663 -0.0426  0.2290
29498W        W45115  10.793  10.036   0.070  0.0133 -0.2935 -0.1185
29499W        W45116  11.884   6.196  10.738 -0.1723  0.0055 -0.0586
29500W        W45117   9.039   3.465  14.780 -0.0843 -0.2902  0.1454
29501W        W45118  12.060   9.923   0.905  0.3184 -0.0786  0.4639
29502W        W45119  11.731  16.980   0.614  0.1091  0.0602  0.0850
29503W        W45120  17.706   1.922   1.582 -0.1095 -0.1539  0.0411
29504W        W45121  14.182   8.773   3.672 -0.0535  0.1824  0.0833
29505W        W45122   9.131  13.128  15.536 -0.3344  0.1404  0.2146
29506W        W45123   8.803  11.196  11.839  0.1242  0.0068 -0.0164
29507W        W45124   0.599   8.618  13.451 -0.5720  0.0234  0.1346
29508W        W45125  11.631   6.484  15.888 -0.1106 -0.1880  0.1196
29509W        W45126  15.427  13.321  12.612 -0.6187 -0.1747 -0.0517
29510W        W45127   8.187  10.928   1.629 -0.0046  0.1923  0.1792
29511W        W45128  17.371  17.261   3.801 -0.1274 -0.4651  0.0114
29512W        W45129   7.419  15.461   0.472 -0.2248 -0.3584 -0.1896
29513W        W45130   5.573   3.784  15.536  0.0276 -0.3505 -0.0302
29514W        W45131   7.670  16.061  13.985  0.3531  0.3074  0.0025
29515W        W45132  10.292  16.183  15.410  0.0289  0.2995  0.0489
29516W        W45133  10.220  13.247  15.358  0.0707 -0.3937 -0.0100
29517W        W45134   5.490   6.207   0.278  0.1251  0.0310  0.4215
29518W        W45135  16.512   6.514   3.973  0.1729  0.0480 -0.1552
29519W        W45136  18.305  15.409   5.235 -0.3205  0.0309  0.0889
29520W        W45137   9.932  15.247  12.113  0.0088 -0.0725  0.2279
29521W        W45138   7.277  14.799   3.078  0.0343 -0.1434  0.0702
29522W        W45139  16.113  11.093  11.872  0.1093  0.1112 -0.0153
29523W        W45140   2.551   4.063  10.568 -0.0075  0.0152  0.1821
29524W        W45141   2.041  12.323  12.032  0.0528  0.0514  0.3618
29525W        W45142  11.432  14.313   2.427  0.0492  0.5146  0.0655
29526W        W45143  18.101  12.964   5.820 -0.3836  0.0772  0.0179
29527W        W45144   0.897  12.948   5.907  0.0875  0.0755  0.1642
29528W        W45145   8.373   9.529  12.829  0.0384  0.1711 -0.1805
29529W        W45146   9.982  16.993   0.862  0.2840  0.0603  0.2988
29530W        W45147  12.060   5.206   3.163  0.0859  0.1013  0.0799
29531W        W45148  14.166  16.107  15.373 -0.2097  0.1990 -0.0886
29532W        W45149   5.854   1.571   5.084 -0.1634 -0.3417 -0.0886
29533W        W45150   4.085   6.555   1.909  0.1096  0.4392  0.0658
29534W        W45151   6.533  11.818  12.228  0.0638 -0.3988 -0.1171
29535W        W45152   1.307   2.108  14.615  0.1424  0.1347  0.2066
29536W        W45153   0.558   2.024   2.391  0.3261 -0.2337 -0.0390
29537W        W45154   5.823   3.202   1.549  0.2045 -0.3288  0.2066
29538W        W45155   2.639  14.825   5.385  0.4287  0.0559 -0.0268
29539W        W45156   3.335  12.534   4.629  0.2122  0.2248 -0.1499
29540W        W45157   5.329   6.690   5.659 -0.3625  0.1467 -0.1981
29541W        W45158  16.640   6.914  14.095  0.0861  0.0588 -0.3685
29542W        W45159   8.230  10.924   0.717 -0.0140 -0.2026 -0.0653
29543W        W45160  16.228   7.209  12.973 -0.2235  0.1040  0.1559
29544W        W45161   6.797  10.379  14.231  0.0430  0.1550  0.1247
29545W        W45162  13.265   0.797   2.452 -0.0539 -0.2242  0.1408
29546W        W45163  14.723   2.468  15.554  0.0081  0.2442 -0.0674
29547W        W45164  10.378  16.110   1.495 -0.2035  0.4008 -0.0203
29548W        W45165   6.079   8.242   5.333  0.3294 -0.4481  0.0883
29549W        W45166  17.772   5.955   0.960  0.0698  0.1061 -0.1107
29550W        W45167  14.864   5.087  15.467  0.3031 -0.3029  0.0253
29551W        W45168   2.756  13.255   1.404 -0.0829  0.0962 -0.0171
29552W        W45169   0.201  18.115  12.000  0.0321  0.0207 -0.3191
29553W        W45170   4.282  16.620   1.235 -0.1005  0.0353  0.1504
29554W        W45171  13.622  17.687   0.551 -0.3178  0.0637  0.1234
29555W        W45172   3.909   3.555  12.515  0.0397 -0.3752 -0.2467
29556W        W45173  18.205   6.688  11.268 -0.3360  0.1691  0.1166
29557W        W45174   6.889   1.299  13.728  0.1161  0.1529 -0.0833
29558W        W45175   1.222   0.259   4.486  0.0665 -0.2975 -0.1304
29559W        W45176   4.902  16.774   4.081  0.1463  0.2387  0.2448
29560W        W45177  17.373   5.887   0.618 -0.1919  0.1995 -0.0438
29561W        W45178  13.397  15.085   5.188  0.0357 -0.3776  0.3963
29562W        W45179  11.777   5.339  10.693 -0.0263  0.2135 -0.0372
29563W        W45180   2.519  13.227  10.575 -0.2869 -0.1159  0.0346
29564W        W45181   4.001   6.852   0.132  0.0929 -0.0882  0.0806
29565W        W45182  17.320  13.250   2.369 -0.0089  0.0183  0.2361
29566W        W45183   9.919  12.700  12.164 -0.2343 -0.0825 -0.0710
29567W        W45184   2.645  14.603  14.215  0.0387 -0.2285 -0.2682
29568W        W45185   0.486  10.474  13.570  0.0024  0.2836  0.1493
29569W        W45186  14.268   7.251   2.527 -0.2266  0.4476  0.1997
29570W        W45187   5.994  15.077   5.410 -0.0911 -0.2689 -0.1129
29571W        W45188  17.448   1.066  11.579 -0.1570 -0.0660 -0.2329
29572W        W45189   9.614  12.367   2.828 -0.0401 -0.0699 -0.1218
29573W        W45190  15.462  10.255  10.937 -0.0754  0.1481 -0.1596
29574W        W45191  11.437   4.959  10.699  0.0249  0.0063  0.1813
29575W        W45192   4.620   4.586   5.603 -0.3544 -0.5426  0.0607
29576W        W45193   3.049  14.858  14.235 -0.1004  0.0902 -0.1126
29577W        W45194  17.869  15.793  13.667 -0.1445 -0.0950 -0.1032
29578W        W45195   3.208  12.364   3.815 -0.2236  0.3840 -0.0814
29579W        W45196  14.158  15.088   4.656 -0.1298 -0.0324 -0.0116
29580W        W45197  16.067   3.315  11.258 -0.2931  0.1142 -0.1192
29581W        W45198  11.626   6.187   4.944  0.1704 -0.2182  0.1428
29582W        W45199   3.501  16.755  10.693  0.1999  0.5186 -0.3198
29583W        W45200  17.221  14.569  16.024  0.1415  0.0755  0.1607
29584W        W45201   2.605   8.406   3.487  0.2124 -0.1709  0.1052
29585W        W45202   9.250   3.014  13.006 -0.2216 -0.0717 -0.0938
29586W        W45203  13.338   1.264   1.956  0.2622  0.0486 -0.1999
29587W        W45204  14.079   5.047  10.473  0.1319  0.1518  0.1708
29588W        W45205   4.694  15.231  13.448 -0.3134 -0.1230 -0.0037
29589W        W45206  13.928  14.940   3.803  0.3089 -0.0750  0.4174
29590W        W45207  14.325   5.558   1.184  0.0624 -0.0216  0.0430
29591W        W45208   0.292   3.872  13.237  0.1664 -0.4714 -0.2482
29592W        W45209  17.403  17.336   0.021 -0.2964 -0.0717 -0.0611
29593W        W45210   7.312   3.269   4.644  0.6347 -0.1688  0.2059
29594W        W45211  12.882  14.493   3.742  0.4079  0.0107 -0.0598
29595W        W45212   6.230   3.234  15.555 -0.0376  0.0167  0.2335
29596W        W45213   3.003   4.251  11.715 -0.2109  0.1220  0.0459
29597W        W45214   7.526  14.891  11.194  0.2491 -0.0328  0.1449
29598W        W45215   8.469  17.872   1.583  0.0198  0.3357  0.1065
29599W        W45216  16.301  17.227   2.004 -0.1896  0.1125  0.0225
29600W        W45217  18.236   5.259  10.281  0.0051  0.0027 -0.1307
29601W        W45218   6.875   4.451  11.714 -0.0218 -0.2940  0.0380
29602W        W45219   5.025   0.888   4.493 -0.0363  0.0896 -0.0052
29603W        W45220   4.267   2.732  12.844 -0.0325  0.2341 -0.0960
29604W        W45221   4.879  14.305  15.850  0.0262  0.0539  0.4960
29605W        W45222  14.768  11.511  14.956  0.0423 -0.2610 -0.1137
29606W        W45223   7.298  18.070   5.252  0.0076 -0.0609  0.0691
29607W        W45224   7.130  10.166   1.138  0.1323  0.0368 -0.0411
29608W        W45225  17.261  11.494  14.836  0.3050  0.1482 -0.2538
29609W        W45226  17.537   1.133   0.192 -0.3375  0.0091  0.4730
29610W        W45227   7.109   5.482  14.613 -0.1139 -0.1535 -0.1646
29611W        W45228  12.787   7.455  15.167 -0.1358  0.0370  0.4783
29612W        W45229  13.777   5.741   1.035 -0.0286  0.0286  0.2074
29613W        W45230   0.331   7.908   4.653 -0.0309  0.0247  0.1827
29614W        W45231  10.906  13.981   4.849 -0.2651 -0.2626  0.0870
29615W        W45232   7.404  14.968   2.054 -0.2728 -0.2174 -0.2820
29616W        W45233   2.081  11.430  11.992 -0.0123  0.1769  0.2302
29617W        W45234   9.733   0.676  12.004 -0.0024  0.2463 -0.0659
29618W        W45235   0.031   0.580  12.868 -0.0586 -0.1739 -0.1439
29619W        W45236   6.669   1.147  12.161  0.3979 -0.0539  0.3170
29620W        W45237   8.171   6.419  11.431  0.3046 -0.0231 -0.1097
29621W        W45238   8.196   1.497   2.922  0.0344  0.1025 -0.3778
29622W        W45239   5.701  14.112   3.099  0.0423 -0.1945  0.1397
29623W        W45240  15.379  14.201   2.461 -0.0228  0.3122 -0.0467
29624W        W45241  15.337   8.493  12.669 -0.1843  0.3650  0.3384
29625W        W45242   3.712  10.658   4.899 -0.0040  0.1618 -0.2105
29626W        W45243  14.922   5.905   5.740  0.1020  0.0777  0.1116
29627W        W45244   0.745  16.562  15.513  0.0995 -0.1353 -0.0029
29628W        W45245  13.740   6.251   4.335 -0.0292  0.1854 -0.1232
29629W        W45246   9.408  12.779  11.576 -0.0221 -0.2497 -0.2507
29630W        W45247  17.295   5.310   1.947 -0.0533  0.1040 -0.1000
29631W        W45248   0.699  13.757  15.395 -0.2239 -0.7173 -0.0394
29632W        W45249   8.420   9.529   2.390  0.3237 -0.0257  0.3438
29633W        W45250  11.623   1.523   3.902  0.1991  0.1085 -0.2127
29634W        W45251   0.921  10.894  13.508  0.1020  0.1107  0.0958
29635W        W45252   8.453   9.046  14.976  0.1092 -0.1822  0.1842
29636W        W45253   4.738  16.862  12.658  0.0999 -0.0435  0.1333
29637W        W45254   4.218   3.397   2.001  0.1968  0.0084 -0.0523
29638W        W45255   2.331   2.411   4.818 -0.1027  0.1043  0.0600
29639W        W45256   4.827  16.791   1.192  0.0926  0.0401 -0.1362
29640W        W45257   2.556  16.719  10.893  0.2231 -0.0197 -0.1210
29641W        W45258  11.139  11.415   0.174  0.2188 -0.1278  0.1495
29642W        W45259  18.415   7.899  13.412 -0.0985  0.2711 -0.1181
29643W        W45260   4.915  18.311   1.746  0.2734  0.4161  0.4822
29644W        W45261  10.055   9.880  15.777 -0.1486  0.0523  0.3248
29645W        W45262   5.587   5.375  15.267 -0.3471  0.0804  0.2093
29646W        W45263   4.405  12.875   4.525 -0.0463 -0.0949  0.0983
29647W        W45264   1.637  16.478   4.334  0.0237 -0.1108 -0.0178
29648W        W45265  10.808   3.761   1.768  0.1047 -0.0724  0.1076
29649W        W45266   3.431   3.040   3.097 -0.0096 -0.0725  0.1542
29650W        W45267   7.017   4.967   4.074  0.2978 -0.1322 -0.0664
29651W        W45268   1.796  12.027  13.777 -0.1664  0.0431 -0.1289
29652W        W45269  11.788  13.548   4.190  0.0643  0.2793  0.0479
29653W        W45270   0.185   6.631   0.355 -0.1435  0.1535 -0.0112
29654W        W45271  15.659  12.464  11.308  0.0471  0.0106  0.1118
29655W        W45272   0.844  16.577  12.838  0.0747  0.1042 -0.2919
29656W        W45273  15.025  10.077  12.613 -0.1283  0.2010  0.1855
29657W        W45274  12.907  11.145   0.032 -0.1005 -0.4931  0.0984
29658W        W45275  14.558  14.591  15.374 -0.0628  0.1361  0.2782
29659W        W45276   6.020   2.367  13.576 -0.2252  0.1816 -0.2920
29660W        W45277   8.013   9.748   1.776  0.2533  0.0999  0.1371
29661W        W45278   1.711  13.509   3.847 -0.1194 -0.1411 -0.1498
29662W        W45279  11.888   3.375  14.417 -0.1061 -0.1393 -0.0476
29663W        W45280  10.412   2.522  11.842  0.1169  0.0581  0.1421
29664W        W45281   7.543   6.016   2.783 -0.2521 -0.2434  0.1264
29665W        W45282  11.164  17.153   3.735  0.0612 -0.3515 -0.0245
29666W        W45283  17.369   5.795   3.715  0.0806 -0.0964  0.0600
29667W        W45284   4.531  18.140   2.425 -0.1367 -0.2363 -0.2776
29668W        W45285   4.747  10.261   0.836  0.1565 -0.0500  0.2877
29669W        W45286   7.621   0.648  12.786 -0.0147  0.0173  0.0164
29670W        W45287  11.019  13.399   5.535  0.0234 -0.0106  0.0885
29671W        W45288   1.991  17.003  12.025 -0.0259  0.1348  0.2129
29672W        W45289  16.649   2.500  14.048  0.0041  0.0336 -0.0707
29673W        W45290   8.648   2.329  13.618  0.1473 -0.1993 -0.0687
29674W        W45291   0.662  17.411  11.699  0.3767 -0.0195 -0.1696
29675W        W45292  11.214   7.783  15.129  0.2616 -0.1692 -0.2330
29676W        W45293   5.115   3.654  14.352 -0.0213  0.1690  0.1095
29677W        W45294   6.349  10.332  13.953 -0.2013  0.0315  0.3253
29678W        W45295   1.418   4.530  12.822 -0.0646 -0.3541 -0.0805
29679W        W45296  14.838  13.490   5.312  0.1868 -0.2420 -0.1162
29680W        W45297   8.118   5.858  15.625 -0.1073  0.0389  0.2588
29681W        W45298  14.982   2.799   2.041  0.2407  0.0010  0.0536
29682W        W45299   8.262   1.192   0.493  0.1320 -0.0100 -0.0423
29683W        W45300  13.893  11.911   2.789  0.0580 -0.0246  0.5528
29684W        W45301   8.913   9.206   1.776 -0.0075 -0.1238 -0.1885
29685W        W45302  11.522   5.032   5.140  0.3057  0.2849  0.3423
29686W        W45303  16.584  13.039  12.503 -0.0171 -0.0064  0.2542
29687W        W45304  13.794   5.126  14.283  0.0702 -0.0908  0.0666
29688W        W45305   3.658   9.327   6.047 -0.3934 -0.1213 -0.0176
29689W        W45306   8.248  17.960   6.143  0.0361 -0.0054 -0.1740
29690W        W45307   3.216  13.344  11.524  0.1328  0.1201  0.0451
29691W        W45308  16.920   3.365   4.917 -0.1525  0.1995  0.2697
29692W        W45309   6.640   1.283   0.269  0.0925  0.0738 -0.0616
29693W        W45310   1.768   9.215   4.648  0.0061  0.1928 -0.2034
29694W        W45311  14.678  12.991  11.768  0.0412 -0.1718  0.0932
29695W        W45312   3.737  14.708  12.436 -0.0137 -0.0533  0.3107
29696W        W45313   8.348  17.920  12.862 -0.0964 -0.0888  0.2125
29697W        W45314  17.715  14.561   3.447 -0.1774  0.2021  0.0542
29698W        W45315  12.577  10.022   4.753 -0.1444  0.1906 -0.0549
29699W        W45316  10.974   4.550   4.370  0.1800  0.2300 -0.0737
29700W        W45317   5.842   0.353   3.844  0.2499  0.2211  0.1549
29701W        W45318   5.992  16.608  15.837 -0.2132 -0.0408 -0.0880
29702W        W45319   5.566  13.679   3.276  0.1921 -0.1724  0.0266
29703W        W45320  15.018  14.753   4.670  0.5867 -0.1631  0.0281
29704W        W45321   3.071   2.303   5.578  0.1238  0.1493 -0.1568
29705W        W45322  13.099   3.233   2.234 -0.1820  0.1331  0.5018
29706W        W45323  15.747  11.769   0.375  0.0692 -0.3198 -0.2559
29707W        W45324   5.140  15.367   0.295  0.1709  0.0987 -0.2036
29708W        W45325   3.616   2.189   0.094  0.2617  0.1349  0.1127
29709W        W45326   9.622   8.984   2.512  0.3896 -0.3689 -0.2350
29710W        W45327   2.043   2.255   1.414 -0.2095 -0.1828 -0.0481
29711W        W45328  10.853   9.561   5.467 -0.0537 -0.0542 -0.2659
29712W        W45329   2.235  10.850  13.578 -0.0165 -0.0718  0.0923
29713W        W45330  17.975  16.858  13.200 -0.0965 -0.0900 -0.1984
29714W        W45331  16.596   5.270  15.926  0.3530 -0.0491  0.0240
29715W        W45332  17.804  12.254  13.723  0.0807 -0.0966  0.0934
29716W        W45333   6.222   9.157   1.728 -0.2567  0.0212  0.0656
29717W        W45334  15.053   8.866   3.876  0.0731 -0.1633 -0.0652
29718W        W45335  16.903   2.951   3.009  0.2825  0.0896 -0.3984
29719W        W45336  14.028   9.991  15.428 -0.4367  0.0977 -0.1907
29720W        W45337  17.799   4.618   4.658 -0.0231 -0.1919 -0.3547
29721W        W45338   9.988   6.714   1.032  0.1164  0.2714  0.0069
29722W        W45339   7.317   6.333   5.257 -0.1578 -0.1699 -0.1318
29723W        W45340   9.270  12.787   6.316 -0.0469  0.0988  0.1472
29724W        W45341  10.495   9.336   0.734 -0.4099  0.0081  0.1412
29725W        W45342   6.784   7.814  14.542  0.2578 -0.0376  0.2078
29726W        W45343   6.857   0.890  10.595 -0.1470  0.0422 -0.1051
29727W        W45344  18.067  13.184   4.470 -0.1353 -0.0426 -0.1337
29728W        W45345   9.334   4.315  15.907  0.0594 -0.1169 -0.2307
29729W        W45346  17.843   2.865  16.096  0.0940 -0.0925 -0.1542
29730W        W45347   7.691  15.194   2.417  0.0503 -0.5656  0.0133
29731W        W45348   9.003   1.082  12.944  0.0247 -0.0180  0.0214
29732W        W45349  16.506  13.017   5.225 -0.0877 -0.1304  0.0569
29733W        W45350   4.906   9.618   2.805 -0.2333  0.0852 -0.1920
29734W        W45351   6.003  11.237   4.638 -0.1759  0.0671 -0.2028
29735W        W45352   5.825   0.571   1.453 -0.1237 -0.0094 -0.0462
29736W        W45353  16.711   1.377  14.893  0.0258 -0.1648  0.0127
29737W        W45354  16.320  18.247  14.877 -0.1836  0.0770  0.5109
29738W        W45355  10.502  13.631  15.284 -0.0005 -0.2166  0.3776
29739W        W45356  11.770  13.085   0.806  0.0556 -0.1419  0.1354
29740W        W45357   3.580  16.840  11.720  0.0664  0.1712 -0.2374
29741W        W45358  14.075   2.203   5.369 -0.0851  0.0230  0.2282
29742W        W45359   6.232  13.051   2.848  0.1092  0.2464 -0.0465
29743W        W45360  15.177   9.370   5.260 -0.0119  0.0735 -0.4603
29744W        W45361   5.872   7.245   3.570 -0.1313 -0.2561  0.1460
29745W        W45362   1.877  11.776  14.344  0.1022 -0.2138 -0.0976
29746W        W45363  15.169  16.613  10.080 -0.0465  0.5717  0.0819
29747W        W45364  10.970  17.563   0.063 -0.3884  0.0675  0.3451
29748W        W45365  16.077   7.919  13.860  0.0130 -0.1172  0.2259
29749W        W45366   8.422   5.774  10.858  0.3404  0.0044  0.2112
29750W        W45367   8.208   1.499  12.796 -0.0104  0.2419 -0.0044
29751W        W45368  14.904   0.141  13.268 -0.1875 -0.2209 -0.2777
29752W        W45369   6.432  15.332  14.848 -0.1390  0.1528  0.1407
29753W        W45370   3.405   0.832   4.235  0.2852 -0.4000 -0.0757
29754W        W45371   9.671   8.431   0.499  0.1741  0.0025 -0.0741
29755W        W45372  16.956   0.246  11.322  0.1112  0.0917 -0.0234
29756W        W45373   2.292   0.668  16.108  0.0894 -0.1961  0.0901
29757W        W45374   4.193  11.767   0.110  0.0571 -0.2152  0.1449
29758W        W45375  14.325  15.425   6.012  0.1162  0.0004  0.0454
29759W        W45376  13.826  13.771  11.515  0.0964  0.2189  0.1655
29760W        W45377  12.783  13.847  13.301  0.2368  0.3513  0.1445
29761W        W45378  11.852   9.497   5.513 -0.0018  0.0324  0.0869
29762W        W45379  13.249   6.902  10.688 -0.0765  0.1064  0.0383
29763W        W45380   8.639   4.755  15.119  0.0492  0.3636  0.2596
29764W        W45381  13.081  11.727   4.315  0.2710 -0.0683 -0.0543
29765W        W45382   4.557  13.242   0.664 -0.3613  0.2766 -0.1128
29766W        W45383   5.304  17.826   3.980  0.1440 -0.0702  0.2614
29767W        W45384   2.061  17.084   1.077  0.1816  0.3478  0.0962
29768W        W45385   0.715  17.413  15.613  0.2996  0.2885 -0.0785
29769W        W45386   7.143  14.729   0.151  0.0075  0.0159  0.2837
29770W        W45387  14.306  18.414  15.118 -0.3897 -0.0265  0.1212
29771W        W45388   6.342   8.176   1.914 -0.0389  0.3193 -0.0540
29772W        W45389   9.777   0.339  13.721 -0.0636 -0.0605 -0.2001
29773W        W45390  16.379  11.859  12.539  0.5519  0.1516 -0.1352
29774W        W45391   2.720  17.271   3.800 -0.0582  0.4103  0.0744
29775W        W45392   5.041  15.397   1.146  0.2903  0.1724  0.2000
29776W        W45393  18.335   7.146   3.717  0.1616  0.2165 -0.1361
29777W        W45394   7.034   9.018   4.591  0.2460  0.3090  0.0662
29778W        W45395   1.662   3.935   0.454  0.0116  0.0437 -0.3861
29779W        W45396   6.541   3.862   0.984 -0.1644  0.0438 -0.0399
29780W        W45397  15.269  10.298  13.282  0.1436  0.1893  0.1570
29781W        W45398   4.255  10.240  15.523 -0.0513 -0.1645  0.1262
29782W        W45399   7.903  14.440  15.720 -0.2144 -0.3936 -0.1099
29783W        W45400   3.040  16.415   2.448 -0.3999 -0.0708 -0.1269
29784W        W45401  17.584   8.034  11.412 -0.1569  0.0258 -0.1723
29785W        W45402  14.613  17.592  12.241  0.2364  0.2381 -0.2637
29786W        W45403   8.191   8.302  13.404 -0.0352 -0.0971  0.3090
29787W        W45404   0.290  14.955  13.848 -0.0138  0.0259  0.0309
29788W        W45405  10.800  12.984   2.646  0.1199  0.0377 -0.1551
29789W        W45406  13.468   8.480  11.098  0.1214  0.2358 -0.1487
29790W        W45407  17.503   5.619  10.987  0.0619  0.1300 -0.1081
29791W        W45408  13.553   7.372   4.918  0.2295  0.0619 -0.1205
29792W        W45409   1.450  13.518  11.872  0.0235  0.0318  0.0928
29793W        W45410   1.076   8.280  15.947 -0.3683  0.4593 -0.0532
29794W        W45411   2.799  17.185  16.021  0.1273 -0.0921  0.2137
29795W        W45412   4.006  10.478   4.096 -0.3687 -0.2769 -0.0570
29796W        W45413  10.381  13.397  15.869 -0.0289 -0.2641  0.1301
29797W        W45414  10.025  15.840  11.947  0.1423 -0.1622 -0.5176
29798W        W45415   5.491   9.010   3.166 -0.0385  0.2319 -0.1432
29799W        W45416   7.017   9.750  12.130 -0.0383  0.2964 -0.1331
29800W        W45417   9.400   8.604   0.119 -0.1306 -0.4228 -0.3311
29801W        W45418   0.744   6.980  10.624 -0.1431 -0.0080 -0.1052
29802W        W45419   0.738  17.878   3.216 -0.3671  0.0955 -0.1696
29803W        W45420  11.838   4.539  11.399 -0.3712  0.1185 -0.0186
29804W        W45421   1.067   8.645  12.602 -0.1411  0.2184  0.0706
29805W        W45422   8.514   8.858  13.054 -0.2188 -0.1685  0.3374
29806W        W45423  12.303   3.528   4.969 -0.0500  0.0215  0.1317
29807W        W45424  12.644  13.438   0.305  0.3804  0.3395  0.0529
29808W        W45425   1.047  15.675   2.280 -0.2236  0.2355  0.2583
29809W        W45426  17.120  10.234  14.672 -0.1179 -0.2274  0.0676
29810W        W45427  12.527   8.359  14.474 -0.0098 -0.1489 -0.1644
29811W        W45428   5.461   5.440  11.948  0.0108 -0.5522  0.2375
29812W        W45429   2.684   2.477  12.999 -0.2170  0.0225  0.2310
29813W        W45430  11.444   5.317  11.077 -0.0303 -0.0356 -0.0139
29814W        W45431   1.611   9.238   1.075 -0.2244 -0.2477  0.0624
29815W        W45432   3.633  12.418   2.278 -0.0563  0.2084  0.0410
29816W        W45433   0.582   2.379   1.443  0.0448 -0.1288 -0.2029
29817W        W45434  14.625  12.749  12.196  0.3760 -0.2503  0.0104
29818W        W45435  10.023   7.972  10.949  0.2455 -0.0855 -0.0175
29819W        W45436   2.326  17.256   2.060  0.0654 -0.1750 -0.2574
29820W        W45437   3.668   7.895   4.704  0.1344  0.1317  0.2770
29821W        W45438   7.969  13.000   1.823 -0.4016 -0.0141 -0.0049
29822W        W45439   2.841   2.315   3.109  0.3481  0.0862 -0.0205
29823W        W45440  15.228   3.829   2.825  0.1858  0.0263  0.4161
29824W        W45441   4.038   1.329  11.819  0.0501 -0.1215 -0.1124
29825W        W45442   8.479  13.404  12.563 -0.1560 -0.0181  0.1172
29826W        W45443   4.064  16.670   1.784  0.0668  0.1209  0.0746
29827W        W45444   3.347   4.447   4.445  0.1348 -0.0653  0.0758
29828W        W45445  16.334  17.270   3.783 -0.1497 -0.0319  0.1564
29829W        W45446  13.095  10.320   3.544 -0.1324  0.0178  0.1381
29830W        W45447   0.808  15.568  15.671  0.1958  0.0172  0.0378
29831W        W45448   6.333  14.534   5.203  0.0882  0.3468  0.4079
29832W        W45449   0.056   7.371  11.850 -0.0777 -0.3246 -0.0598
29833W        W45450   7.538   4.465   2.033 -0.0005 -0.0182  0.1285
29834W        W45451   0.548  14.099   3.034  0.4080 -0.3766  0.3397
29835W        W45452   0.894   1.814  12.604  0.1261  0.1181  0.0814
29836W        W45453   8.234  14.374   1.719  0.2400 -0.2462 -0.1405
29837W        W45454   0.365  12.776   5.055  0.0373  0.1383  0.1337
29838W        W45455   8.600   6.181   0.276  0.2313  0.3029 -0.0811
29839W        W45456   8.708   5.375  10.616  0.0707 -0.2359 -0.2702
29840W        W45457  15.617   1.489  13.357 -0.2705  0.2870 -0.0350
29841W        W45458   7.722  14.273   1.500  0.1997 -0.0639 -0.2197
29842W        W45459  16.895  17.598  14.325  0.2341  0.1514 -0.2185
29843W        W45460  12.683  16.729   1.949 -0.0224 -0.1789 -0.1846
29844W        W45461  14.301  13.719   0.244 -0.0094  0.0125  0.1955
29845W        W45462  17.981   3.769   4.615 -0.0887  0.1304  0.0003
29846W        W45463  17.681   2.236  13.377  0.2199  0.3426  0.2530
29847W        W45464  10.334   8.941  13.876 -0.0009 -0.0996 -0.2866
29848W        W45465  12.052  11.874  15.041 -0.0320 -0.1303  0.1426
29849W        W45466   5.549  10.209  12.233 -0.0266  0.2125 -0.0893
29850W        W45467   8.751   6.691  14.161  0.4001  0.1603 -0.3225
29851W        W45468   8.964   0.360   3.998  0.2608  0.1703 -0.3081
29852W        W45469   5.329   9.171   4.002  0.2751 -0.0398 -0.0576
29853W        W45470  14.460   0.706   4.893 -0.1898  0.2768 -0.0052
29854W        W45471   9.530   6.799   3.092  0.1593 -0.1869 -0.0359
29855W        W45472   6.826  12.344   4.520  0.1038 -0.1396 -0.0895
29856W        W45473   8.537   3.247  11.495  0.2024 -0.3312  0.2524
29857W        W45474  17.859   4.290   6.119  0.1198 -0.1692 -0.0746
29858W        W45475  16.663   6.328   4.723 -0.1752  0.1948 -0.2280
29859W        W45476  13.706   2.648   0.803  0.0169  0.0967 -0.0848
29860W        W45477   2.037   2.621   6.085 -0.2619  0.0821  0.2226
29861W        W45478   0.868   3.002  10.331 -0.3303  0.1214 -0.0636
29862W        W45479   4.020  17.866   1.809 -0.0781  0.0254  0.3568
29863W        W45480   0.810  14.537   3.925  0.0555  0.3527 -0.1042
29864W        W45481  12.740  14.373  13.982 -0.1991 -0.1276  0.1789
29865W        W45482   7.177  16.142   3.261  0.0781  0.0934 -0.0868
29866W        W45483   8.642  15.130  12.688  0.2869 -0.1097  0.2781
29867W        W45484   0.068   1.684   2.490 -0.1959  0.1362  0.2663
29868W        W45485   7.326   8.001  12.532  0.1215  0.0558  0.2404
29869W        W45486  17.852   4.684   0.894  0.1942  0.3310 -0.4509
29870W        W45487  14.603   1.112   6.139  0.1582  0.2038 -0.2218
29871W        W45488   1.067   3.284  14.985  0.1902  0.0620  0.1330
29872W        W45489   1.372  17.876   0.668 -0.1745 -0.2004 -0.1035
29873W        W45490   7.343   8.616   2.274 -0.2503 -0.3921 -0.0728
29874W        W45491  18.148  17.729  14.370 -0.5586  0.2222 -0.1904
29875W        W45492  17.403   0.589  13.210 -0.2574 -0.0524  0.2716
29876W        W45493  13.748  13.873   3.117  0.1442 -0.0373 -0.1811
29877W        W45494  13.872  12.437   2.755 -0.3645 -0.0475 -0.4262
29878W        W45495  13.701   1.238  11.997  0.2674 -0.2118 -0.2590
29879W        W45496  13.516   9.256  14.562  0.0549  0.1959 -0.0891
29880W        W45497  17.673   5.701  15.313  0.2686 -0.2277  0.3594
29881W        W45498   6.493   8.646  11.770  0.0234 -0.0351 -0.0952
29882W        W45499   1.778  16.946   5.002  0.3407 -0.0349  0.3548
29883W        W45500  13.629   0.628  14.361  0.0490  0.2022  0.1229
29884W        W45501   0.163  17.451  13.376  0.1927  0.2394 -0.1927
29885W        W45502   8.608   6.249  14.093  0.0148 -0.1421 -0.3984
29886W        W45503   8.703  16.216   3.744  0.0846  0.1273 -0.2237
29887W        W45504   7.166   0.868   3.442  0.3001  0.0824 -0.0068
29888W        W45505  16.284   8.986  11.901  0.2365  0.3717  0.1095
29889W        W45506  10.186   1.672   5.904  0.0201  0.0409 -0.1391
29890W        W45507  14.092  16.379  12.039  0.0772  0.0984  0.3086
29891W        W45508  12.332   5.756   5.317  0.3179 -0.0372  0.3489
29892W        W45509  10.597   6.506  13.639  0.3808  0.0664 -0.1455
29893W        W45510  17.996   2.990  15.099  0.0034 -0.1185 -0.1785
29894W        W45511   8.679  11.317   6.019  0.0119 -0.3049 -0.2303
29895W        W45512   0.390   2.714   4.097 -0.0817 -0.1501  0.2068
29896W        W45513  18.404  18.075  15.721 -0.3612  0.0962  0.0888
29897W        W45514  12.801   5.704   2.426 -0.3746  0.0921 -0.2963
29898W        W45515   1.807   9.427   0.665  0.0499 -0.0345 -0.1805
29899W        W45516   5.753   8.183   4.715 -0.0461  0.0821  0.0774
29900W        W45517   3.397   9.585   3.902  0.3443 -0.2585  0.0833
29901W        W45518   8.118   6.162  13.633 -0.2439 -0.4577 -0.1416
29902W        W45519   6.971  12.763  13.488 -0.0498  0.1009  0.0239
29903W        W45520  12.319  14.679  14.821  0.3031  0.1988  0.3555
29904W        W45521   2.275   6.400   2.151  0.0705 -0.0976 -0.1459
29905W        W45522   0.883  16.568   5.313 -0.1244 -0.1489  0.4301
29906W        W45523  12.450  18.149   2.734 -0.0668 -0.0398 -0.0118
29907W        W45524  17.934   8.975  12.240 -0.0179 -0.0245 -0.0901
29908W        W45525   7.943  12.117  15.974  0.1521 -0.2000  0.2126
29909W        W45526  16.606  13.664   1.225  0.1765  0.3803  0.1696
29910W        W45527   9.732   5.258  13.205  0.1106  0.0732 -0.0247
29911W        W45528  13.917  16.877  13.283  0.2061  0.1754 -0.0799
29912W        W45529   0.285   4.627   4.439  0.1774 -0.0032 -0.2261
29913W        W45530   2.419  14.306  14.500 -0.0175  0.3695  0.0911
29914W        W45531   7.170  15.324   2.307  0.0548  0.0703  0.1789
29915W        W45532   6.206   0.429  14.811 -0.0202 -0.3279 -0.2670
29916W        W45533  10.289  14.001   3.451 -0.0393  0.1246 -0.2783
29917W        W45534  13.300   0.510   3.509  0.1083  0.1074 -0.3203
29918W        W45535   8.575   0.998   3.895  0.3652  0.1192 -0.0301
29919W        W45536  15.694   9.504  15.385 -0.1915 -0.3570  0.1471
29920W        W45537   8.902  17.151  14.850  0.2215 -0.2311  0.0678
29921W        W45538   5.703   5.831   1.884  0.0466  0.1810  0.0119
29922W        W45539   9.812  13.236   4.368  0.1207  0.3547 -0.1988
29923W        W45540   2.894   1.691   1.348 -0.0118 -0.0916 -0.2730
29924W        W45541   8.614   6.732  12.765  0.0911 -0.1886 -0.2484
29925W        W45542   7.952  17.205   4.144  0.2190  0.1248  0.0725
29926W        W45543   1.986  12.535   4.600 -0.4107  0.1550  0.1936
29927W        W45544   2.072  12.213   0.768  0.3746 -0.3092  0.0776
29928W        W45545   3.781  17.969   0.395  0.0575 -0.1065  0.1863
29929W        W45546  11.965   0.139  11.638  0.0758  0.0982 -0.3004
29930W        W45547   2.829   4.146  12.257  0.3749  0.1816  0.1784
29931W        W45548  17.036  16.750  13.948 -0.2131  0.3114 -0.0094
29932W        W45549  11.915  14.042   5.611 -0.1036  0.0141 -0.3021
29933W        W45550   3.499   6.715   0.681  0.1316 -0.3048  0.0608
29934W        W45551   8.807  10.934  13.106 -0.0816 -0.2127 -0.0776
29935W        W45552   0.009  10.479  11.806 -0.1828  0.2002 -0.0925
29936W        W45553   9.997  15.598   3.734  0.2908  0.1299  0.2553
29937W        W45554  13.214   2.407   5.008 -0.1302  0.1177  0.3615
29938W        W45555  15.377  11.140  15.124  0.1459  0.1615  0.2728
29939W        W45556   6.950  12.956   1.912 -0.0257  0.0025 -0.3152
29940W        W45557  13.043  18.393  10.882 -0.3190 -0.3786  0.0837
29941W        W45558   1.786   0.353  14.486 -0.0545 -0.0352 -0.0259
29942W        W45559  10.996   6.878   0.837 -0.1124  0.2481 -0.1194
29943W        W45560  12.840   8.614  12.323  0.0475 -0.0230 -0.0031
29944W        W45561  16.302   7.127  12.481  0.1993  0.1122  0.0227
29945W        W45562   7.024   0.670   2.942 -0.1650 -0.0957  0.1148
29946W        W45563  14.171  16.223   4.423  0.0710  0.0142  0.2500
29947W        W45564  12.171   8.019   1.310 -0.0475  0.1061 -0.0514
29948W        W45565  12.566  14.093  12.230 -0.1930 -0.0815 -0.1929
29949W        W45566  14.801  11.722  11.366  0.1518 -0.4401 -0.1303
29950W        W45567   4.104   6.499  13.560 -0.2020  0.0219  0.0045
29951W        W45568   2.830   9.231  11.329  0.2054  0.0464 -0.2093
29952W        W45569   6.349  12.146   2.057  0.1033 -0.3064  0.1085
29953W        W45570   6.224  12.507   2.830 -0.0590 -0.0347 -0.0869
29954W        W45571   1.013   1.799   0.675 -0.0442 -0.1372  0.1061
29955W        W45572   6.954   2.713   2.400  0.1512  0.1074 -0.0701
29956W        W45573   8.558   5.555  13.502  0.0035 -0.1883  0.0814
29957W        W45574  12.514  18.079   0.747 -0.0134  0.2150  0.0013
29958W        W45575   5.941  11.673  15.014 -0.0274  0.2991  0.0474
29959W        W45576  16.437   6.459   1.359  0.0030 -0.1231 -0.3405
29960W        W45577  10.670  16.369   2.246  0.3213 -0.4490  0.0851
29961W        W45578   9.822   7.018  10.984 -0.0694  0.1276 -0.1434
29962W        W45579  13.658  10.254  15.138 -0.3491  0.4306 -0.0789
29963W        W45580   0.619  13.803  13.275  0.0637 -0.0107 -0.1092
29964W        W45581   9.240   4.580  10.948  0.1658 -0.0779 -0.0537
29965W        W45582   8.157   9.193   0.005  0.2018  0.0034 -0.1276
29966W        W45583  12.316   5.780  14.300 -0.2841  0.1640  0.0027
29967W        W45584  11.297  12.772   5.376 -0.1589  0.1570  0.4498
29968W        W45585  11.975  16.819   1.455  0.1785  0.5385  0.0917
29969W        W45586   9.781   1.420   5.109  0.1106 -0.0102  0.1797
29970W        W45587   3.990   6.504   0.533  0.0556  0.1641  0.0606
29971W        W45588   5.177  10.721   3.682  0.1017  0.0055  0.2224
29972W        W45589  16.209   4.445  10.694  0.3322 -0.1591 -0.0453
29973W        W45590   3.419   3.707   5.664  0.0179  0.0184 -0.2867
29974W        W45591  18.421  11.148   2.875  0.0960 -0.0298 -0.1612
29975W        W45592  15.616   7.187   0.104 -0.1528  0.0441 -0.3599
29976W        W45593  13.251   7.635   1.725  0.1873 -0.0219 -0.1727
29977W        W45594  14.668  15.947  14.412 -0.2015  0.2398 -0.0102
29978W        W45595   3.300  17.868  13.769  0.2121 -0.1491  0.0835
29979W        W45596   1.631   3.670   1.874 -0.0615  0.3127 -0.2518
29980W        W45597   9.827   5.891  11.019 -0.2032 -0.1485  0.0356
29981W        W45598   2.785   6.698  13.822 -0.0141  0.2664  0.0466
29982W        W45599   9.618  10.244  12.814  0.0641  0.0653  0.0798
29983W        W45600  11.497  18.269  15.886  0.2336  0.1276  0.1344
29984W        W45601  14.532  11.866  10.886 -0.1719 -0.1013 -0.0003
29985W        W45602   5.349   6.282   2.019 -0.3079 -0.2680  0.1401
29986W        W45603  12.875   5.339   2.776  0.1079  0.2908 -0.3655
29987W        W45604  10.726  15.408   4.552  0.1871  0.1951  0.4530
29988W        W45605   4.424  14.962  14.257  0.0780  0.3475 -0.0374
29989W        W45606  11.993   1.177  13.578 -0.0109  0.0522 -0.2394
29990W        W45607   2.272   3.044  11.809  0.1560  0.1745 -0.1592
29991W        W45608  11.647  13.396   0.236 -0.4915  0.0297  0.0205
29992W        W45609  14.616  17.563  16.030  0.2137  0.1285  0.0799
29993W        W45610   1.248   6.247   0.364 -0.0236  0.2381 -0.1597
29994W        W45611  10.712   1.709   1.177 -0.0764 -0.1855  0.0135
29995W        W45612   2.027   0.257   0.716  0.2294  0.2522 -0.3004
29996W        W45613   9.150   3.841   5.396 -0.2145 -0.1297  0.2798
29997W        W45614  11.681   3.821   4.347 -0.1806 -0.0847  0.1800
29998W        W45615   7.223   9.851  10.897  0.1717 -0.1654 -0.0546
29999W        W45616  11.507  14.318   5.506  0.0450 -0.0486 -0.0261
30000W        W45617   5.928  17.415   0.751  0.0641 -0.1937  0.2761
30001W        W45618  12.470   5.690  11.899  0.1237 -0.0973  0.0239
30002W        W45619   0.237   2.295  14.322 -0.0235  0.0834 -0.1315
30003W        W45620   8.990   1.053  13.930 -0.3511  0.2291  0.0313
30004W        W45621   4.833  10.908  16.062  0.0130  0.2779 -0.0086
30005W        W45622   8.887  14.108  12.839 -0.2685  0.0605 -0.0484
30006W        W45623  12.398  12.376  11.337  0.2533 -0.3405  0.0927
30007W        W45624   7.274  14.481   2.205 -0.1072  0.0396  0.0215
30008W        W45625   0.526  14.068  12.063  0.2072  0.1495  0.0948
30009W        W45626  15.702  13.357   5.886 -0.0835  0.3308  0.2513
30010W        W45627  12.408  11.304  14.398  0.1610  0.2659  0.2074
30011W        W45628   8.467  14.853   0.398 -0.1010  0.0032 -0.1577
30012W        W45629  12.798   6.052   2.017 -0.3021  0.1742  0.0168
30013W        W45630  17.969  16.088   5.583  0.0369  0.0214 -0.0140
30014W        W45631  15.771  12.970  15.429 -0.1748 -0.1494  0.1652
30015W        W45632  13.060  18.374   0.778 -0.2884 -0.0081 -0.0216
30016W        W45633  14.878  18.009   0.001  0.1037 -0.1235  0.1107
30017W        W45634   4.484  12.900  15.719  0.0058 -0.1206 -0.3939
30018W        W45635   9.999   5.529  14.806 -0.0642 -0.0997 -0.2412
30019W        W45636   0.276   3.735  13.780 -0.1774  0.1330 -0.1829
30020W        W45637   2.587  13.556  14.326 -0.2410  0.2370  0.1740
30021W        W45638  17.537   1.133   1.535 -0.1119  0.1821  0.1522
30022W        W45639   1.438   7.413   1.518  0.1108 -0.4613  0.3061
30023W        W45640  14.816  10.182   0.350  0.1458 -0.1514 -0.1190
30024W        W45641   9.226   7.440   2.318 -0.0805  0.1578  0.2049
30025W        W45642  14.778  13.187   4.915 -0.2647  0.0982  0.0859
30026W        W45643   9.529  17.461   2.054  0.1587 -0.0451 -0.1309
30027W        W45644   3.316  12.916   0.706  0.3088 -0.0009 -0.1163
30028W        W45645   8.618  10.461   5.371 -0.1048 -0.1090  0.5502
30029W        W45646   0.830   4.392  11.913  0.0395  0.1360 -0.2939
30030W        W45647  14.634  14.283  13.788  0.2437  0.2887  0.0419
30031W        W45648  12.098   2.922  12.204  0.1313  0.0050 -0.0042
30032W        W45649  16.490   8.474   2.935  0.1504  0.0152  0.1340
30033W        W45650  12.157  12.897   1.119 -0.0276 -0.3012 -0.0952
30034W        W45651   9.023   6.197  13.845 -0.0367 -0.2599  0.3345
30035W        W45652  16.612   2.346  15.061  0.0316 -0.3637 -0.0987
30036W        W45653   1.964   7.741   4.578  0.4307  0.0434  0.0594
30037W        W45654   1.594  12.423   0.725  0.2990 -0.2484  0.0029
30038W        W45655  14.114  16.582  14.028 -0.2186 -0.1414 -0.2504
30039W        W45656  14.552   8.339   1.477 -0.2951 -0.1514  0.1230
30040W        W45657   8.690   6.147  13.462  0.1657  0.0236 -0.1871
30041W        W45658   6.368  12.027  16.134  0.0448 -0.0970  0.3019
30042W        W45659   3.343  15.192  14.077  0.1066 -0.1535  0.2602
30043W        W45660   5.437   9.222  11.842  0.1843  0.1281  0.0431
30044W        W45661  17.751  13.440   4.982 -0.0004 -0.1918 -0.0685
30045W        W45662   1.782  14.526  13.677  0.0452  0.2078 -0.1470
30046W        W45663   8.063  11.543  14.114  0.1879  0.0058 -0.0497
30047W        W45664   7.645   8.698  15.588 -0.1535 -0.2485  0.0405
30048W        W45665   9.760   7.439  12.824 -0.0484  0.2988  0.1808
30049W        W45666  16.704  10.046  12.857  0.2865  0.1440 -0.5261
30050W        W45667   9.464  17.510   2.534 -0.0998 -0.0246 -0.1178
30051W        W45668   9.453   6.744  14.634  0.0630  0.1002  0.0258
30052W        W45669  15.606   0.372   6.064  0.2417  0.0767  0.0104
30053W        W45670   7.409   3.248   0.834 -0.0619  0.2877 -0.1384
30054W        W45671   0.506  10.433   0.620 -0.2677  0.0493 -0.1846
30055W        W45672  14.943   3.449  12.879 -0.0571  0.2695  0.0336
30056W        W45673  11.974  10.717   3.899  0.2167  0.1756 -0.2717
30057W        W45674  13.991   4.405   4.725 -0.2274  0.1020 -0.2440
30058W        W45675   6.566   8.341   0.582  0.1240  0.4184 -0.0729
30059W        W45676  15.355  11.054   2.360  0.0689 -0.1120  0.2272
30060W        W45677   8.327   8.293   0.181 -0.0875  0.1164 -0.0067
30061W        W45678  13.324   1.731  15.367 -0.0603 -0.2852 -0.1029
30062W        W45679   3.427  15.450  15.471 -0.0147 -0.3489  0.3484
30063W        W45680   2.746  14.835  13.247  0.0965  0.2327  0.2039
30064W        W45681  14.229  13.786   2.247  0.6849 -0.0870  0.0978
30065W        W45682   5.551  14.160   0.201  0.0277 -0.2651  0.0414
30066W        W45683  14.368  13.355   1.226  0.0316  0.0138 -0.3057
30067W        W45684  12.186   5.307   4.080  0.0312 -0.0056  0.0015
30068W        W45685   9.957   4.347  14.631 -0.2286  0.0367 -0.1322
30069W        W45686  10.002  11.769   3.229  0.3256 -0.2877  0.0797
30070W        W45687  16.053   2.834  15.854  0.0806  0.3834 -0.0471
30071W        W45688   2.314  13.309  15.047 -0.1131 -0.0873  0.0533
30072W        W45689  14.893   9.748  15.091  0.1391 -0.2680  0.1484
30073W        W45690  14.422  14.181   1.103  0.1666 -0.0222  0.1461
30074W        W45691   6.506  10.667  12.984  0.1388  0.1401 -0.1018
30075W        W45692  14.193   5.600  11.157  0.1163 -0.1045 -0.1211
30076W        W45693   1.677   9.317  14.001 -0.2492  0.1706 -0.0910
30077W        W45694  11.320   9.960   0.025  0.1080 -0.2236 -0.0452
30078W        W45695   4.894  17.567   4.797  0.0405 -0.0518  0.1760
30079W        W45696   4.419  13.729   0.678  0.0975  0.0261  0.0842
30080W        W45697  10.354  11.694   1.245 -0.2713  0.0922  0.0386
30081W        W45698   9.688   3.833   4.144  0.1169  0.3056  0.2276
30082W        W45699   5.100  17.645  13.535  0.4091 -0.1226 -0.0925
30083W        W45700  17.477  10.481  15.862  0.1796 -0.1205  0.3646
30084W        W45701  10.893   6.595  14.047 -0.1496 -0.1849 -0.0543
30085W        W45702   6.995  16.104   0.149  0.0606  0.0010 -0.1826
30086W        W45703   2.582  12.621   4.292  0.1558 -0.0583  0.0131
30087W        W45704  14.840   2.932   3.784  0.1658 -0.1371  0.0739
30088W        W45705  13.645   6.963  16.022  0.1249  0.0600 -0.0158
30089W        W45706   5.713   2.716  11.615 -0.2380 -0.1452 -0.0204
30090W        W45707  15.000   2.583   1.566  0.2505  0.0752  0.0159
30091W        W45708  11.609   2.446  13.233  0.0172  0.1531  0.2263
30092W        W45709   1.567   5.943   5.180  0.1475  0.4162  0.1247
30093W        W45710  16.459   1.626  11.512 -0.0115 -0.0349 -0.1334
30094W        W45711  11.022   1.827   4.661 -0.1179  0.0829  0.3337
30095W        W45712   1.472  11.222   4.635 -0.0152 -0.0071 -0.3130
30096W        W45713  15.736   0.640  12.790 -0.0674  0.4109  0.0020
30097W        W45714   0.206  17.517   2.452 -0.2293 -0.0511 -0.1942
30098W        W45715   9.828   7.896  13.276  0.0760  0.0043 -0.2064
30099W        W45716   0.954  15.815  13.660  0.0930 -0.0151  0.3304
30100W        W45717  12.477  14.096   0.832  0.0991  0.0204 -0.1105
30101W        W45718   1.778  14.336   2.103 -0.0875 -0.2121 -0.0291
30102W        W45719  15.935   6.943   4.589  0.2376 -0.3620  0.1586
30103W        W45720   5.679  16.270   3.231 -0.1129 -0.3502  0.0693
30104W        W45721  15.228   1.888  13.146 -0.0247  0.0562 -0.2978
30105W        W45722   3.521  13.775   0.854 -0.3793  0.1406  0.0802
30106W        W45723  16.592   1.301   5.497  0.0453  0.1062 -0.1725
30107W        W45724   7.311  11.817   3.843 -0.5169 -0.2002 -0.0992
30108W        W45725   5.102  10.571  15.195 -0.4265  0.1725 -0.0617
30109W        W45726   8.033   6.590   4.399  0.0648 -0.0896  0.1226
30110W        W45727  13.537  11.639  12.026  0.2254 -0.0940 -0.0366
30111W        W45728  11.981  16.501  10.174  0.2553  0.4175  0.4448
30112W        W45729  14.830   0.888   5.475 -0.0195  0.3710  0.0031
30113W        W45730   9.539   7.894  12.304  0.1429  0.1336  0.0639
30114W        W45731  15.453   1.072  13.623  0.2431 -0.3278  0.1394
30115W        W45732  17.524  16.773   3.954  0.0776  0.0060 -0.3230
30116W        W45733   6.991  15.373  12.038  0.2012 -0.1848 -0.0899
30117W        W45734   5.914   0.595  12.774 -0.0121  0.0485 -0.2851
30118W        W45735  10.122  12.693   4.662 -0.1299  0.1735 -0.2362
30119W        W45736   5.372   6.241   2.996  0.0668 -0.2312  0.2687
30120W        W45737   7.731   3.073   0.420  0.0455  0.1916  0.0943
30121W        W45738   2.212  14.846  14.343  0.1235 -0.0412  0.1165
30122W        W45739   9.311   3.848  12.068  0.2766 -0.0831 -0.0549
30123W        W45740   3.230  16.323   4.412  0.2760  0.0456  0.1376
30124W        W45741   5.060  17.573  14.898 -0.4396 -0.1277  0.4865
30125W        W45742   9.290  11.126  13.091 -0.1107 -0.1746  0.0228
30126W        W45743  11.629   0.928   3.806 -0.0084 -0.3174  0.1312
30127W        W45744  11.004  10.280  12.940 -0.0556 -0.1051  0.1369
30128W        W45745  17.176  16.349  14.898 -0.0906 -0.3245  0.2503
30129W        W45746  15.037  12.575  11.534  0.1823 -0.1361 -0.1309
30130W        W45747  12.049   2.189  13.453 -0.2741 -0.1720 -0.1862
30131W        W45748  13.001   2.980   0.034  0.1645  0.2348 -0.0417
30132W        W45749   3.557  10.165   4.948 -0.3120 -0.0481 -0.1493
30133W        W45750   9.638   6.929   0.720 -0.0045 -0.3996 -0.1677
30134W        W45751   0.797   3.429  15.536  0.2402  0.1153 -0.1714
30135W        W45752   1.652   2.590  12.985 -0.1610  0.0059  0.0610
30136W        W45753  16.411  12.721  11.033 -0.4331  0.2468  0.2875
30137W        W45754  12.541  10.539   3.044  0.1344  0.2061 -0.2301
30138W        W45755  11.559  12.945   2.691  0.1815 -0.1232  0.4283
30139W        W45756  17.878  17.662  12.432  0.0716 -0.0255 -0.3815
30140W        W45757  10.962  11.662   5.078 -0.1672 -0.1508 -0.0595
30141W        W45758  16.416  11.158   4.221  0.2338 -0.2193 -0.1085
30142W        W45759   4.824   7.174  14.041 -0.2548 -0.1735  0.0726
30143W        W45760   7.851   4.376  13.208  0.2537 -0.2463 -0.0712
30144W        W45761   2.541   8.089  13.328  0.0172 -0.1580  0.0111
30145W        W45762   5.705  11.552  13.060  0.1241  0.0748  0.1465
30146W        W45763  15.633  14.968  12.596 -0.0763  0.1669  0.2750
30147W        W45764  16.249  14.565   5.668 -0.0314  0.1296  0.1772
30148W        W45765  17.009   9.421   1.050 -0.1337  0.1380  0.0884
30149W        W45766   1.412   0.861  16.099  0.1280 -0.0210  0.2302
30150W        W45767   4.622  11.498   0.785  0.1347  0.1158  0.2737
30151W        W45768   8.881   8.785  13.442 -0.0424 -0.1831 -0.0384
30152W        W45769   5.395   1.792   2.863  0.1473 -0.1149 -0.0811
30153W        W45770  16.416  17.604  14.555  0.0559 -0.2250  0.3211
30154W        W45771  14.493   2.462   1.726  0.1444  0.2818  0.1498
30155W        W45772  10.665  14.414  12.644 -0.0024  0.0273 -0.0441
30156W        W45773  13.831   0.428   1.254 -0.1897 -0.6130 -0.0290
30157W        W45774  15.388  15.271  11.800  0.1479 -0.1467  0.0893
30158W        W45775  15.553  13.322   2.603  0.0978 -0.4528  0.0235
30159W        W45776  13.091   6.513  11.543  0.0386 -0.2844 -0.1897
30160W        W45777   4.460   3.644  11.556 -0.2298 -0.0020  0.1052
30161W        W45778   0.407   7.063  14.683  0.1587 -0.0919 -0.2782
30162W        W45779   2.981  18.078  13.245  0.1024 -0.2861 -0.3180
30163W        W45780   2.973  13.854  15.122 -0.2795  0.0267 -0.0944
30164W        W45781  11.189  11.321   1.434  0.0523 -0.0762  0.0525
30165W        W45782   0.999  11.401  13.330 -0.0842  0.1891  0.2710
30166W        W45783   9.788  11.128  13.433 -0.2341  0.0049  0.0970
30167W        W45784   8.935   5.728  13.749  0.2978  0.0419 -0.2096
30168W        W45785  14.672  10.372   3.305  0.2054  0.0102 -0.0020
30169W        W45786   4.161  10.786   3.465  0.0172 -0.0270 -0.0006
30170W        W45787  18.389  14.775  11.988  0.2577  0.1561  0.3107
30171W        W45788   2.927  17.328   1.548  0.0225 -0.2317 -0.0078
30172W        W45789  10.960   8.849   2.233  0.0317 -0.0712  0.1977
30173W        W45790   2.261   1.661  14.387  0.1009 -0.0445 -0.1620
30174W        W45791   3.467   7.429   3.041  0.2478  0.1050 -0.0046
30175W        W45792  11.355  16.171  15.488 -0.0015 -0.0076  0.1340
30176W        W45793   7.325   6.078   4.859 -0.2072 -0.1670  0.1453
30177W        W45794   9.062   1.572  11.191  0.1322  0.1101 -0.0010
30178W        W45795   8.596   2.736   3.070 -0.0795 -0.0388  0.1162
30179W        W45796  11.915   9.820  15.401 -0.2653  0.0433 -0.2385
30180W        W45797   6.222   1.475   2.131 -0.2162  0.1142 -0.0736
30181W        W45798   7.668   1.351   1.955 -0.0532 -0.3099  0.1110
30182W        W45799   5.227   3.335  14.004  0.0689 -0.1815  0.1531
30183W        W45800  18.276   1.673   1.675 -0.3487 -0.1367 -0.0713
30184W        W45801  11.796   3.522  13.415  0.1096 -0.0677 -0.1411
30185W        W45802  14.255   7.094  14.822 -0.1802 -0.3059  0.1302
30186W        W45803   7.303   5.017   3.113 -0.0539  0.1900  0.0660
30187W        W45804  14.547  18.269   5.319  0.0253  0.2096  0.0480
30188W        W45805  11.347  11.168  12.069  0.0415  0.0043  0.0293
30189W        W45806  17.121  11.724  13.480 -0.0362  0.2301  0.0721
30190W        W45807   3.679  16.587  12.606  0.1621  0.1023  0.0590
30191W        W45808  10.437  13.752  10.835  0.0731 -0.2465 -0.0175
30192W        W45809  16.080  15.336   0.187 -0.0958 -0.2156 -0.2220
30193W        W45810  18.342   9.859   2.586  0.0047 -0.1575 -0.0354
30194W        W45811  17.658  13.083   1.464  0.0049 -0.1807 -0.1309
30195W        W45812   0.386   2.835   1.718 -0.1749  0.1181 -0.2592
30196W        W45813  14.656   5.873  11.367  0.3092 -0.0357  0.0757
30197W        W45814  17.217   0.096   3.517  0.0545 -0.0751 -0.0574
30198W        W45815  11.165   7.264   0.579 -0.1665  0.0709 -0.1716
30199W        W45816  16.503  10.704   0.311 -0.0945  0.2978 -0.0131
30200W        W45817   1.568  12.279   5.622  0.1127  0.1029  0.2388
30201W        W45818   7.420   4.219   1.506 -0.1085 -0.2490  0.0625
30202W        W45819  15.808  17.131   4.770 -0.0948 -0.1480  0.0473
30203W        W45820   8.233  14.475   0.596 -0.0065  0.0289 -0.0215
30204W        W45821  16.205   9.214  15.919  0.0773  0.2043 -0.1444
30205W        W45822  14.619   7.539   1.384  0.3911  0.0544  0.0142
30206W        W45823  13.015  15.926  11.733 -0.2096  0.3124 -0.0939
30207W        W45824   9.740   2.278   2.518  0.2107  0.4254 -0.0128
30208W        W45825  15.331   9.547  12.511  0.0136  0.0817 -0.0273
30209W        W45826   1.414   8.108   0.212  0.0725 -0.0344 -0.5328
30210W        W45827  13.881  10.186   0.818  0.0368  0.4129  0.0090
30211W        W45828   2.524  13.460   4.913  0.3127  0.2404  0.1631
30212W        W45829   3.856  11.174   3.454 -0.2798  0.1872 -0.0963
30213W        W45830   8.624  11.590   0.919  0.1000  0.0207 -0.0184
30214W        W45831   7.791  14.770   2.951 -0.1580 -0.4727  0.1962
30215W        W45832   4.964   4.859   3.325  0.0482 -0.3099 -0.2887
30216W        W45833   3.165   0.457   1.102 -0.2312 -0.0126 -0.1147
30217W        W45834   3.124  15.985  15.653  0.0495 -0.0276  0.1127
30218W        W45835  12.872   2.493  15.297  0.0500  0.3106 -0.1184
30219W        W45836  11.456  17.590  15.957  0.0652  0.1178  0.1481
30220W        W45837  18.123  14.790   1.950 -0.2471  0.0713  0.3471
30221W        W45838   9.333  12.823  12.020 -0.0796  0.2030  0.1311
30222W        W45839  17.354   4.944   0.673 -0.0544 -0.0408  0.2403
30223W        W45840  10.916   4.259  12.921  0.2067 -0.1367  0.3239
30224W        W45841   5.893   5.425   2.851  0.0288 -0.1831 -0.0559
30225W        W45842   4.515   6.550   1.659 -0.0959 -0.0341  0.0775
30226W        W45843  15.459   6.150   0.383  0.1933  0.2296  0.1114
30227W        W45844   1.720   5.366   2.350  0.0908 -0.2230 -0.0047
30228W        W45845   7.306   6.846  15.368  0.5360 -0.2749  0.0464
30229W        W45846  15.744  11.797   2.116  0.1861 -0.0282 -0.0284
30230W        W45847  11.974   7.821  15.986  0.2709 -0.3401 -0.0387
30231W        W45848   6.984   0.371  12.159  0.0133  0.0372 -0.0256
30232W        W45849   7.499   8.933   4.271 -0.2505  0.0567 -0.4352
30233W        W45850   3.327   2.566  15.914 -0.0254  0.0038  0.1850
30234W        W45851   2.750  16.520   4.262 -0.0175  0.2602  0.2185
30235W        W45852   1.516   4.117   0.992  0.1549 -0.1474  0.0372
30236W        W45853  17.361   3.471   3.900  0.4711 -0.1019 -0.0410
30237W        W45854  15.834   4.301  12.874 -0.3991 -0.0589 -0.2183
30238W        W45855  14.522   9.020   4.624  0.0116 -0.1223 -0.0880
30239W        W45856  13.183   5.202  13.581  0.1013 -0.3081 -0.0718
30240W        W45857   8.530   0.833  14.130 -0.4082 -0.1193  0.0462
30241W        W45858  16.525   6.556   5.723  0.4072  0.0404  0.1664
30242W        W45859   2.615  14.181   3.111  0.1454  0.1330 -0.0273
30243W        W45860  13.498  10.962   4.014  0.0634 -0.0421  0.1562
30244W        W45861  15.129  17.697  12.383  0.1926  0.3883  0.1497
30245W        W45862   5.825  17.366   4.752  0.0669 -0.2313  0.1493
30246W        W45863   3.991   7.924   1.520 -0.0739  0.1855 -0.0798
30247W        W45864  13.742  17.093   1.069 -0.4184 -0.1837 -0.0630
30248W        W45865   5.087   6.437  15.759 -0.0294 -0.0088 -0.2847
30249W        W45866   7.067   2.419   4.117 -0.0945 -0.2698  0.3132
30250W        W45867   4.300  14.068   2.788  0.2597 -0.1719  0.0776
30251W        W45868  17.366   4.141   2.939  0.0106  0.0485 -0.0050
30252W        W45869   4.304  14.481  15.104 -0.1759  0.1614 -0.0166
30253W        W45870   3.735  15.618   0.209  0.0702 -0.1650 -0.1391
30254W        W45871   0.393  14.076   6.527  0.1622 -0.3523  0.1157
30255W        W45872  14.782   0.122   4.405  0.2834 -0.0973  0.2424
30256W        W45873   5.326   2.302  16.073  0.1012 -0.1984 -0.0606
30257W        W45874  13.874  10.285  14.661  0.2505  0.0255 -0.1640
30258W        W45875   4.278   4.366   3.688 -0.1242  0.4004  0.1882
30259W        W45876   6.464   6.971  15.987  0.1062  0.1728 -0.0092
30260W        W45877  13.446  11.138  15.634  0.3584 -0.1547  0.1737
30261W        W45878   7.601  16.033   4.141  0.1153  0.0402 -0.2396
30262W        W45879  18.397   0.630  14.917 -0.4189 -0.0187  0.1105
30263W        W45880  18.412   8.695  12.137 -0.1717 -0.2266  0.0368
30264W        W45881  13.701  16.368   5.120 -0.0828 -0.1145  0.0164
30265W        W45882  11.802  13.606  12.591  0.1126 -0.1138 -0.0829
30266W        W45883  10.267  14.504  12.279  0.0077  0.1889  0.4139
30267W        W45884   7.605  11.973  13.174  0.1834 -0.1228  0.1562
30268W        W45885   3.790   4.182  13.239  0.0493 -0.4986  0.3977
30269W        W45886   2.620   0.325  14.884 -0.1491 -0.1099  0.0484
30270W        W45887   9.666   7.410   0.908 -0.1119 -0.0751  0.0861
30271W        W45888  14.670  11.077   0.290 -0.0629  0.0970 -0.1017
30272W        W45889   5.126   2.394   2.850 -0.0721  0.0113  0.3075
30273W        W45890  11.786   2.205   2.013 -0.2562  0.4029 -0.4253
30274W        W45891  12.900   4.485  14.770  0.3629  0.0888  0.0205
30275W        W45892   8.765  17.357  13.207 -0.0841 -0.1204  0.1526
30276W        W45893   3.397  11.919  12.438  0.1478  0.0648 -0.1971
30277W        W45894   7.544   2.207   3.989 -0.1962  0.0342 -0.2780
30278W        W45895   9.491  11.575  14.216  0.2058  0.0359  0.1552
30279W        W45896   9.959  14.640   3.235 -0.1314 -0.1586  0.0683
30280W        W45897  16.315   9.862   3.066 -0.0319 -0.1516 -0.0486
30281W        W45898   0.790   9.346   0.548 -0.1765  0.3854 -0.0383
30282W        W45899  17.339   0.906  13.621  0.0963  0.1156  0.0440
30283W        W45900   2.697  14.477  13.735 -0.0100 -0.0461  0.1046
30284W        W45901  17.495   0.255   3.078  0.2200  0.2928  0.1150
30285W        W45902   5.475   1.687   6.212  0.0016  0.1832  0.1767
30286W        W45903   8.765  16.978   0.939  0.0685 -0.0579 -0.0316
30287W        W45904   5.185  11.135  11.838 -0.0950  0.1413 -0.2358
30288W        W45905   3.617  13.452  14.697 -0.0553 -0.1450  0.1148
30289W        W45906   8.143  15.862   2.345 -0.3108  0.1499 -0.2441
30290W        W45907  11.433   0.647   5.816  0.2847  0.0329 -0.1145
30291W        W45908  14.826  18.170  13.589 -0.2801 -0.3675 -0.0051
30292W        W45909  13.310  15.929   3.573  0.0387  0.3502 -0.1209
30293W        W45910  15.307  13.538  13.635  0.0270  0.0378  0.4070
30294W        W45911  15.049   7.482  11.097  0.4500 -0.0566  0.3009
30295W        W45912   9.082   6.859  10.457  0.1924 -0.1201  0.2543
30296W        W45913  15.776  11.133   4.443  0.2515 -0.3541  0.1969
30297W        W45914  14.752   7.431  15.147  0.0841 -0.0094  0.1074
30298W        W45915   4.992  12.436   5.326  0.0242  0.1106  0.0269
30299W        W45916   7.362   8.435   5.317  0.2295 -0.1117  0.1076
30300W        W45917  15.074   0.810   2.385 -0.0491 -0.1205  0.0058
30301W        W45918  17.479  11.368   0.237  0.0758 -0.1695  0.0918
30302W        W45919  11.806   1.740  15.130  0.1114  0.3028  0.0776
30303W        W45920   7.500  10.951  11.225  0.1532  0.1656 -0.1316
30304W        W45921  10.339  12.028  12.376 -0.1145  0.1326 -0.1173
30305W        W45922  16.127   8.331  11.356 -0.1147  0.0134  0.0934
30306W        W45923   2.568  14.774  12.727 -0.0012 -0.1327  0.0152
30307W        W45924  18.262   6.258   0.243 -0.1210  0.0222  0.4695
30308W        W45925   7.912  18.221   3.508  0.2554 -0.1883  0.0097
30309W        W45926  15.670   6.603   4.854 -0.1967  0.2391 -0.0094
30310W        W45927   7.808  15.577  15.177 -0.0851  0.1839 -0.1907
30311W        W45928   7.887   1.534   0.679  0.0751  0.3448 -0.1431
30312W        W45929  12.033   1.963  12.288 -0.4311 -0.0540 -0.1588
30313W        W45930  11.374  11.482   4.142  0.1110 -0.2315  0.0547
30314W        W45931   1.279   0.242   6.369  0.0101  0.1581  0.0233
30315W        W45932  17.632  15.794  13.245  0.1130 -0.1259 -0.1093
30316W        W45933  14.415  14.851  10.662  0.1781  0.3091 -0.1431
30317W        W45934  17.721   4.744  11.821  0.0972  0.1381 -0.1147
30318W        W45935  17.511  10.955  16.036  0.2785  0.0309 -0.0746
30319W        W45936  12.129   0.707  13.715 -0.2103  0.1749  0.0553
30320W        W45937   5.589  12.359  12.242  0.2986 -0.2906 -0.0083
30321W        W45938   0.491  11.150  12.270 -0.1245  0.0380  0.0833
30322W        W45939  14.523  16.465   1.328 -0.0691  0.0013 -0.1372
30323W        W45940   3.718   4.883  10.555 -0.0445  0.3268  0.0506
30324W        W45941  17.667   2.947   2.536 -0.1492 -0.0115  0.0280
30325W        W45942   6.265   8.847  13.841 -0.1371 -0.4011 -0.0720
30326W        W45943   3.522  17.537   2.775 -0.1063 -0.1302  0.2031
30327W        W45944  17.509   0.527   0.188 -0.1970 -0.3894 -0.1225
30328W        W45945   9.048  17.993   2.011  0.1694  0.0935  0.1356
30329W        W45946   8.399  11.854   4.311 -0.1192  0.4423 -0.0113
30330W        W45947   7.335   4.154   2.822  0.1047  0.3267  0.2722
30331W        W45948  14.070   1.087  16.053  0.0687  0.3563  0.0496
30332W        W45949  13.494  15.173   3.684  0.0073 -0.0424  0.0457
30333W        W45950  14.084  15.433  12.725 -0.0615  0.0969  0.0379
30334W        W45951  11.849  11.570  12.275 -0.0913 -0.3151  0.1880
30335W        W45952  10.687  10.575  10.293 -0.0463  0.3620  0.0848
30336W        W45953   1.523   6.492   2.626  0.2366  0.0162 -0.0233
30337W        W45954   2.110  11.877   3.077 -0.5220  0.1058 -0.0931
30338W        W45955  14.920   5.677  11.734 -0.1743 -0.0162 -0.2947
30339W        W45956  12.913  13.282  13.725  0.0017 -0.3241 -0.1037
30340W        W45957  10.506  11.399   4.503  0.3028  0.1152  0.0997
30341W        W45958  10.653  13.674  11.599 -0.1302  0.1283 -0.5008
30342W        W45959   0.169  13.186  11.482  0.0225  0.0236 -0.3188
30343W        W45960  13.977  11.984  12.014  0.0428  0.0056 -0.3197
30344W        W45961   6.732   3.323   1.827  0.1222 -0.2739 -0.1110
30345W        W45962   9.413   4.414  13.871 -0.1354  0.2121 -0.1273
30346W        W45963   0.457   5.386   4.234  0.0189  0.0932 -0.0175
30347W        W45964   1.622   0.919   3.409 -0.1531  0.0680  0.4315
30348W        W45965   7.842  15.410   4.826  0.0219 -0.0543 -0.1454
30349W        W45966  10.899  11.326   3.342 -0.1213 -0.0709 -0.1053
30350W        W45967   6.301  16.163  15.720 -0.1287 -0.2429  0.1710
30351W        W45968  11.728  14.495  13.585  0.0878  0.2638  0.1373
30352W        W45969   4.792   1.997   3.014 -0.0772  0.0293  0.0498
30353W        W45970  18.306  14.973   1.542  0.1653 -0.3445  0.2358
30354W        W45971  14.152   7.464   2.987 -0.0623 -0.0171  0.1833
30355W        W45972   9.204   8.666   0.568  0.2254  0.2202 -0.1126
30356W        W45973   2.354  12.467   4.983 -0.1048 -0.2367 -0.0359
30357W        W45974  16.366  14.186  14.738  0.1978  0.2447  0.0077
30358W        W45975   3.829   2.585  13.463 -0.0045  0.2458 -0.1759
30359W        W45976  10.046   3.755   0.085 -0.0056 -0.0660 -0.1487
30360W        W45977  15.137   9.341  15.930  0.2989  0.3296 -0.1335
30361W        W45978   2.949   7.913   3.568 -0.0541  0.0344 -0.1175
30362W        W45979  18.358  13.410   3.080 -0.0741 -0.0023 -0.2763
30363W        W45980  16.706   3.429  10.668  0.0737 -0.0427  0.0057
30364W        W45981   9.357   1.435  15.893  0.2734 -0.2997 -0.2925
30365W        W45982   0.607   7.600   0.299 -0.1569  0.3639  0.4224
30366W        W45983   6.433  12.143  13.221 -0.1914 -0.0704  0.0020
30367W        W45984   7.344  17.730   6.061 -0.2890  0.1809 -0.0424
30368W        W45985  16.522   1.376   2.018  0.1095  0.2012  0.1438
30369W        W45986   8.752   3.103   1.761 -0.0410  0.1798  0.0089
30370W        W45987  11.547   9.819   0.906 -0.0499 -0.0298  0.0804
30371W        W45988   7.197  11.536  12.912 -0.0006 -0.0839 -0.6546
30372W        W45989   0.257  18.209   3.375  0.0342 -0.0826  0.0794
30373W        W45990   1.553  17.481  13.283  0.0415  0.1136  0.2757
30374W        W45991  14.092   0.953  12.257  0.0378 -0.4839 -0.1018
30375W        W45992  13.821   4.367  12.699 -0.0398  0.1232  0.1062
30376W        W45993   0.228   9.363   0.682 -0.1891 -0.1485 -0.0592
30377W        W45994   2.432   4.133   4.592  0.0475  0.2165  0.1047
30378W        W45995   6.427   9.217   0.623 -0.2002  0.0692 -0.0722
30379W        W45996   5.236   2.182  14.450  0.1449 -0.2195  0.1136
30380W        W45997   7.161   1.069  11.285  0.2549  0.1195  0.2669
30381W        W45998   6.750   3.423  14.536 -0.1707 -0.0600  0.2230
30382W        W45999   2.088   8.468  13.960  0.2058 -0.0837  0.0981
30383W        W46000  10.161  12.955  12.542  0.1063  0.1665 -0.0026
30384W        W46001   0.146  12.076  15.082 -0.0390 -0.1391 -0.0552
30385W        W46002   2.738   2.727  15.220 -0.4246 -0.0967  0.1236
30386W        W46003  18.324   8.840   3.729  0.2650  0.1906 -0.1131
30387W        W46004  11.898   9.002   1.121 -0.0450 -0.2941  0.1038
30388W        W46005   5.719  15.845   2.880  0.2234  0.0659 -0.3675
30389W        W46006   7.947  14.794   1.370  0.1262 -0.1317  0.1798
30390W        W46007  12.797  17.440   5.318 -0.2547  0.2552  0.0672
30391W        W46008  17.702  13.060  14.447 -0.0351  0.3153 -0.4026
30392W        W46009   5.074  14.184  15.392 -0.0809 -0.0304 -0.1585
30393W        W46010   1.021  18.197   5.935 -0.2034  0.0273  0.1665
30394W        W46011   0.274   3.706  12.798  0.0796  0.0601  0.2400
30395W        W46012   4.924   3.928  15.248  0.0536  0.3581 -0.1398
30396W        W46013   2.776   2.343  11.381 -0.0652  0.0933 -0.1537
30397W        W46014   7.980  17.330  12.965  0.3444  0.2897 -0.2789
30398W        W46015  13.236  12.105   0.642 -0.0822 -0.0878  0.2649
30399W        W46016  14.883  11.147   5.315  0.0549 -0.5266  0.0425
30400W        W46017   4.456  15.809   4.945 -0.2348  0.3801 -0.2686
30401W        W46018  13.492  15.312  12.391  0.1880  0.0311 -0.0033
30402W        W46019   3.283   8.237  12.538  0.2035  0.1066  0.0569
30403W        W46020  17.863   2.407   1.342 -0.0247  0.0083 -0.0703
30404W        W46021  15.873  13.663  11.992  0.2533  0.0752  0.3804
30405W        W46022   8.821   2.844   3.562  0.1957 -0.2346  0.2953
30406W        W46023  11.059   8.483   2.711 -0.0579  0.0459  0.0055
30407W        W46024  10.543   3.873  12.524 -0.3700 -0.2386 -0.0968
30408W        W46025  17.054  10.796  12.386 -0.0291 -0.0255  0.0145
30409W        W46026   0.663   9.778  15.558  0.0341  0.0137  0.6574
30410W        W46027   1.080  18.158   2.231  0.1567 -0.0820 -0.0436
30411W        W46028   8.809   3.267  13.592  0.1574  0.3203 -0.0830
30412W        W46029   5.069   7.927  13.386  0.0982 -0.0362 -0.2416
30413W        W46030   7.676   1.636  15.129 -0.0263 -0.0170  0.1709
30414W        W46031   3.117  18.143  14.377  0.1391 -0.2841  0.2623
30415W        W46032  11.996  16.972   2.600 -0.0335 -0.1011 -0.6203
30416W        W46033   1.700  14.590  13.172  0.3329 -0.2276 -0.3982
30417W        W46034   5.970  10.745  13.513 -0.3520  0.1157 -0.4116
30418W        W46035   1.516   0.583  15.574  0.2467 -0.1216  0.0926
30419W        W46036   2.598  14.844  14.722  0.3525  0.0954 -0.0930
30420W        W46037  12.834  17.993  12.315  0.4562  0.0772  0.1387
30421W        W46038   1.961  15.916  14.953 -0.1010 -0.0514 -0.1408
30422W        W46039  12.888  13.462  12.883  0.1204 -0.0991 -0.2267
30423W        W46040   5.970  14.573   2.642  0.0031 -0.3496 -0.0467
30424W        W46041  11.622   4.015   2.165  0.1470  0.2968 -0.0955
30425W        W46042  16.928   2.622   3.596 -0.0923  0.0904  0.1787
30426W        W46043  10.529  11.596   4.966 -0.1208  0.1082 -0.0316
30427W        W46044  12.239  15.743   3.520  0.1183 -0.0616 -0.0440
30428W        W46045   0.063   6.089   1.720 -0.0772  0.0672  0.5420
30429W        W46046   0.228   4.047   6.100 -0.0215  0.1572 -0.0928
30430W        W46047   5.813  18.012   4.070 -0.1774 -0.1809  0.0035
30431W        W46048   8.978   2.690   1.182 -0.1220 -0.1657  0.0859
30432W        W46049   3.917   8.616   2.724 -0.0337  0.0529  0.0577
30433W        W46050   8.520  17.474  14.978 -0.1762  0.3527  0.4133
30434W        W46051  11.370   8.277   1.089  0.3458 -0.1086 -0.2244
30435W        W46052   7.096  11.028  12.124 -0.2627 -0.2140  0.4013
30436W        W46053  17.017  10.731  12.887 -0.1202  0.3339  0.4293
30437W        W46054   3.472   0.677   3.771 -0.0461 -0.0485  0.0494
30438W        W46055   4.126  11.240   2.020  0.0485 -0.0256 -0.3080
30439W        W46056   5.690  16.659   2.922 -0.0927  0.1849  0.0791
30440W        W46057   9.073   9.780  15.609  0.2902 -0.1518  0.0224
30441W        W46058   6.288  11.533   0.183  0.1159 -0.0281  0.0519
30442W        W46059  10.348  18.041  12.310 -0.1030  0.3024 -0.2129
30443W        W46060   2.669  12.807  15.226 -0.1687 -0.0753  0.0180
30444W        W46061  18.044  14.785   3.811 -0.0563  0.0009 -0.1016
30445W        W46062  11.157   5.114  13.361  0.1910 -0.0987 -0.1068
30446W        W46063   7.696  13.589  14.458  0.0531 -0.4019 -0.0839
30447W        W46064  11.641  18.355   4.909 -0.0216 -0.1427  0.3754
30448W        W46065  10.992   6.593  10.682  0.0380 -0.2435 -0.0295
30449W        W46066   3.595   6.694   1.922  0.0564  0.2269  0.1595
30450W        W46067   4.564   5.761   5.457 -0.2607  0.1127 -0.5072
30451W        W46068   0.680   5.375   3.711 -0.0942  0.0873 -0.0234
30452W        W46069   3.107   9.427   3.495 -0.0981  0.0851 -0.2874
30453W        W46070   6.076   1.365   5.506 -0.2819  0.0414 -0.4399
30454W        W46071  15.532   9.662   0.576 -0.2250  0.1693 -0.0163
30455W        W46072  15.443   3.065  14.344  0.0413 -0.0771 -0.1083
30456W        W46073   1.311   5.262  11.970 -0.1885  0.1577  0.0455
30457W        W46074  16.071  10.494  15.338  0.1090  0.1673 -0.1461
30458W        W46075  12.466   0.726  11.909  0.2455 -0.2441  0.4101
30459W        W46076  15.411   1.157   2.840 -0.0482  0.0689  0.1440
30460W        W46077  17.026  11.844   3.175 -0.1433  0.0415  0.0506
30461W        W46078  11.709  10.853   2.308  0.0663 -0.0695 -0.0808
30462W        W46079  12.887  10.925  11.215 -0.0215 -0.1039  0.0184
30463W        W46080  13.281  10.448   5.279 -0.0782  0.4217 -0.1923
30464W        W46081  10.179   6.447  15.738 -0.0285  0.0894 -0.1696
30465W        W46082  14.224  16.731   4.194 -0.0554 -0.1925 -0.0579
30466W        W46083  17.216   8.111   1.340 -0.0967 -0.1490  0.1463
30467W        W46084   7.558  15.018   3.414 -0.0053  0.1874 -0.1639
30468W        W46085  17.108   3.149  16.132 -0.0877  0.1613 -0.0131
30469W        W46086  15.225   9.355  15.046  0.0127 -0.4414  0.2066
30470W        W46087   8.026  13.843   5.041 -0.1828 -0.0963 -0.1215
30471W        W46088   0.279  12.535   3.169 -0.0951 -0.0095 -0.2090
30472W        W46089  17.504   7.402   4.679 -0.0805  0.0117 -0.2039
30473W        W46090  10.147   3.143  13.992 -0.0123  0.1126 -0.1185
30474W        W46091   5.503   0.278   5.604 -0.0315 -0.1004  0.0457
30475W        W46092  15.892   1.036  13.128 -0.1363 -0.2895 -0.0222
30476W        W46093  11.726   5.606   2.910 -0.4863 -0.0556 -0.4053
30477W        W46094   2.721   7.825   1.403  0.1518 -0.1768 -0.0663
30478W        W46095  15.709   5.425   3.285  0.2587 -0.2275 -0.0692
30479W        W46096  16.844   6.787   1.215  0.2221  0.0153  0.3400
30480W        W46097   5.435  13.262  15.420 -0.0320  0.0133  0.0493
30481W        W46098   0.224   7.268   2.302 -0.1615 -0.3244 -0.3111
30482W        W46099   8.784   3.983  12.047  0.1262  0.0809  0.2292
30483W        W46100   8.011   8.998  14.557  0.0334  0.0443  0.0381
30484W        W46101  16.085   3.671   4.523 -0.3522 -0.2903  0.0186
30485W        W46102  10.869  15.114   3.367 -0.0299  0.0140  0.2960
30486W        W46103   6.145  10.411  15.436 -0.0437  0.1614  0.4711
30487W        W46104   8.317  14.476   1.134 -0.1590 -0.3764  0.0998
30488W        W46105   4.393   1.610  15.784 -0.0244 -0.0320 -0.1301
30489W        W46106  17.371   7.002  13.406 -0.2051  0.1980 -0.1686
30490W        W46107   1.259   2.303  13.743 -0.1086 -0.0872 -0.1934
30491W        W46108   8.560   6.136  14.813  0.2071  0.2228 -0.1747
30492W        W46109  16.157  12.781  12.667  0.3561 -0.3715  0.3693
30493W        W46110   7.990   2.892   1.280 -0.1047  0.1118 -0.2824
30494W        W46111   8.993  10.539   0.134 -0.1036 -0.1544 -0.0957
30495W        W46112  16.261   2.590   2.317  0.1859  0.2408 -0.1230
30496W        W46113  17.851   5.693   5.734  0.1759  0.2023  0.1667
30497W        W46114  18.228  11.918   5.111  0.1809 -0.2782  0.2916
30498W        W46115  13.919  16.129  11.596 -0.2275  0.0332  0.1946
30499W        W46116   5.455   9.685   3.968  0.0272  0.2536  0.1240
30500W        W46117   8.748  14.828  16.101  0.2061  0.2296  0.0303
30501W        W46118  15.269   0.676   2.855 -0.1596 -0.1796  0.0794
30502W        W46119   6.458   7.741   0.446  0.0245 -0.0138  0.2962
30503W        W46120  11.120   5.616   4.196  0.0281 -0.1943 -0.0019
30504W        W46121  14.378   7.320   5.182  0.1131  0.0255 -0.2757
30505W        W46122  16.640  17.708   1.847  0.0970  0.2099 -0.1176
30506W        W46123   9.711   4.678  11.078  0.3233 -0.2461  0.0427
30507W        W46124   5.985  15.085  12.315  0.3005  0.1801  0.4122
30508W        W46125   7.002   0.560   3.788  0.0860 -0.1425 -0.2424
30509W        W46126   9.846  11.642  14.626 -0.1035 -0.1573  0.0333
30510W        W46127  12.122  17.170   0.337 -0.1316 -0.1811 -0.1124
30511W        W46128   3.902  18.438  15.333  0.0794 -0.0792  0.2947
30512W        W46129   1.134  15.484   3.048 -0.4338  0.0538 -0.2736
30513W        W46130   6.308  16.826  11.973  0.0562 -0.1754  0.1025
30514W        W46131   7.275  13.576  11.228  0.0907 -0.3215 -0.1340
30515W        W46132   5.226  11.000   0.896  0.1171  0.0678  0.0859
30516W        W46133   4.935   9.232   4.739  0.1383  0.2609 -0.1406
30517W        W46134  10.200   9.716   2.298 -0.0649 -0.3638  0.1474
30518W        W46135  18.422  17.655   3.854  0.3652  0.0020  0.1336
30519W        W46136   4.371   8.652   4.168  0.2879 -0.0628 -0.1284
30520W        W46137  14.782  14.296  15.733 -0.2752  0.2298  0.3881
30521W        W46138   0.813  15.235   0.038  0.2133  0.0959 -0.0229
30522W        W46139   7.686  14.959  14.002  0.1152 -0.0750  0.0455
30523W        W46140   9.973  14.995  14.578  0.1462  0.0109  0.0378
30524W        W46141   0.907   6.491   2.522 -0.2990 -0.2279  0.3563
30525W        W46142   9.824  11.490  13.893  0.3317 -0.1929 -0.1218
30526W        W46143   0.737  15.956  12.365  0.2467  0.3267 -0.0381
30527W        W46144   5.979  12.279  10.407 -0.3412 -0.1781 -0.0822
30528W        W46145   5.568   6.729   3.000 -0.1052 -0.2714  0.4685
30529W        W46146  17.230   5.770  14.552 -0.0677 -0.0648  0.0735
30530W        W46147   2.450  11.455  12.298 -0.0547 -0.0266  0.0151
30531W        W46148  13.474  10.721   3.409 -0.2170  0.0118 -0.0887
30532W        W46149  11.980   1.953   3.799 -0.2829  0.0965  0.1306
30533W        W46150  10.074  14.726   0.415 -0.3770 -0.1351  0.1735
30534W        W46151   0.211   5.613   1.833  0.0498  0.1517 -0.1274
30535W        W46152   0.728  16.940   4.870 -0.1287  0.2184  0.2730
30536W        W46153   0.031   3.250  14.824  0.0274  0.1023  0.1254
30537W        W46154   7.207  17.932   0.918  0.0644 -0.0515 -0.1423
30538W        W46155  16.912  14.942   1.269  0.0812 -0.3387  0.0477
30539W        W46156   2.418   7.412   1.679 -0.0768 -0.0306 -0.2365
30540W        W46157   7.088  13.472   5.345  0.0142 -0.1128 -0.3376
30541W        W46158   2.775  10.922   3.993 -0.3408  0.2277  0.0902
30542W        W46159  14.969   2.408   0.980 -0.2429  0.2139  0.1154
30543W        W46160   4.200  17.273   4.952 -0.1875 -0.2168  0.0682
30544W        W46161   6.710   4.092  12.024 -0.1731  0.1467 -0.2896
30545W        W46162   0.441   4.653  12.740  0.2305 -0.1400 -0.2411
30546W        W46163  17.133   0.906   3.295 -0.1803  0.1360 -0.1535
30547W        W46164   6.635  17.422   4.635  0.3187 -0.1862  0.0052
30548W        W46165  18.391   8.712   0.439 -0.3372 -0.0746  0.1094
30549W        W46166   4.837  18.060  11.371 -0.2115 -0.0612  0.2784
30550W        W46167   5.585   0.937  14.657 -0.1218 -0.1408 -0.1358
30551W        W46168   3.888   8.880   4.357  0.1274 -0.3066 -0.1983
30552W        W46169  15.391  11.806   5.244  0.2219  0.1838  0.0121
30553W        W46170   2.122   1.521   2.125 -0.1313 -0.0378  0.1586
30554W        W46171   8.964  15.900   2.049 -0.0976  0.0198 -0.0519
30555W        W46172   6.559   5.926  12.627 -0.2123 -0.3676  0.3112
30556W        W46173  15.442  12.845  12.488 -0.0434  0.1525  0.1163
30557W        W46174   9.697  16.243   5.353 -0.4622 -0.0996  0.2772
30558W        W46175  15.155  10.011   2.111  0.0612  0.3441 -0.2748
30559W        W46176  10.738  11.109   0.977 -0.1373 -0.3502  0.0721
30560W        W46177   4.080   6.733   1.462  0.2622  0.2000  0.2065
30561W        W46178  15.502   9.105  10.602  0.1294  0.2539  0.5148
30562W        W46179   1.261   3.494   4.688  0.3604  0.1329 -0.2540
30563W        W46180   4.760   7.455   0.082  0.3168  0.0931 -0.0381
30564W        W46181   5.951   8.469   2.633  0.0680 -0.0534 -0.2669
30565W        W46182   9.904  13.449  15.820  0.2681 -0.1698  0.0224
30566W        W46183   1.410  11.514  14.318 -0.0538  0.3699  0.1635
30567W        W46184  11.511   8.990  11.755  0.0545  0.0134  0.1159
30568W        W46185   8.408   7.564  15.182  0.2501  0.2147  0.0964
30569W        W46186   7.184   8.214   4.889 -0.0535 -0.1066  0.0327
30570W        W46187   1.991   4.737   0.530 -0.1890 -0.3165  0.1506
30571W        W46188  17.011   1.021  13.226 -0.2537 -0.3305  0.1376
30572W        W46189   6.308  13.839  15.644  0.3945 -0.3864 -0.0080
30573W        W46190  10.962  15.059  11.814 -0.1962 -0.1036  0.0584
30574W        W46191   1.665   9.732   3.066  0.2336 -0.0989  0.0133
30575W        W46192  13.292   9.529  13.802 -0.2248  0.0229  0.0085
30576W        W46193  11.203   1.357   3.573 -0.2560 -0.0383  0.1344
30577W        W46194   1.716  14.354   4.320  0.1245 -0.1911  0.0381
30578W        W46195  11.567   5.104   3.113 -0.0098  0.1416  0.0940
30579W        W46196  16.611   6.842   0.747  0.0309 -0.2262  0.2115
30580W        W46197   0.154   4.813   0.181 -0.0828  0.1508 -0.4537
30581W        W46198   9.373  13.838   2.424 -0.0143 -0.2974  0.2694
30582W        W46199   0.267  12.698   4.557 -0.1377  0.2804 -0.3315
30583W        W46200   5.028   1.256  11.829 -0.1731  0.1439  0.1350
30584W        W46201   2.896   8.185   3.158  0.0042 -0.2051 -0.1391
30585W        W46202   8.567  16.675  15.996 -0.3156 -0.0548 -0.2589
30586W        W46203   9.015   1.008  11.486 -0.0824  0.1041 -0.2938
30587W        W46204   4.214   2.545   4.520  0.0553  0.1491 -0.0285
30588W        W46205   5.468   6.383   5.005  0.0568 -0.0182  0.4018
30589W        W46206  15.189  17.806   4.232 -0.1778  0.2233 -0.0005
30590W        W46207  11.478  17.436   4.019 -0.2363  0.1367 -0.1749
30591W        W46208   0.426  10.383   3.070  0.2637  0.1075  0.0702
30592W        W46209   9.602   2.391  13.934  0.1663  0.1326  0.2413
30593W        W46210  13.806   0.389  13.550 -0.3281  0.0026 -0.3350
30594W        W46211  14.562   5.403  13.641  0.2039 -0.0653 -0.0277
30595W        W46212   9.786   1.498  14.439  0.1586 -0.2190  0.1998
30596W        W46213   6.273   7.543   2.373  0.0688  0.1150  0.0166
30597W        W46214  17.244  11.551  14.222 -0.0197 -0.0768 -0.1614
30598W        W46215  14.197   4.255   1.375 -0.2244  0.2113 -0.0920
30599W        W46216   2.799   5.458  12.130 -0.2426 -0.0654 -0.0229
30600W        W46217   8.923  18.356   5.720 -0.4546  0.0920  0.1016
30601W        W46218   5.477   3.344   0.159 -0.0023  0.1743 -0.1261
30602W        W46219  10.648   2.092   3.434 -0.5547 -0.2375  0.1065
30603W        W46220  15.216  14.636   1.311 -0.0051  0.3038  0.1712
30604W        W46221  11.308   3.419  14.860  0.2001 -0.0151 -0.2049
30605W        W46222  14.449   0.552   5.405  0.2967 -0.0164 -0.0789
30606W        W46223  16.065   5.290   4.357  0.2407  0.2610  0.4516
30607W        W46224  16.352  14.601   0.351  0.0451 -0.1922 -0.2731
30608W        W46225   5.193   8.894  13.175 -0.2521 -0.1320  0.1981
30609W        W46226  12.458  15.526   2.604  0.1202 -0.2526 -0.0708
30610W        W46227  17.818  14.857   1.544 -0.1705  0.0904  0.0803
30611W        W46228  12.073   1.462  14.712  0.0715  0.1175  0.0242
30612W        W46229   3.238  16.192   3.140  0.0861  0.1376  0.0587
30613W        W46230   5.010   6.528  12.580  0.0796  0.1834 -0.0353
30614W        W46231   8.479   6.637   5.089  0.3004 -0.0560  0.5421
30615W        W46232  16.914  12.194  13.322  0.1047  0.2549 -0.0785
30616W        W46233   3.384   8.255   2.123 -0.3282 -0.0016 -0.0650
30617W        W46234   3.328   2.440  13.135  0.0980 -0.1467  0.3502
30618W        W46235   8.234   6.046  14.412 -0.1604 -0.0344 -0.0849
30619W        W46236   2.353  13.373  12.881  0.1659  0.2477  0.2380
30620W        W46237  16.840  11.186  14.972  0.0080  0.0705 -0.1232
30621W        W46238   8.483  12.971  15.845 -0.3812 -0.1257 -0.0612
30622W        W46239   3.252   0.792   1.464  0.3110  0.0840  0.0244
30623W        W46240   4.710  16.133  11.177 -0.3614 -0.2552  0.1690
30624W        W46241   4.804  10.376   1.658  0.1478 -0.1586  0.0918
30625W        W46242   2.239   9.867   6.152 -0.1140 -0.1185 -0.2583
30626W        W46243   1.939   4.504   0.956  0.0692 -0.0070  0.2264
30627W        W46244   9.171   4.049  13.516 -0.3046 -0.1212  0.2564
30628W        W46245   2.428  17.489   5.146  0.0254  0.1045 -0.0186
30629W        W46246   2.511   5.864  10.969 -0.0078  0.0640  0.0063
30630W        W46247  11.123  18.093   0.802 -0.0894 -0.2040  0.2108
30631W        W46248  17.275   7.795  12.203 -0.1026 -0.0257 -0.0654
30632W        W46249  16.104   0.787  11.301 -0.0178 -0.1030  0.3040
30633W        W46250  15.801   0.565   0.568 -0.2400 -0.0647 -0.0608
30634W        W46251   1.215  11.867   2.357  0.2370 -0.2482  0.0419
30635W        W46252  11.181   0.828   0.924  0.3887 -0.0089  0.0282
30636W        W46253   7.323   5.282  11.312 -0.2107 -0.0589 -0.0926
30637W        W46254  17.305  12.224  12.320 -0.1012  0.0938  0.2351
30638W        W46255  16.708   4.637   3.692 -0.0626  0.0397  0.1116
30639W        W46256   4.376   6.113   0.556  0.0199  0.0989  0.0792
30640W        W46257   7.778   9.087  13.607 -0.0713  0.2922 -0.0459
30641W        W46258   8.454   9.978   2.992 -0.2499 -0.1879 -0.2003
30642W        W46259   2.156  11.676  13.828 -0.0207  0.0389 -0.2460
30643W        W46260  10.190  12.043   0.966 -0.2113 -0.2162 -0.0096
30644W        W46261   8.385  16.945  14.945  0.0383 -0.1459  0.1561
30645W        W46262  17.825  12.537   2.270  0.0266  0.0737  0.0463
30646W        W46263   5.623   8.654   2.271 -0.2752  0.1541 -0.0050
30647W        W46264   7.937  17.571  14.349 -0.1576 -0.1200  0.1906
30648W        W46265   7.743   8.318   2.550  0.1197 -0.0750  0.0004
30649W        W46266  15.353   8.154  15.453  0.0054 -0.1508 -0.0854
30650W        W46267  10.119  10.976   4.481 -0.2312 -0.0745  0.3343
30651W        W46268   0.083  12.769  13.421  0.0315  0.3439 -0.0966
30652W        W46269  16.257  15.899   4.002 -0.1782  0.1996  0.0090
30653W        W46270  13.503  16.801  14.237 -0.1296  0.1170 -0.4266
30654W        W46271  14.049  11.513   1.901 -0.1745  0.2997 -0.3837
30655W        W46272  14.979   0.874  14.469 -0.3274  0.2857  0.1930
30656W        W46273   2.528   5.127  10.533  0.1547  0.0797 -0.0824
30657W        W46274   8.913  15.359   1.934  0.0451  0.2366  0.2366
30658W        W46275  11.205  17.243  12.826  0.0034  0.0102  0.1107
30659W        W46276   9.428  12.563  12.439 -0.0172 -0.1660 -0.0611
30660W        W46277  15.485   6.816   1.991  0.4848  0.1991  0.1032
30661W        W46278  16.984  15.361  12.559  0.0865 -0.0204 -0.2030
30662W        W46279   7.633   8.932   5.763 -0.2043 -0.1354 -0.4238
30663W        W46280  17.254   6.479   1.101  0.4389  0.2439  0.1222
30664W        W46281  16.924   9.793   4.497  0.4343 -0.1767 -0.0592
30665W        W46282   3.214   2.911   0.651  0.3693  0.3228 -0.3019
30666W        W46283  13.521  15.424   3.059 -0.2159  0.1327 -0.2588
30667W        W46284   5.319   2.326   1.063 -0.1116  0.0988 -0.2984
30668W        W46285  17.818   9.199  14.403 -0.2243  0.2695  0.0462
30669W        W46286  15.883  15.772   1.455 -0.4144 -0.0567 -0.1726
30670W        W46287   7.343   7.675   4.676 -0.1386 -0.0423  0.1358
30671W        W46288   4.393  15.532  13.744  0.2209 -0.1567 -0.1176
30672W        W46289   6.005  16.575   0.667 -0.0760  0.0826  0.0742
30673W        W46290   5.878  16.568  14.063  0.1762  0.1900 -0.3027
30674W        W46291  12.647  14.714   5.632 -0.1720 -0.1029 -0.1515
30675W        W46292   6.312  18.012  12.298 -0.0674 -0.0185  0.1248
30676W        W46293  13.765  14.635  11.563 -0.4875  0.2223 -0.3130
30677W        W46294   6.216  17.309   0.036  0.0299  0.1138 -0.1266
30678W        W46295  14.323   2.391  12.250 -0.1492 -0.2319  0.0520
30679W        W46296   1.817  16.976   2.053  0.4612 -0.1507 -0.1186
30680W        W46297   5.438  15.889   4.633  0.1257 -0.2194  0.0092
30681W        W46298  18.284  16.941  14.734  0.0908  0.0400  0.3569
30682W        W46299  10.276  13.540   5.507 -0.2185  0.1961  0.1031
30683W        W46300   3.452  17.712  12.143  0.4624  0.0812 -0.0835
30684W        W46301   3.363  16.299  11.656  0.3026 -0.1488 -0.2402
30685W        W46302  17.894   2.238   5.008  0.1434 -0.2247 -0.2595
30686W        W46303   4.815   0.568   3.089 -0.0039  0.1704 -0.2092
30687W        W46304   2.424  17.540  15.993  0.2405 -0.0201 -0.0794
30688W        W46305   4.791  14.013   2.975  0.0919  0.2596  0.0595
30689W        W46306  11.709   7.305  12.531 -0.0019  0.3744  0.1536
30690W        W46307  18.385  17.055  11.425 -0.1425 -0.4131 -0.3282
30691W        W46308   8.222  18.182   5.026 -0.1424  0.3505  0.1362
30692W        W46309  10.825  18.017   0.409  0.1095  0.0125 -0.1138
30693W        W46310  12.815   9.981  14.866 -0.2989  0.1872  0.1920
30694W        W46311   1.280  17.996   4.001  0.2019 -0.0793 -0.3296
30695W        W46312  14.001   9.907   3.157  0.0464 -0.0715  0.2333
30696W        W46313   8.698  12.227  13.298 -0.0207 -0.0686 -0.0345
30697W        W46314   4.820   1.968  12.044  0.0905 -0.1973 -0.1586
30698W        W46315  10.426   9.454  12.495 -0.1217 -0.0315  0.1321
30699W        W46316   9.706  13.224  11.805  0.3298 -0.1871 -0.2761
30700W        W46317   3.431   1.178   0.483  0.0745 -0.1104  0.1137
30701W        W46318  13.785   2.595  15.223 -0.4773  0.3002 -0.0100
30702W        W46319   1.768  14.090  12.370 -0.0184  0.0790 -0.0252
30703W        W46320   5.551   3.826   2.649 -0.0617  0.1712  0.2690
30704W        W46321   0.215   3.018   0.689 -0.1623 -0.2251 -0.2797
30705W        W46322  10.532   1.936   4.791  0.2152  0.2993  0.0692
30706W        W46323   8.275   9.508   2.894 -0.2150  0.0970  0.1947
30707W        W46324   8.774  15.198  14.673  0.0077 -0.0901  0.2155
30708W        W46325  17.179   3.901  15.072 -0.2630 -0.0800 -0.2256
30709W        W46326  10.617   4.954   4.162 -0.1182  0.1004 -0.1577
30710W        W46327   0.372  10.594   2.176  0.2151 -0.1719  0.0945
30711W        W46328  15.507   4.852  12.064 -0.1503  0.2761  0.2407
30712W        W46329  18.249  10.320   1.432 -0.3120 -0.1268  0.0461
30713W        W46330   5.403   2.585   3.702 -0.0765  0.3910 -0.2283
30714W        W46331   7.854   8.704  12.395 -0.1631  0.0489  0.0826
30715W        W46332  14.301   1.471  12.842  0.1939 -0.1694 -0.0539
30716W        W46333   7.628   7.932   1.061 -0.0591 -0.0205  0.0762
30717W        W46334  14.426  10.078  15.782 -0.0870  0.1932  0.0085
30718W        W46335   1.077   2.183   3.089  0.1749 -0.1527 -0.1028
30719W        W46336  12.676   8.377   0.546 -0.0294 -0.2566 -0.1616
30720W        W46337  13.767  10.542   0.072 -0.0304 -0.1808  0.0307
30721W        W46338   4.181   5.012  11.659 -0.1234  0.0918 -0.0713
30722W        W46339   6.007   3.050   0.759  0.0642  0.1635 -0.2080
30723W        W46340   7.771  16.285   4.583  0.0534  0.0084  0.2224
30724W        W46341  15.989   3.876  15.966  0.1629 -0.1038 -0.2409
30725W        W46342  16.491  12.555   5.101 -0.1791 -0.0308 -0.3112
30726W        W46343  11.331  10.054   2.467  0.0037 -0.1475  0.0092
30727W        W46344   5.881  14.370   1.714 -0.0476  0.0290  0.0201
30728W        W46345   3.506   7.176   0.946  0.0336 -0.1478 -0.0158
30729W        W46346  12.137   1.179  15.126 -0.0521 -0.1047 -0.1993
30730W        W46347  14.752   6.612  11.448  0.2040  0.0302 -0.0981
30731W        W46348   7.568  10.358   1.387  0.1855 -0.1921 -0.1556
30732W        W46349  10.245   5.442  10.852 -0.1836 -0.0223  0.0274
30733W        W46350   0.443   1.008  10.711 -0.0882 -0.0140 -0.1040
30734W        W46351   0.915  16.687   1.719  0.0687  0.0681  0.2097
30735W        W46352   6.247  10.070   1.259 -0.0055 -0.1027 -0.0774
30736W        W46353  17.034   9.845  15.916  0.2739  0.1914  0.0358
30737W        W46354   3.532  11.684   5.319 -0.4108  0.0697 -0.2097
30738W        W46355   5.993  13.604   2.991  0.1003  0.2579  0.0782
30739W        W46356  17.919   7.084  14.745 -0.1913  0.0687 -0.3096
30740W        W46357  15.205  16.145   1.919 -0.0748  0.1497 -0.0179
30741W        W46358  14.078  17.334  11.962 -0.0188 -0.2044  0.3234
30742W        W46359  17.706   8.789  14.107 -0.0085 -0.1700 -0.0249
30743W        W46360  14.507  10.928  11.077  0.4666 -0.0862  0.0594
30744W        W46361  16.175  10.526  15.869  0.2058 -0.3593 -0.0211
30745W        W46362  10.025   5.434   3.416 -0.2266 -0.0246  0.1390
30746W        W46363   9.771   2.418   3.050 -0.0342 -0.1617 -0.0890
30747W        W46364  17.142  12.149   2.468 -0.0273  0.1840 -0.1180
30748W        W46365  12.927   3.430  13.152  0.3034 -0.2188  0.3021
30749W        W46366  15.868  14.184  14.061  0.0086  0.0641  0.2834
30750W        W46367   4.657  10.728  11.949 -0.2359  0.3023  0.0452
30751W        W46368  12.072   7.366   3.089 -0.0770  0.0252  0.0085
30752W        W46369   2.498  16.804   4.580 -0.4483 -0.0107 -0.1110
30753W        W46370   0.416  13.429   5.723 -0.0319  0.1976  0.0774
30754W        W46371   0.620  15.580  13.159  0.2119  0.2088  0.0770
30755W        W46372  13.209   9.225  10.719 -0.0391 -0.1066  0.3297
30756W        W46373   0.984  11.913  13.163 -0.1445  0.1535 -0.1663
30757W        W46374   8.712   6.566   0.704 -0.1806 -0.0410 -0.1436
30758W        W46375  18.196  15.357   3.925  0.1690  0.2774 -0.0911
30759W        W46376  14.085   3.035  15.044 -0.1326 -0.1583 -0.1583
30760W        W46377   9.229  10.630  14.162 -0.2417 -0.0251  0.0102
30761W        W46378  16.386   0.825  15.597  0.0325  0.1536  0.0964
30762W        W46379   4.551   9.905  15.821  0.0310 -0.0149  0.1376
30763W        W46380  10.504  11.090   4.873  0.1373 -0.0159 -0.1558
30764W        W46381   3.064  12.932   4.421 -0.0552  0.1355 -0.2400
30765W        W46382  13.598  18.256  13.061  0.0603  0.0955  0.0265
30766W        W46383   9.904   9.676   4.609  0.2668  0.0980  0.1813
30767W        W46384   9.913  13.003  15.946  0.1980 -0.0185 -0.1825
30768W        W46385  12.261  15.385   6.005 -0.0582  0.2873  0.4272
30769W        W46386  15.661  16.795   0.318  0.2771  0.1706 -0.0334
30770W        W46387   3.505  16.591  13.547  0.0776  0.1841  0.2293
30771W        W46388   3.939   5.986  14.756 -0.1431 -0.0891  0.1909
30772W        W46389  16.277  14.850  12.292 -0.3350 -0.0876 -0.1481
30773W        W46390  17.499  10.083  13.327 -0.0139 -0.0488 -0.4147
30774W        W46391  12.532   8.029   0.142 -0.1466 -0.0935  0.0259
30775W        W46392   5.413  14.135  12.954 -0.0485  0.2509  0.0304
30776W        W46393   7.498   3.774   4.112 -0.1298  0.1497  0.1625
30777W        W46394  16.865   5.643   0.385  0.3471  0.3101 -0.1297
30778W        W46395  10.948   3.660  15.581 -0.3469 -0.0397 -0.3427
30779W        W46396  10.085  13.805   0.044  0.0411  0.1075  0.3817
30780W        W46397  16.875  12.412   3.858 -0.2576  0.0237  0.0373
30781W        W46398  13.961  10.879   3.649 -0.2014 -0.0029 -0.2368
30782W        W46399   9.750  17.903   2.692 -0.0078 -0.2696 -0.1961
30783W        W46400   5.308  13.060   3.290  0.0031 -0.0656 -0.2864
30784W        W46401   9.890   8.899   6.020  0.1761 -0.0141 -0.3093
30785W        W46402  11.133   8.489   3.553 -0.1003  0.0838 -0.1686
30786W        W46403   2.226  12.008   1.334  0.1229  0.2509 -0.1493
30787W        W46404  14.543  11.633   4.905  0.0017 -0.0680  0.1918
30788W        W46405  15.985   6.766  12.725 -0.0921  0.2693  0.0342
30789W        W46406  17.770  12.726  13.251 -0.2285 -0.2304  0.1495
30790W        W46407  14.120   3.843   0.965 -0.1982 -0.3473 -0.2723
30791W        W46408   0.611  12.186   4.947  0.0183  0.1844 -0.4646
30792W        W46409   2.452   1.518   1.765 -0.3398  0.1076 -0.1018
30793W        W46410   1.607   2.275   2.443 -0.2165 -0.2757  0.0670
30794W        W46411  15.286   4.890   1.761  0.2080 -0.1246 -0.0196
30795W        W46412   5.380   0.814   1.119 -0.1654  0.0638 -0.0260
30796W        W46413   2.426  15.964   5.573  0.0331 -0.2045  0.1406
30797W        W46414   0.645   1.205  13.427 -0.3235  0.4416 -0.0955
30798W        W46415  10.963   2.677   1.998  0.0321  0.1452  0.1605
30799W        W46416   4.309   8.922  13.905  0.4853 -0.1100 -0.2613
30800W        W46417  13.733  10.423  13.076  0.0893 -0.0622 -0.1979
30801W        W46418   5.460  14.100  13.851 -0.1419 -0.1470  0.0782
30802W        W46419   2.676   8.676  11.344 -0.2472 -0.2051  0.1387
30803W        W46420  16.901   3.635   4.025  0.0386 -0.3461 -0.2441
30804W        W46421   9.377  14.765  12.530  0.0579 -0.0352 -0.3454
30805W        W46422  12.382  18.375  14.445 -0.2321  0.1295  0.0608
30806W        W46423  12.083   4.332   0.414 -0.1713 -0.1617  0.1389
30807W        W46424  13.849   4.004   5.053  0.1140  0.0063  0.1354
30808W        W46425   2.433   4.675  12.928  0.1866 -0.0515 -0.0524
30809W        W46426  14.956  13.118  10.842  0.1944  0.0649 -0.1636
30810W        W46427  11.580   7.993  15.507 -0.0805 -0.0539  0.2385
30811W        W46428  12.000  14.519   1.058 -0.1088 -0.3462 -0.1668
30812W        W46429  18.311  16.427  13.046 -0.0520 -0.0473 -0.2885
30813W        W46430  17.376  11.653   0.721 -0.2087  0.1222 -0.4026
30814W        W46431   5.189  17.163   1.917  0.1844 -0.0545  0.0828
30815W        W46432   2.037   1.824  12.675  0.3769  0.0119 -0.0248
30816W        W46433  18.332   7.289  11.235  0.3556 -0.1406  0.0123
30817W        W46434   5.784  11.233  14.792  0.0024  0.0223  0.4346
30818W        W46435  13.965  13.021   4.886 -0.1164  0.0143  0.0677
30819W        W46436   9.619  16.957   1.948  0.1193 -0.2621  0.2039
30820W        W46437   9.100   5.996  12.642  0.2558  0.0686 -0.2005
30821W        W46438  10.255  12.538  15.984 -0.1975 -0.0909 -0.3232
30822W        W46439   3.826  10.473   2.637  0.0866 -0.2954 -0.0620
30823W        W46440   1.800  16.826  13.791 -0.0282 -0.1166 -0.0762
30824W        W46441   5.728   2.277   0.738  0.0414  0.1526  0.1173
30825W        W46442   7.774   9.081   3.483 -0.1818 -0.1915  0.2518
30826W        W46443   7.866   3.220  12.426  0.1054  0.1538 -0.0628
30827W        W46444  12.879  12.593  15.964  0.4480 -0.1322 -0.2076
30828W        W46445  11.741  16.806   3.480  0.0269  0.1077 -0.0515
30829W        W46446  10.331  16.650   3.541  0.2056 -0.0457 -0.0657
30830W        W46447  13.552  14.913  12.961  0.1443 -0.1391 -0.1373
30831W        W46448  18.094   8.680   2.201 -0.0388  0.1319 -0.1109
30832W        W46449  10.763  13.111   3.192 -0.0406  0.0465 -0.3209
30833W        W46450  17.337  11.157  11.549 -0.3758 -0.0168  0.3560
30834W        W46451   0.346  13.987   2.027 -0.1384 -0.1061 -0.2727
30835W        W46452   7.464  17.221   4.299 -0.1180  0.3351 -0.5912
30836W        W46453  15.991   9.486  11.126 -0.0199 -0.3385  0.1982
30837W        W46454  11.555  11.708  14.835 -0.1219 -0.1989 -0.3876
30838W        W46455   6.440   2.749   0.761 -0.0408 -0.0512  0.0669
30839W        W46456   5.315  16.882  12.188 -0.3592  0.0093 -0.0763
30840W        W46457   3.798   5.428  12.020  0.0263  0.1663  0.1078
30841W        W46458   2.255   8.433  15.002  0.2021  0.2707  0.1866
30842W        W46459   6.028   5.148  15.524  0.1488  0.0514  0.1913
30843W        W46460   6.784   9.160  13.863  0.2591 -0.0209 -0.1769
30844W        W46461  15.391   6.688   0.467 -0.1186  0.2011 -0.1630
30845W        W46462  13.296  13.644   4.293 -0.0357 -0.1927 -0.0333
30846W        W46463   5.862  18.148   0.135  0.1833 -0.2017 -0.0337
30847W        W46464   5.498   6.921   5.216  0.0533  0.2790  0.0634
30848W        W46465   0.720   5.398  11.117 -0.2048 -0.1579  0.0639
30849W        W46466   5.273  13.939   1.707 -0.2234  0.2768  0.0408
30850W        W46467   5.335  10.175   5.032 -0.0746 -0.3117 -0.2293
30851W        W46468   3.546  10.328  11.272  0.0395  0.0350 -0.1001
30852W        W46469   8.505  11.368  13.089 -0.4573  0.1270  0.1595
30853W        W46470  14.711   5.253   2.117 -0.0620  0.2559 -0.0124
30854W        W46471   1.136  18.148  15.003 -0.1216 -0.3409 -0.0276
30855W        W46472   8.049   6.516  12.067 -0.1557 -0.1004  0.0227
30856W        W46473  18.068  13.076  10.940 -0.5190  0.1431  0.1500
30857W        W46474   4.831  15.012   3.403  0.1064 -0.1567 -0.0860
30858W        W46475  14.038  15.419  11.168  0.0657  0.0101  0.1751
30859W        W46476   5.687   9.725  12.658  0.3335 -0.1677  0.1140
30860W        W46477   8.521   8.692  15.386 -0.3051 -0.2711 -0.2545
30861W        W46478   2.144   9.939  14.588  0.4939 -0.0449  0.2176
30862W        W46479   6.259   9.940  15.391  0.1750  0.2705  0.1532
30863W        W46480   8.560   2.323  11.460 -0.1680  0.0219  0.0791
30864W        W46481   7.906   3.978  14.764 -0.0727 -0.0585  0.2859
30865W        W46482   8.918   3.956   3.081 -0.0571  0.3017  0.3426
30866W        W46483   3.725   0.811  14.741  0.0307 -0.0992 -0.0212
30867W        W46484  15.738   3.385  15.789  0.1106  0.2297  0.2367
30868W        W46485   0.786  11.909   2.010  0.1456 -0.4701 -0.0865
30869W        W46486  17.855   3.094  12.374 -0.0400  0.0521 -0.1152
30870W        W46487  13.956  16.798   5.027  0.1277 -0.0184  0.0239
30871W        W46488  13.405  11.006  12.264 -0.0568 -0.0207  0.1167
30872W        W46489  15.164  12.476  11.998 -0.1381 -0.0313 -0.1718
30873W        W46490   2.506   8.139   5.330 -0.1572 -0.4435  0.1105
30874W        W46491   1.509   5.803  14.650 -0.0999  0.1637 -0.1960
30875W        W46492  10.549  11.413  13.174  0.0677  0.0696  0.2605
30876W        W46493   7.527   2.081  10.854  0.2360  0.0101  0.1037
30877W        W46494   5.671  11.770   2.932  0.1962  0.2769 -0.3125
30878W        W46495  10.868   8.916   4.729  0.0919 -0.2001 -0.0967
30879W        W46496  12.400   7.808   2.164  0.1102 -0.1987 -0.3354
30880W        W46497  14.959  16.982  10.962  0.1283 -0.0030 -0.0248
30881W        W46498  14.771   3.323  15.559  0.0324 -0.4800  0.0796
30882W        W46499   1.575  13.639   6.280 -0.2735  0.1572 -0.0153
30883W        W46500   9.007  15.829   0.080 -0.0537  0.4708 -0.1217
30884W        W46501  16.722  11.286   4.601  0.1217 -0.1616  0.0745
30885W        W46502   9.644   0.046   4.575  0.1016  0.2928  0.1080
30886W        W46503   2.527   0.537   3.331 -0.0125 -0.2046 -0.1086
30887W        W46504  17.484   2.250   3.214 -0.1338 -0.0783 -0.2722
30888W        W46505   7.767   5.450  11.520  0.2288 -0.1617  0.0191
30889W        W46506  11.474  10.601  13.847  0.0173  0.0624  0.2006
30890W        W46507   2.381  12.854  14.730 -0.0814  0.1529  0.1942
30891W        W46508  15.440  13.101   0.764 -0.1232  0.1545 -0.0489
30892W        W46509   2.885   2.619   3.509 -0.2268 -0.1741 -0.1953
30893W        W46510  14.191   6.086   1.039  0.0595  0.0670  0.2181
30894W        W46511   1.533  17.071  15.772 -0.0861  0.2176 -0.2796
30895W        W46512   5.849   6.579   5.438 -0.2654 -0.0601  0.0486
30896W        W46513   0.038   7.317   1.097  0.1630 -0.1985 -0.0990
30897W        W46514  10.394   2.026  12.975  0.1097 -0.3319 -0.0248
30898W        W46515   7.119   2.287  12.838 -0.0015  0.1499 -0.2728
30899W        W46516  15.776   9.716   1.044  0.2353 -0.1392 -0.1929
30900W        W46517   0.691   6.577  13.205 -0.2764  0.1535  0.1109
30901W        W46518   0.515   3.686  12.263  0.0144  0.2524 -0.0124
30902W        W46519  12.113  12.774  15.378  0.0034 -0.0482  0.0203
30903W        W46520  13.249   7.818  12.217  0.4123  0.2387  0.1297
30904W        W46521   8.510   5.928   2.948  0.2509 -0.1534 -0.1282
30905W        W46522   5.349   8.388   4.450  0.0078  0.2024  0.1404
30906W        W46523  13.024  13.729  12.415 -0.6381 -0.1400  0.2341
30907W        W46524  15.429  14.933  13.032 -0.0584 -0.0171  0.0317
30908W        W46525   2.182   8.383  15.907  0.0050 -0.0520  0.2305
30909W        W46526   8.949  14.245   5.200 -0.0051  0.1852  0.0548
30910W        W46527   1.067  15.803   0.757 -0.3507  0.2644 -0.0027
30911W        W46528  16.819  14.821   0.601 -0.2737 -0.2088  0.1592
30912W        W46529  14.992   9.315  12.163 -0.0845 -0.5408 -0.0133
30913W        W46530  13.047   5.759   3.910  0.3672 -0.0280 -0.0177
30914W        W46531  15.927   3.087   5.324 -0.2836  0.3567  0.0825
30915W        W46532   2.125  16.462   2.121  0.1493  0.3918 -0.2517
30916W        W46533   2.151  10.581  13.153 -0.0332  0.0020 -0.0374
30917W        W46534  14.909   3.903   4.976  0.1054  0.0108  0.4438
30918W        W46535  13.240   1.333  12.589  0.2346 -0.2552 -0.1042
30919W        W46536   9.424   5.749  13.885  0.1209  0.1066  0.1687
30920W        W46537   6.941   6.410   4.028  0.2062  0.0267  0.0932
30921W        W46538  11.037  10.500   0.222 -0.0820  0.2270 -0.0786
30922W        W46539  10.646   8.412  11.209 -0.1270 -0.4058 -0.1535
30923W        W46540   1.888   9.584  10.568  0.0754  0.1145  0.0584
30924W        W46541   0.395  16.713   2.834  0.0555 -0.2544  0.1590
30925W        W46542  16.730   5.469   3.228 -0.0163  0.0705 -0.5877
30926W        W46543   6.164  17.040   0.501 -0.0900  0.1726  0.3906
30927W        W46544   1.673   1.450  13.932 -0.0118 -0.3403 -0.1994
30928W        W46545   7.400  18.015  15.232  0.2126 -0.1519  0.3454
30929W        W46546   2.238   8.546   2.032 -0.0231  0.1416 -0.3252
30930W        W46547   3.245  12.535   2.564 -0.1742  0.1056 -0.0989
30931W        W46548   6.606   5.349  13.741  0.0229  0.1315  0.2401
30932W        W46549   3.220  16.735   3.205 -0.2543 -0.1699 -0.1041
30933W        W46550  15.099   2.125   0.069  0.0136 -0.1927 -0.0485
30934W        W46551   4.921   3.085   2.122  0.0014 -0.0158 -0.1945
30935W        W46552   2.514  10.318   5.152 -0.1126 -0.1664 -0.2173
30936W        W46553  14.564   1.546  15.326  0.1028 -0.0174 -0.2125
30937W        W46554   6.925  10.770  13.315 -0.2432 -0.0864  0.1162
30938W        W46555   1.107   5.832   0.101  0.2333 -0.2791  0.2688
30939W        W46556  10.325   8.142  14.960  0.0927 -0.1704  0.3118
30940W        W46557  10.466  16.888   0.579 -0.3305  0.0527 -0.2063
30941W        W46558  13.881   1.369  13.544 -0.0237 -0.0764  0.0221
30942W        W46559   7.544   4.111  10.850 -0.0494  0.2434  0.1397
30943W        W46560  14.307   8.298   4.113  0.0178  0.0316 -0.1231
30944W        W46561  12.507   9.917  11.650  0.1745  0.1137 -0.2404
30945W        W46562   9.983   8.805  12.965  0.0952 -0.0226 -0.0768
30946W        W46563   5.768   7.001  12.844  0.1067 -0.0703  0.0329
30947W        W46564  14.499  10.783   3.618 -0.3945  0.1812  0.1495
30948W        W46565  15.632  17.904  13.230  0.1484 -0.0986  0.1303
30949W        W46566   4.776   2.530  13.627 -0.0144 -0.2507  0.0412
30950W        W46567  12.682   8.553   3.374  0.0662  0.0864  0.1159
30951W        W46568  17.542   5.156  11.921  0.1817 -0.0997  0.0473
30952W        W46569  18.017  13.255  11.713 -0.3513  0.0525 -0.2475
30953W        W46570  12.798  12.946   2.314  0.2115 -0.1823 -0.1400
30954W        W46571   6.467  14.597   3.507  0.1215 -0.1096 -0.0402
30955W        W46572   3.764   7.533  13.861  0.0853 -0.0774 -0.0679
30956W        W46573   6.026   0.364   5.667 -0.1670 -0.0227  0.1800
30957W        W46574   9.640  15.541   5.557 -0.5334 -0.1002  0.0533
30958W        W46575   6.038  15.373   5.846 -0.0592 -0.1862  0.1389
30959W        W46576  14.940   9.130   1.433 -0.0948  0.0770 -0.1452
30960W        W46577  18.345  14.004   6.755 -0.2111  0.1577  0.1193
30961W        W46578   9.413  14.444  13.299 -0.1382  0.0372 -0.1402
30962W        W46579  14.078  16.188   4.871  0.0981 -0.1446 -0.0356
30963W        W46580  15.095   6.898  13.644 -0.2391  0.0826 -0.2552
30964W        W46581  14.609   1.274   0.072  0.2060 -0.0179  0.0504
30965W        W46582  16.631   9.538   4.953 -0.2073  0.1244  0.1597
30966W        W46583  17.605   6.938  12.454 -0.0894 -0.0484 -0.1391
30967W        W46584  15.488   2.935   5.278  0.4199  0.0053  0.0026
30968W        W46585   0.231   3.400   4.718  0.0494 -0.0335 -0.1248
30969W        W46586  10.739  17.986   1.355 -0.2545 -0.1170 -0.0717
30970W        W46587   5.614  11.421  11.787 -0.1080  0.0325  0.3550
30971W        W46588  16.011   7.969  10.379  0.2338 -0.2013 -0.0518
30972W        W46589   1.457  17.435  16.093  0.1006 -0.3225 -0.0861
30973W        W46590  17.237  14.807  13.848  0.1818 -0.0495 -0.0942
30974W        W46591   3.104  12.619   5.754  0.0445 -0.0923 -0.0046
30975W        W46592  14.542   6.702   2.425 -0.3520  0.0450  0.1666
30976W        W46593   7.053  13.503  12.820  0.0841  0.0541  0.2960
30977W        W46594   3.479  15.588   4.559 -0.0561  0.0349 -0.0700
30978W        W46595   1.699   1.977  13.686  0.0509 -0.0781 -0.1834
30979W        W46596  17.677  10.456   1.501  0.0446 -0.1594  0.0914
30980W        W46597  15.426   4.604  15.949  0.1404 -0.0666 -0.1558
30981W        W46598   2.676   6.900  12.441 -0.0078  0.3759  0.1494
30982W        W46599  12.827  17.745   0.636 -0.1472 -0.1301  0.0383
30983W        W46600  18.120  16.813   2.187  0.0510  0.1471  0.1696
30984W        W46601  17.692  17.897   0.947  0.4286  0.1111  0.0404
30985W        W46602   7.340   9.821   1.458  0.3281  0.1503 -0.1777
30986W        W46603  17.739   3.943  12.077  0.0804 -0.3435 -0.0495
30987W        W46604  10.622   6.567   2.061  0.3389  0.0921  0.3850
30988W        W46605   9.104   1.251   3.926  0.0759  0.0419 -0.6429
30989W        W46606   1.794  12.174   1.615  0.5270  0.0052  0.1258
30990W        W46607  12.206   6.472   0.471 -0.0621 -0.2528 -0.0833
30991W        W46608   8.735   1.423  12.702 -0.0856 -0.1955  0.0262
30992W        W46609  10.993   7.141  12.367  0.1948  0.0473 -0.2510
30993W        W46610   3.596  10.932   5.396  0.0799  0.0341  0.0560
30994W        W46611  18.181   4.802   2.432 -0.1098 -0.2801  0.1898
30995W        W46612   5.970  11.257  13.460  0.0865  0.1659  0.1177
30996W        W46613   0.946   1.367   0.321 -0.1686  0.0648 -0.1436
30997W        W46614   1.177   7.722   3.129 -0.0285 -0.0051  0.0977
30998W        W46615   1.910  13.237  13.224  0.3454 -0.2219  0.0028
30999W        W46616  12.272   2.924  13.576 -0.2030 -0.0049  0.0268
31000W        W46617   6.191   3.810  11.731  0.2939  0.1648  0.4517
31001W        W46618  12.333  18.209  12.320  0.1973 -0.2453  0.0774
31002W        W46619   7.461   1.666   0.465  0.0148  0.0019  0.1241
31003W        W46620  15.345   4.572  11.012 -0.3131  0.0541 -0.1489
31004W        W46621   9.240   8.167  15.932  0.1790 -0.0963 -0.1895
31005W        W46622   6.454  12.510  10.631  0.1474 -0.1259  0.2039
31006W        W46623   5.749  17.610   3.818  0.0656 -0.0393  0.2405
31007W        W46624   6.216   9.476  15.665  0.0609  0.2586 -0.0087
31008W        W46625   4.883   8.728   4.801  0.0827 -0.1423 -0.3602
31009W        W46626  16.304   0.939  13.439  0.0500  0.1595 -0.0995
31010W        W46627   9.072   3.618  13.303  0.2139  0.0128 -0.0782
31011W        W46628   5.405  18.179   5.285  0.2790  0.2414 -0.1750
31012W        W46629   8.071   1.383  15.805 -0.3631  0.2101 -0.3455
31013W        W46630  14.257  16.741   2.279  0.0114  0.1352 -0.0059
31014W        W46631   0.840   9.657  16.035 -0.0556 -0.1973  0.2934
31015W        W46632   6.990   7.726   1.873  0.0097 -0.1189 -0.1021
31016W        W46633   7.577  17.861  13.590  0.2279 -0.0396 -0.2501
31017W        W46634   9.412   3.848  13.943  0.2211 -0.4049  0.1049
31018W        W46635   5.306   2.421   4.560 -0.2093 -0.0716 -0.1037
31019W        W46636   8.288   5.839  13.200 -0.1147  0.1160  0.0547
31020W        W46637  11.231   7.039  14.520 -0.0001 -0.0860 -0.1867
31021W        W46638   2.313   2.174  14.313 -0.0736  0.1212  0.2860
31022W        W46639   8.378  12.032  12.358 -0.2133 -0.3079  0.2530
31023W        W46640  15.129  10.232  15.032 -0.0991 -0.1708 -0.2206
31024W        W46641  10.358  17.971   4.174  0.3116 -0.1439 -0.1591
31025W        W46642   6.002  15.972  13.424  0.0289  0.1148 -0.3416
31026W        W46643  12.521  18.271  12.753 -0.3648 -0.0535  0.2834
31027W        W46644  10.144  15.914  11.484  0.1929 -0.4231  0.1524
31028W        W46645   5.272  14.232   4.559  0.2052 -0.0691  0.1644
31029W        W46646   9.134   9.709   1.067  0.2151  0.1622 -0.2367
31030W        W46647   8.881   5.195  15.318  0.4909  0.0888 -0.2045
31031W        W46648  10.665  10.453   2.851  0.0283 -0.0451 -0.0488
31032W        W46649  13.563  10.313  14.204  0.1903  0.0680 -0.0356
31033W        W46650   2.412  11.896  14.454 -0.1582 -0.4081 -0.3365
31034W        W46651   7.165  10.542   5.464  0.3670 -0.1874  0.2046
31035W        W46652   0.835   4.586   1.838  0.4815 -0.0463  0.0503
31036W        W46653  17.946  11.906   3.774  0.1283  0.0679 -0.2639
31037W        W46654  11.177  10.596   2.709  0.0973  0.5307  0.0506
31038W        W46655   9.736  10.005  13.567 -0.1296 -0.4588 -0.0174
31039W        W46656   8.573   8.108  14.476  0.3054 -0.3994 -0.0505
31040W        W46657   6.395  13.361   5.890  0.0395  0.1449  0.0375
31041W        W46658   1.072  11.193   0.334 -0.1661  0.1431  0.4475
31042W        W46659   8.497   0.888  14.581  0.4008  0.0959 -0.1414
31043W        W46660   6.595   3.489   1.320  0.4086 -0.2128 -0.0453
31044W        W46661  12.590   0.032   3.747  0.2640 -0.1669 -0.1257
31045W        W46662   8.139  13.544   6.569 -0.0355  0.0292  0.0932
31046W        W46663   3.583   5.290  12.454  0.1348  0.2457  0.1863
31047W        W46664   4.607   8.311  13.977  0.0543 -0.0660  0.0042
31048W        W46665   8.533  15.665  14.439 -0.0234  0.0069  0.2296
31049W        W46666  15.032  18.262   5.397  0.1499 -0.0858 -0.0480
31050W        W46667  11.898  12.554   0.750 -0.0151 -0.0245 -0.1742
31051W        W46668  12.101   3.020  11.262  0.0468 -0.3763  0.0322
31052W        W46669   7.087   1.127  13.065  0.2678  0.1554  0.1450
31053W        W46670  17.611   1.507   4.009  0.0309 -0.1076 -0.1725
31054W        W46671   3.110   9.105   1.908  0.1682 -0.2435  0.1126
31055W        W46672  11.810  17.698  13.682  0.0447  0.0284  0.0072
31056W        W46673  15.720  13.848  14.756 -0.1388 -0.1086  0.0886
31057W        W46674  12.172  15.708   0.348 -0.3329  0.2076 -0.1312
31058W        W46675  17.877  15.708   5.300  0.2018  0.1901 -0.0928
31059W        W46676   8.423  15.994   1.634  0.1816  0.0399 -0.0181
31060W        W46677   5.899   7.057   3.124  0.3281 -0.2274  0.3259
31061W        W46678  14.532  11.576  13.835 -0.2164  0.0276  0.2681
31062W        W46679  16.415   4.244  14.062  0.4569 -0.2506  0.1104
31063W        W46680  10.461  11.902   3.156  0.0461  0.0424 -0.0443
31064W        W46681  12.231  15.159   3.593  0.0591 -0.2718 -0.0735
31065W        W46682   9.255   7.581  15.698 -0.1953  0.0548 -0.0883
31066W        W46683  10.334   3.543  11.578  0.0335  0.0847  0.2434
31067W        W46684   1.435   6.321   0.858 -0.0467 -0.0898 -0.2605
31068W        W46685  17.098   2.736  11.827  0.0793  0.3444 -0.1707
31069W        W46686  16.136  17.259  13.739 -0.1277 -0.2996 -0.2384
31070W        W46687   8.984  15.677  13.861  0.1221 -0.0068 -0.2079
31071W        W46688   6.705  11.692  13.351 -0.1177  0.1487  0.1193
31072W        W46689   0.117   2.851   2.318  0.0756 -0.0095  0.5760
31073W        W46690   8.196   0.368   0.055  0.1454  0.0329 -0.2461
31074W        W46691  17.627  14.394  13.803 -0.0806  0.2663 -0.0656
31075W        W46692  14.672   5.586  13.161 -0.1660  0.1016  0.0669
31076W        W46693   2.619  10.474  13.492  0.3249  0.1235 -0.0615
31077W        W46694  12.330  12.101   2.104 -0.1503 -0.0522 -0.0019
31078W        W46695   0.887   0.168  14.467  0.2554 -0.2444 -0.0542
31079W        W46696  15.136  13.848  12.632  0.0599 -0.0171 -0.2426
31080W        W46697  15.975   1.765   3.609  0.1334 -0.0779  0.1942
31081W        W46698   8.633  11.077   4.697 -0.2432 -0.4029 -0.1801
31082W        W46699  13.530  11.535   1.859 -0.0514  0.0015  0.0526
31083W        W46700   1.089  13.152  11.937  0.0597 -0.2282 -0.3455
31084W        W46701   2.560   5.147  12.518 -0.1761  0.0621 -0.2689
31085W        W46702  14.042  12.698   3.267 -0.0759  0.2727 -0.2993
31086W        W46703   0.659   3.621  14.081 -0.1930 -0.0442 -0.2176
31087W        W46704  13.487   6.859  11.573 -0.3327 -0.1556  0.0956
31088W        W46705  14.112   4.351   0.331  0.1391  0.0686 -0.3728
31089W        W46706   0.430  15.978   5.677  0.1570 -0.0019  0.0721
31090W        W46707   2.896  12.814   0.370 -0.0441 -0.1636 -0.2233
31091W        W46708  13.692   2.629  12.797  0.0168  0.0719  0.1857
31092W        W46709   0.651  13.932   5.215  0.2795  0.0364 -0.0058
31093W        W46710  17.813   7.087   2.695  0.0950  0.1035 -0.2220
31094W        W46711   1.607   4.442  13.310 -0.0745 -0.4170 -0.0029
31095W        W46712   7.890   8.043   0.195  0.1222  0.0806 -0.2607
31096W        W46713  15.836  12.766  13.218  0.0557 -0.1715 -0.1995
31097W        W46714  13.879   2.106   0.844  0.0515 -0.1009 -0.2481
31098W        W46715  17.389   5.408  12.364 -0.1681 -0.3980 -0.0232
31099W        W46716  16.255   6.871   1.171 -0.2514 -0.0927  0.2499
31100W        W46717   3.298  14.887  13.283  0.2931 -0.0597  0.1313
31101W        W46718  15.994   0.711  14.802 -0.0875  0.0256 -0.1678
31102W        W46719   7.568   2.472  13.549  0.0303 -0.2698 -0.1402
31103W        W46720   8.215  17.168   1.197 -0.1976 -0.0407  0.0436
31104W        W46721  12.171  17.409  12.719  0.1094  0.0767 -0.1666
31105W        W46722  13.225  12.192  15.007 -0.0202  0.0135 -0.3457
31106W        W46723  14.860  10.933  14.387 -0.0509  0.1234 -0.0862
31107W        W46724  16.835   6.720  15.714 -0.0445 -0.0918  0.0646
31108W        W46725  12.914   1.390   1.086 -0.1318 -0.1866 -0.2330
31109W        W46726  16.094   0.625   3.158 -0.1172  0.3176 -0.0054
31110W        W46727  13.697  11.238  12.622 -0.2915 -0.1284  0.2418
31111W        W46728  10.787   9.889   4.942 -0.2457  0.0621 -0.1097
31112W        W46729  13.664  13.449   4.589 -0.0267  0.1652 -0.1040
31113W        W46730   4.613   0.694  14.270  0.1351  0.1415  0.1412
31114W        W46731  10.794   5.448   2.923 -0.2379  0.0816  0.0117
31115W        W46732   2.529  18.163   1.585 -0.0390  0.0419  0.1071
31116W        W46733  17.897   1.333   2.316  0.1697 -0.0519  0.4503
31117W        W46734   2.461  18.038   5.271 -0.2587  0.0196 -0.2873
31118W        W46735   9.783  10.285  15.530 -0.3910  0.1304 -0.4024
31119W        W46736  13.643  11.856   5.660 -0.0706  0.1153  0.0455
31120W        W46737  14.031   6.861  15.697  0.0111  0.0351  0.4990
31121W        W46738  13.529   8.597   9.928  0.2224  0.1438  0.2634
31122W        W46739  13.149  13.534  14.231  0.1871 -0.1614  0.0340
31123W        W46740   1.360  13.667   0.532 -0.0352 -0.1259  0.2834
31124W        W46741  12.639  10.486  15.977 -0.3800 -0.1984 -0.3344
31125W        W46742  12.405   9.577  13.545 -0.1033 -0.1133  0.2550
31126W        W46743  13.247  12.710   1.532  0.0936 -0.0517 -0.1502
31127W        W46744   4.400   5.798  11.466  0.2375 -0.0894 -0.0145
31128W        W46745  15.734   7.184  13.893 -0.0234 -0.0681  0.1316
31129W        W46746   3.114   3.079  12.895 -0.2330  0.1587  0.0736
31130W        W46747   0.952  16.626   3.889 -0.2192  0.3641 -0.1172
31131W        W46748   6.379   4.802  11.527  0.0509 -0.4452 -0.3844
31132W        W46749  17.998  18.431   3.834  0.0571 -0.2661  0.1957
31133W        W46750   5.640  13.890   2.042  0.1220  0.0624 -0.0658
31134W        W46751   3.948   7.173  14.356 -0.2401  0.0730 -0.0924
31135W        W46752  17.839  11.696   0.461  0.0338 -0.1539 -0.1239
31136W        W46753   9.886   5.977  12.107  0.3835 -0.1334  0.0368
31137W        W46754  11.565  11.705   3.659 -0.2697 -0.1497  0.0796
31138W        W46755  15.935   1.809  14.349  0.0808  0.0534  0.2287
31139W        W46756   4.334   5.604  12.938 -0.3998  0.1352  0.1544
31140W        W46757   8.188   0.253   2.377  0.1736  0.0042 -0.2712
31141W        W46758  13.673  15.196  11.506 -0.2194 -0.3224 -0.0111
31142W        W46759   7.278   7.543   1.439  0.3393  0.2868 -0.1335
31143W        W46760  18.086   4.170   5.069 -0.3328 -0.2532 -0.2113
31144W        W46761  15.124  13.395  11.763 -0.1174  0.1758  0.0204
31145W        W46762   2.607   0.506   5.449  0.1098 -0.0830  0.1035
31146W        W46763  12.297  16.420   5.395 -0.5222  0.0233  0.0598
31147W        W46764  17.533  15.062  16.050  0.3669 -0.0894  0.0959
31148W        W46765  13.327  14.940   3.214  0.1018  0.0551  0.0112
31149W        W46766   6.743  15.929   1.628 -0.2361  0.2169 -0.1215
31150W        W46767  17.749  17.465   5.575 -0.4099 -0.3220 -0.0148
31151W        W46768  12.717  11.671  10.864  0.1694 -0.0367  0.2333
31152W        W46769   5.250   7.358   4.938  0.0907 -0.1982 -0.0700
31153W        W46770   6.148   5.607   2.422  0.2050  0.1086 -0.1878
31154W        W46771  13.432   2.992  11.313  0.0305 -0.0604  0.0318
31155W        W46772   4.932   8.200   3.134  0.2190  0.1608 -0.0539
31156W        W46773  12.356   1.104  10.212  0.3954 -0.2674  0.1708
31157W        W46774   8.848  13.290   1.475 -0.0246 -0.0752  0.2313
31158W        W46775   4.642   2.405  15.038 -0.3551  0.1459  0.0366
31159W        W46776  17.889  18.260   4.339 -0.1280 -0.1785 -0.2330
31160W        W46777  13.133   0.505   4.320  0.1446  0.1872 -0.3230
31161W        W46778  10.332   0.501   1.858  0.3521 -0.2737 -0.0351
31162W        W46779   8.699  10.845  13.794  0.0265  0.1184  0.0529
31163W        W46780   5.375   7.951   3.296 -0.3952 -0.3421  0.0851
31164W        W46781  18.086   9.487  15.120  0.0079  0.0120  0.0491
31165W        W46782   8.099  13.240  15.944  0.0596  0.0188  0.0270
31166W        W46783  10.185   2.093   2.252 -0.2019  0.2390  0.1333
31167W        W46784   0.798   7.213   3.710  0.0146 -0.3064 -0.1084
31168W        W46785  14.703   5.407  12.641 -0.1243  0.1879  0.4293
31169W        W46786   4.738   2.244  13.239 -0.0525  0.4114 -0.2041
31170W        W46787  11.189   6.753   2.632  0.3271 -0.1195 -0.3699
31171W        W46788   1.533  13.413  15.802 -0.0014 -0.0133  0.0330
31172W        W46789  10.041   6.348  13.682  0.3656  0.0871  0.1663
31173W        W46790  14.454   2.298   0.964  0.1215  0.1776  0.1610
31174W        W46791   0.811   9.251   3.845  0.0509 -0.0586  0.2039
31175W        W46792   2.802  17.803   1.431 -0.1654  0.0059  0.1463
31176W        W46793   2.418  15.568   5.087  0.0992 -0.1643 -0.2078
31177W        W46794  12.331  15.860  14.461 -0.1147  0.3392  0.2249
31178W        W46795   7.723  15.500  11.756  0.3518  0.0785  0.3078
31179W        W46796   1.127  13.100  15.871  0.1456 -0.0959 -0.1127
31180W        W46797  16.604   9.983  12.322  0.1686 -0.4626  0.0787
31181W        W46798  13.059  11.256   1.529 -0.3829 -0.0524 -0.3312
31182W        W46799  13.657   6.009   5.703 -0.1452  0.1131  0.1771
31183W        W46800  11.812  15.958  15.840  0.0918  0.3521  0.2232
31184W        W46801   3.146   2.225  15.174 -0.3129  0.1152  0.4432
31185W        W46802   1.273  14.362   4.136 -0.3391  0.0120 -0.1548
31186W        W46803   0.119   5.054  14.223  0.2034 -0.0514 -0.3481
31187W        W46804  17.109  13.711   3.661  0.3010 -0.0012 -0.0299
31188W        W46805   0.210  12.722  14.235  0.4926  0.2129 -0.1351
31189W        W46806  16.675  15.196   0.906 -0.0497 -0.0774  0.0509
31190W        W46807   9.057   6.487   5.642 -0.0067  0.0866 -0.0992
31191W        W46808   7.025   6.738   3.050 -0.1829  0.0591 -0.2610
31192W        W46809   4.326  15.008  13.775 -0.0799  0.0499  0.0859
31193W        W46810  10.929  13.438  12.631  0.0659  0.0122  0.2068
31194W        W46811  14.838  17.476  14.787  0.3764  0.2007 -0.2769
31195W        W46812   4.043  18.399   0.129 -0.1723  0.2229 -0.2964
31196W        W46813   1.890  12.069  11.613 -0.0576 -0.0766  0.2552
31197W        W46814  10.780   6.494   2.553 -0.1954 -0.2583  0.0204
31198W        W46815  17.217  16.398   3.027  0.0953 -0.1796 -0.0321
31199W        W46816   1.333   9.063  11.714 -0.0883 -0.2464  0.1512
31200W        W46817   0.445   9.804  14.441 -0.0192  0.1279  0.0652
31201W        W46818   3.757   3.068   1.234  0.0679 -0.0274 -0.3263
31202W        W46819   3.606  14.802   1.977  0.0631  0.2689 -0.2593
31203W        W46820   8.949   6.627  11.588 -0.0596 -0.1401 -0.2785
31204W        W46821  13.118   9.059   4.040  0.0423  0.1161  0.1575
31205W        W46822  16.267  13.601   0.404  0.0063 -0.0211  0.2965
31206W        W46823  17.296   6.373   0.232 -0.4525  0.1712  0.0878
31207W        W46824  11.175  16.555  15.167 -0.3778  0.3109  0.2642
31208W        W46825  17.091  11.048   0.299 -0.0117  0.0451 -0.2581
31209W        W46826  15.735  13.790   2.635 -0.0089  0.3049 -0.0899
31210W        W46827   5.948   5.649   1.421 -0.1783 -0.2502  0.3805
31211W        W46828  18.400   3.524   1.566  0.3311 -0.0300  0.0142
31212W        W46829   9.431  13.554  15.508 -0.2485  0.0975  0.2301
31213W        W46830   6.963   6.848  14.905  0.2048 -0.0827 -0.2934
31214W        W46831  10.754   0.874   4.697 -0.0467 -0.0703  0.1899
31215W        W46832   6.225  13.001   3.572  0.1588  0.0561  0.0441
31216W        W46833  10.827  17.890   4.481 -0.0579  0.2564  0.0521
31217W        W46834  15.464  17.511   6.129 -0.1791  0.1640 -0.0268
31218W        W46835  17.878  13.861  15.136  0.0019 -0.1788 -0.1078
31219W        W46836   1.685   5.576   1.859 -0.0316  0.0007 -0.0795
31220W        W46837   0.835   3.958   2.626 -0.3000 -0.1090 -0.0615
31221W        W46838  16.734   7.876   3.031 -0.1031  0.0548  0.0642
31222W        W46839  14.002   4.251  12.102 -0.3190 -0.2401 -0.3617
31223W        W46840  12.836   0.598   5.569  0.0182  0.1933 -0.1120
31224W        W46841   0.307  14.850   3.331 -0.2030 -0.0321  0.1619
31225W        W46842   1.912   5.805   4.339  0.2794  0.0780  0.2307
31226W        W46843   2.957  12.954   3.951  0.1307  0.3169  0.0540
31227W        W46844  15.621   4.678  13.722  0.0252 -0.2093  0.2486
31228W        W46845   1.354  14.241   2.433 -0.0857  0.1032 -0.0864
31229W        W46846  12.403   6.961   3.243  0.0389  0.1251  0.2806
31230W        W46847   5.898   3.991  13.718  0.5361  0.3424 -0.0221
31231W        W46848  11.458  12.405   1.537  0.0361  0.1316  0.0013
31232W        W46849  18.204  12.807   1.707 -0.2273  0.0809  0.5653
31233W        W46850   0.298   0.259   2.551 -0.1459 -0.0849  0.1072
31234W        W46851  16.533   2.848  15.703 -0.0810  0.1369  0.0160
31235W        W46852   8.991  15.590   4.194  0.0473  0.0443  0.0816
31236W        W46853  17.547   6.610  15.319 -0.0647 -0.1046 -0.2049
31237W        W46854   2.010  14.932  13.319 -0.1286  0.1753 -0.1200
31238W        W46855  15.337   4.925  15.548 -0.3335 -0.0530  0.0374
31239W        W46856  13.984  12.465   0.876 -0.1053  0.0080 -0.1422
31240W        W46857  14.500   1.237  12.448  0.3542  0.1698  0.4760
31241W        W46858   7.758  13.444   2.295 -0.0656  0.0226  0.1992
31242W        W46859  15.488  10.750  12.971 -0.2623 -0.4230  0.1106
31243W        W46860   4.102   2.366   4.027 -0.0781  0.1525 -0.2151
31244W        W46861  17.432   9.402  11.511  0.0376  0.2530 -0.1830
31245W        W46862  11.204  11.962   0.103  0.1880  0.1829 -0.1898
31246W        W46863  17.059  17.436  13.666 -0.0196 -0.0216  0.1006
31247W        W46864  13.838   0.208   2.998  0.0781 -0.2488 -0.0472
31248W        W46865  15.672  12.357   2.934 -0.0744 -0.0572  0.1730
31249W        W46866  10.930  10.742  14.327 -0.3886 -0.0513 -0.0547
31250W        W46867  12.123   6.492   3.167 -0.3097 -0.0715 -0.1064
31251W        W46868  15.028   5.129   2.514 -0.0737  0.3248 -0.2020
31252W        W46869   3.882   8.400   0.286 -0.0787 -0.0501  0.4117
31253W        W46870   7.310   7.115   3.022  0.0847 -0.0725  0.0985
31254W        W46871   2.369   5.999   2.550  0.2407 -0.1752  0.0410
31255W        W46872   5.393   4.733   4.283 -0.0571 -0.0291  0.4525
31256W        W46873   2.472   0.293   4.834  0.2545 -0.1259 -0.0236
31257W        W46874  18.201  12.743   2.588 -0.2229  0.0795 -0.2777
31258W        W46875   7.388  14.280   0.173 -0.1337  0.1206  0.1710
31259W        W46876   0.376   5.435  14.678 -0.1000 -0.0363 -0.3823
31260W        W46877   9.487  12.156  12.685  0.2123  0.1359 -0.1940
31261W        W46878   3.596   5.240   5.118 -0.0940 -0.0550 -0.1936
31262W        W46879  11.885   0.515   5.675  0.0060 -0.0659 -0.3007
31263W        W46880  16.911   5.910   0.784 -0.0611  0.1588  0.3972
31264W        W46881  17.831   1.888   4.189 -0.3379  0.0287 -0.0028
31265W        W46882  14.773   1.710   4.020  0.4224  0.0204 -0.2252
31266W        W46883  17.147  14.681  14.397  0.1756 -0.1652 -0.0459
31267W        W46884   7.814  14.632  12.708  0.3095  0.0874 -0.4791
31268W        W46885  16.094  16.600   2.010 -0.0878 -0.1282 -0.2390
31269W        W46886   9.989  10.219   3.252  0.1329  0.0882  0.4064
31270W        W46887  16.050  13.235   4.221 -0.2119  0.0843  0.0444
31271W        W46888  11.003  17.832  13.812 -0.0091 -0.2483 -0.3890
31272W        W46889  14.830  11.902   2.419 -0.2559 -0.1219  0.1536
31273W        W46890   7.601   4.864   1.147 -0.1864  0.0916 -0.2508
31274W        W46891   0.605  16.238  15.180 -0.0387  0.2919 -0.0485
31275W        W46892   7.567   0.056   2.163  0.0499  0.2191 -0.2411
31276W        W46893  17.023   6.470  15.323  0.1096  0.3022 -0.0853
31277W        W46894  13.108   5.983  11.509  0.1139 -0.0043 -0.3703
31278W        W46895   6.531   6.237   2.688  0.0805 -0.2591  0.0845
31279W        W46896  17.139   0.179   0.422  0.0707 -0.1878 -0.2810
31280W        W46897   3.849  14.178  15.615 -0.1820  0.1253  0.1251
31281W        W46898   6.556   4.446  10.649 -0.2006 -0.0643  0.2063
31282W        W46899  11.615  16.289  12.926  0.2668  0.0083 -0.1525
31283W        W46900   4.338   7.593  12.628  0.1525 -0.1030  0.4020
31284W        W46901   6.550   1.783   1.011 -0.1244  0.2751  0.0050
31285W        W46902  13.316   0.166  15.170 -0.0843  0.1200  0.2952
31286W        W46903   2.282  13.155  11.535  0.1559 -0.2125  0.0350
31287W        W46904   7.335   5.220   1.905 -0.0644 -0.0144 -0.2039
31288W        W46905  17.164   0.365   4.005  0.1246 -0.0663  0.0773
31289W        W46906   0.861   6.519  15.714  0.3883 -0.1767  0.0966
31290W        W46907  12.456  13.963   2.218 -0.0333  0.2636 -0.2146
31291W        W46908  17.054   2.523  13.711  0.0862 -0.3523 -0.0115
31292W        W46909   8.567   6.271  12.090  0.0829  0.0434  0.1877
31293W        W46910   0.378  11.857   4.080  0.2089  0.1020  0.3718
31294W        W46911   0.342   4.067   4.540  0.0413  0.0601  0.1544
31295W        W46912   1.037  15.211   1.557  0.0872 -0.4796 -0.3640
31296W        W46913  17.306   8.505   2.719 -0.0250 -0.0374 -0.0510
31297W        W46914   7.070   1.015   1.105 -0.4572 -0.0439 -0.0285
31298W        W46915   7.286   8.285  10.086 -0.0292 -0.3568 -0.3127
31299W        W46916   6.669  13.675  13.622  0.0321  0.0121 -0.0237
31300W        W46917  10.431  16.026  14.955 -0.0324  0.2543 -0.5503
31301W        W46918  14.809   8.036   3.465 -0.1036  0.0557 -0.0407
31302W        W46919  17.433  15.284   0.350 -0.5052 -0.0611 -0.0547
31303W        W46920   9.829   2.674   0.808  0.1099  0.1114 -0.1261
31304W        W46921   5.611   8.789   4.307  0.1882  0.0332 -0.0206
31305W        W46922   9.513  10.282   1.703 -0.1287  0.3303 -0.0140
31306W        W46923   2.619   3.606  12.362  0.3476  0.0334  0.1521
31307W        W46924   4.018   5.057   0.082 -0.0165  0.2346  0.2066
31308W        W46925  12.727   6.171   1.423  0.0835 -0.0449  0.0491
31309W        W46926   3.584   9.758   5.790  0.0331  0.1491 -0.1638
31310W        W46927  11.721  12.578  15.156  0.0067 -0.0415 -0.1054
31311W        W46928  13.129   8.776  11.950 -0.0103 -0.1314  0.4292
31312W        W46929   9.818  12.067  12.335 -0.0165 -0.0728  0.2036
31313W        W46930  10.404  18.358   5.405  0.1954 -0.0440 -0.3876
31314W        W46931  10.052   0.814   3.656 -0.0306 -0.0181 -0.0641
31315W        W46932   5.013   3.793  11.381 -0.0489 -0.0068  0.0836
31316W        W46933   2.468  17.701  14.777  0.2935 -0.0979 -0.1945
31317W        W46934   7.008  14.519   0.895  0.0781  0.1946  0.2879
31318W        W46935   1.052  10.161   3.633 -0.1375  0.0689  0.0584
31319W        W46936  17.270   8.505  13.882  0.1462  0.0521 -0.0503
31320W        W46937  12.288  10.042  13.777 -0.0422 -0.1612 -0.1251
31321W        W46938   9.939   5.028  12.090 -0.1270  0.0749  0.0288
31322W        W46939   4.633   8.173  14.955  0.3173  0.1337  0.3482
31323W        W46940  12.758  16.595  15.075  0.1778  0.1860  0.2578
31324W        W46941  10.461   9.618  11.953  0.3111  0.1368 -0.0484
31325W        W46942   2.269   4.354   0.603  0.1119 -0.3860  0.4273
31326W        W46943  14.384   8.096  12.777 -0.2015  0.0155 -0.0723
31327W        W46944  14.020  16.667  10.918  0.0615 -0.0854  0.0429
31328W        W46945  18.170  13.699  12.798 -0.1552  0.0603  0.1525
31329W        W46946   9.215  11.060  11.063 -0.0269 -0.0993 -0.0386
31330W        W46947   7.685  11.771  11.743  0.0191 -0.2005  0.0050
31331W        W46948   3.970  16.371  14.818  0.1877  0.1826  0.0525
31332W        W46949   6.982  11.814  12.466 -0.2015  0.2123 -0.2223
31333W        W46950   2.074  10.539  11.661 -0.1142 -0.0763  0.0640
31334W        W46951  16.181   9.806   3.669  0.3379 -0.0056 -0.0316
31335W        W46952   0.923   9.308  13.559 -0.0555  0.0483 -0.1715
31336W        W46953  11.982  18.391   1.354  0.3425 -0.2610 -0.4468
31337W        W46954  16.703  10.376   2.433 -0.2375 -0.2042  0.0997
31338W        W46955   7.390   1.087  13.660 -0.0050 -0.1324 -0.2149
31339W        W46956   9.473   8.647   6.128 -0.4557 -0.1867  0.2329
31340W        W46957   7.019   7.750  10.894  0.0291  0.1201  0.0359
31341W        W46958  16.928   3.154   4.150 -0.0515 -0.2371  0.2725
31342W        W46959   0.995  13.927   2.588  0.0000  0.3507  0.0542
31343W        W46960   7.888   7.477  15.171  0.1476  0.3054 -0.2035
31344W        W46961   0.953   3.603   6.238  0.2412  0.1631  0.1470
31345W        W46962   6.395  13.714  14.188 -0.2268  0.4244  0.0335
31346W        W46963   4.088  13.171   2.797 -0.2438  0.0945  0.3858
31347W        W46964  12.704   2.554   4.425 -0.0809  0.2357 -0.1212
31348W        W46965  12.874  10.526  13.426  0.3307  0.0534 -0.2792
31349W        W46966   8.469  13.832  13.001  0.0285  0.0414  0.0914
31350W        W46967  16.052  10.197  11.561 -0.0952  0.0007  0.0676
31351W        W46968   4.347  13.162  15.267  0.1050 -0.4478 -0.0418
31352W        W46969  13.932   9.637   0.817 -0.0297 -0.1862  0.0871
31353W        W46970  15.332   9.699  14.682  0.1720 -0.2321  0.0909
31354W        W46971   8.695   6.160  15.884 -0.2449  0.0429 -0.2878
31355W        W46972   5.703   3.580   3.068  0.2568 -0.2608  0.1457
31356W        W46973  16.222   5.625  12.731  0.0200 -0.1029  0.0388
31357W        W46974   1.514   5.632   4.664  0.2433 -0.0684 -0.2924
31358W        W46975  14.794   5.934  12.800  0.3495  0.0763 -0.2018
31359W        W46976   4.648   2.319   3.426  0.1107 -0.0767  0.1391
31360W        W46977   3.461  12.977   5.473  0.2684 -0.2350  0.1980
31361W        W46978   8.545  12.788  12.725  0.0043  0.0156  0.0719
31362W        W46979   8.234   2.521  14.511 -0.2253 -0.1296 -0.2449
31363W        W46980   4.901  14.236   1.866  0.0147 -0.1098 -0.1069
31364W        W46981  17.564   3.492   2.997  0.0005  0.2003  0.1573
31365W        W46982   6.980   1.953  14.667  0.2534  0.2459  0.1669
31366W        W46983  13.924  10.799  14.892  0.0059 -0.0636 -0.1520
31367W        W46984  15.183   2.307   3.101  0.0650 -0.1291 -0.0172
31368W        W46985   1.382   6.573  14.205 -0.3475  0.0435 -0.1406
31369W        W46986   5.124   6.506  13.382  0.1814 -0.1603  0.1930
31370W        W46987   9.517   1.363   2.379  0.0357 -0.3588 -0.1597
31371W        W46988  13.678  11.819  11.545 -0.0190 -0.2321 -0.3995
31372W        W46989  16.595   8.405  11.149  0.2278 -0.1783  0.4814
31373W        W46990  12.658  15.139  15.364  0.1177  0.3130 -0.2560
31374W        W46991   5.758  11.500   4.156 -0.5197 -0.0135  0.0447
31375W        W46992  13.358   5.411  15.715 -0.3178  0.0593  0.0461
31376W        W46993   8.822   7.986   0.129  0.1932  0.0290 -0.2299
31377W        W46994   1.818  12.603   5.932  0.0656 -0.1761  0.2747
31378W        W46995   8.694  10.649  14.318 -0.0472 -0.1161  0.0183
31379W        W46996  13.945  11.705  15.003 -0.0914 -0.4306  0.0639
31380W        W46997   8.818   0.105   4.373 -0.0436  0.4063 -0.1173
31381W        W46998  14.627  10.031  12.042 -0.0130  0.0905  0.0226
31382W        W46999  18.291  14.542   0.339  0.0471 -0.1234  0.3756
31383W        W47000   0.987   0.845   2.640 -0.1164  0.0746 -0.1816
31384W        W47001   9.121   5.171   3.582  0.0927  0.3302  0.0242
31385W        W47002  15.231  16.117  15.256 -0.1158 -0.2331  0.1236
31386W        W47003   2.091   5.984   1.920 -0.1081  0.3353  0.2901
31387W        W47004  12.207  14.494   3.011 -0.1032 -0.0157 -0.0461
31388W        W47005  13.178  14.622   0.473 -0.0717 -0.0408  0.0613
31389W        W47006  16.567   4.803   0.914 -0.1932  0.1404  0.0427
31390W        W47007   3.316   4.816   2.064  0.0711 -0.1049 -0.0000
31391W        W47008  13.471   7.486   2.238 -0.1148  0.2137 -0.0499
31392W        W47009  16.280   8.741  12.410 -0.0893 -0.1337  0.0238
31393W        W47010  11.897   6.176   4.242 -0.0972 -0.1072 -0.0194
31394W        W47011   0.539  12.099  13.318  0.0687 -0.0440 -0.1230
31395W        W47012  11.143  11.773  11.201 -0.1754  0.4139  0.1051
31396W        W47013  12.360   7.895  13.457  0.0707  0.3947  0.5699
31397W        W47014  16.796   5.462  12.604 -0.2012 -0.2457 -0.1615
31398W        W47015  10.030   5.266   0.318 -0.1687  0.3483 -0.4069
31399W        W47016   8.995   9.014   0.904 -0.1002  0.0337  0.1211
31400W        W47017  13.818   4.626  14.344  0.0074  0.3677  0.1459
31401W        W47018   2.464  17.232   1.551  0.1981 -0.1192  0.0494
31402W        W47019   2.608   7.028   6.228  0.0173  0.2284  0.0787
31403W        W47020   3.562   3.859  13.533  0.3656 -0.6041 -0.0123
31404W        W47021  17.116   5.434   4.023  0.0906 -0.0543  0.0183
31405W        W47022  17.659   2.094   2.206 -0.0909  0.2423 -0.4773
31406W        W47023   2.513  11.061  12.641 -0.3228  0.1723  0.2530
31407W        W47024   6.534  11.987   4.381 -0.0516  0.0369  0.1139
31408W        W47025  17.041   3.180  11.070 -0.1368 -0.1464 -0.1185
31409W        W47026  14.391   6.063  11.729 -0.1460  0.1871 -0.2050
31410W        W47027  15.235   7.943  12.634  0.2114  0.0321 -0.0775
31411W        W47028  15.233   1.733   4.164 -0.1379  0.0039 -0.0893
31412W        W47029   6.247  14.933   0.733  0.0114 -0.0414  0.4012
31413W        W47030   0.969  17.338   2.479  0.1988  0.1124 -0.0106
31414W        W47031   9.559  16.536   1.664  0.0070 -0.0889  0.2093
31415W        W47032  14.770  17.237   4.862 -0.1603 -0.1660  0.0524
31416W        W47033   3.882  13.232  12.560 -0.1189  0.0084 -0.2203
31417W        W47034  11.750   7.920  10.623 -0.0354 -0.2444  0.1161
31418W        W47035  16.411   3.583   4.933 -0.1904  0.2265 -0.0279
31419W        W47036   1.882   4.798   5.031 -0.2125 -0.0894 -0.3152
31420W        W47037   1.281   7.469  11.162  0.2841 -0.1642  0.2364
31421W        W47038   0.096   9.642   4.728 -0.2691 -0.0637  0.2225
31422W        W47039  16.153  15.038  14.520 -0.1215  0.1747  0.0461
31423W        W47040   8.052   1.518   9.696  0.1745  0.0884 -0.3927
31424W        W47041  12.807  16.091   2.537  0.0930 -0.0895 -0.4898
31425W        W47042   0.249   0.980  11.691  0.4926  0.2529  0.1748
31426W        W47043   2.157  15.637  14.479  0.3479  0.1417 -0.0731
31427W        W47044  11.893   6.323   3.532  0.0370  0.1720 -0.2502
31428W        W47045   0.182   5.929  15.315  0.3355 -0.2780  0.1110
31429W        W47046   9.644  16.539  14.866 -0.1417 -0.1443  0.1421
31430W        W47047  15.962   2.148  15.061  0.1278 -0.2011  0.0851
31431W        W47048  15.685   7.276   0.576  0.0753 -0.0251  0.1323
31432W        W47049  12.128   4.324   5.079 -0.1377  0.2433  0.3037
31433W        W47050  12.816   9.561  10.761  0.1914 -0.0801  0.1180
31434W        W47051  11.996  16.605   3.926 -0.1843  0.0620 -0.2920
31435W        W47052  16.931   3.989  15.755 -0.0513  0.2064 -0.1312
31436W        W47053  15.215  15.537   5.868  0.1227  0.1118  0.2132
31437W        W47054   1.631  12.859  15.120 -0.1723  0.1633 -0.0126
31438W        W47055   5.357   2.882   1.868 -0.1124 -0.0484 -0.2062
31439W        W47056  14.526   7.991  11.863  0.0831 -0.1222 -0.2717
31440W        W47057  11.379  17.293   2.076  0.1462 -0.0177  0.1432
31441W        W47058  12.603   3.250   2.067 -0.1892  0.0950  0.4761
31442W        W47059   8.977  17.264  12.762  0.3337  0.1575 -0.0178
31443W        W47060  11.906   1.565   0.304 -0.0079  0.2115 -0.3946
31444W        W47061   5.217   5.597  15.009  0.2218  0.0718  0.1099
31445W        W47062  13.287   3.779   1.542 -0.1731 -0.2339 -0.2261
31446W        W47063   8.782   9.052   0.449 -0.1803 -0.1532 -0.2590
31447W        W47064   7.267  11.093   1.217 -0.2548  0.0007 -0.1949
31448W        W47065   6.299   5.972  13.667 -0.1141 -0.0195 -0.1719
31449W        W47066  15.729  11.248  12.131  0.2301 -0.0917 -0.0345
31450W        W47067   1.988  11.294  12.501  0.0052  0.1047 -0.3277
31451W        W47068  17.556   9.229   3.472  0.2017  0.0469 -0.0117
31452W        W47069   1.246   1.750  12.998 -0.1336  0.1532 -0.0188
31453W        W47070  13.745  14.536   4.070  0.3463 -0.0580  0.0598
31454W        W47071   5.663   3.471   0.733  0.0719 -0.3340 -0.4082
31455W        W47072   6.717  13.207   3.374 -0.0648 -0.0720  0.0984
31456W        W47073   2.750   6.459  11.637  0.1053  0.4414 -0.1463
31457W        W47074  17.280  13.008   4.049  0.1932 -0.2460  0.4352
31458W        W47075  12.902  16.165  14.080  0.3172  0.2399 -0.0424
31459W        W47076  14.827   1.154   0.831 -0.1479  0.1095  0.2186
31460W        W47077  16.163  11.723  12.065 -0.2240  0.3278 -0.0288
31461W        W47078   1.867  11.525   0.441 -0.0874  0.0285 -0.0558
31462W        W47079  15.077  10.621  15.347 -0.1071  0.1623 -0.0288
31463W        W47080   3.481  13.893   5.024  0.4251 -0.1272 -0.0544
31464W        W47081   4.150   9.082  14.867  0.2012  0.1672 -0.0813
31465W        W47082  11.636  10.046   5.033 -0.3983  0.2172 -0.0449
31466W        W47083   0.156  11.291   0.269  0.2707  0.2149  0.0825
31467W        W47084   9.247   8.210   0.353  0.1058  0.0222  0.2132
31468W        W47085  14.529   0.743  14.663  0.0284  0.5693  0.0065
31469W        W47086  15.235   6.560  14.526  0.0294 -0.0198  0.0318
31470W        W47087   0.759  11.834  12.016  0.0337 -0.1537  0.0032
31471W        W47088  15.346   6.340   1.780 -0.1600  0.0562 -0.0706
31472W        W47089   1.383   3.210  13.918  0.1129 -0.2635  0.2237
31473W        W47090  12.312   1.864  13.118  0.0344 -0.0944  0.0484
31474W        W47091  16.971   9.235  12.198 -0.0220  0.1056  0.0259
31475W        W47092  12.079   8.917  12.420 -0.2563  0.0026 -0.0291
31476W        W47093  11.542   4.978   1.317  0.0121 -0.0050 -0.2582
31477W        W47094   2.177  16.736  13.399 -0.4617  0.3100  0.1407
31478W        W47095   1.941  14.290   0.300 -0.0216  0.4017  0.0086
31479W        W47096   1.468   2.992   0.247 -0.0280  0.1986  0.0637
31480W        W47097   8.168  14.490   0.119 -0.0041  0.0699 -0.4466
31481W        W47098   0.310  13.758   1.306  0.2980 -0.1502 -0.0683
31482W        W47099   1.691   9.750   2.516 -0.1924 -0.0510 -0.2063
31483W        W47100  15.151   7.089   0.794 -0.1415  0.1696  0.0328
31484W        W47101  11.137   1.081  15.045  0.1894 -0.1048 -0.1306
31485W        W47102   4.108   5.052  14.354  0.0359  0.2019 -0.1532
31486W        W47103   8.082   5.235   1.733 -0.0369  0.1959  0.0989
31487W        W47104  13.333  11.231  14.562 -0.0175 -0.3401  0.2243
31488W        W47105  12.883   8.133   2.489  0.3336  0.1023  0.2548
31489W        W47106  14.782   1.093  12.879 -0.1730 -0.3706 -0.0903
31490W        W47107  17.687   1.037   2.664  0.1406  0.3699 -0.2071
31491W        W47108  12.173   7.692  12.954  0.0819  0.1879  0.3475
31492W        W47109  16.140   8.138  12.793  0.0897 -0.3012  0.1458
31493W        W47110  17.289   8.786   4.519 -0.2340 -0.2486  0.1021
31494W        W47111  14.714  10.647   0.010  0.2379  0.1737  0.0931
31495W        W47112  14.092   2.345   2.040 -0.0254 -0.0171 -0.0135
31496W        W47113  12.292  16.502  15.266  0.0876  0.0680 -0.4752
31497W        W47114  18.411   1.372  15.259  0.1525 -0.5651  0.0450
31498W        W47115  13.953   6.955  14.255 -0.2192  0.1848 -0.3791
31499W        W47116  15.823   3.409   1.524 -0.2088 -0.1196 -0.1631
31500W        W47117  14.892   2.379  12.393 -0.0589 -0.2720  0.0496
31501W        W47118  16.000  16.065   4.802 -0.3084  0.1852  0.1797
31502W        W47119   5.259   7.562   4.166  0.0157  0.2694  0.5435
31503W        W47120  13.945  17.629  14.221  0.0173 -0.1073 -0.2436
31504W        W47121   0.327   9.092   1.369  0.1848  0.0596 -0.0388
31505W        W47122   3.117   2.609  14.844 -0.1896  0.1078 -0.0062
31506W        W47123   8.607   0.680   2.312 -0.3439  0.1546  0.1534
31507W        W47124  10.019   9.146  12.543  0.2363  0.1689  0.1036
31508W        W47125   3.049   5.884  14.068  0.1630  0.0301 -0.0727
31509W        W47126   6.722   8.109   5.127 -0.0595  0.0389  0.0596
31510W        W47127  16.893   5.343  15.447 -0.0159 -0.6324  0.0108
31511W        W47128   1.606  15.582  12.177  0.2147 -0.0701  0.0441
31512W        W47129  15.920  17.478   2.308 -0.0347 -0.1413  0.0082
31513W        W47130   2.567   8.859   4.608  0.3204  0.0169 -0.1532
31514W        W47131   3.541   7.211  12.342 -0.2510 -0.1548 -0.1189
31515W        W47132  14.343  12.676   5.380  0.1284 -0.0650  0.0467
31516W        W47133  12.142   4.872  14.359 -0.2833  0.1371  0.0160
31517W        W47134   3.299  11.854  11.999 -0.2782  0.0594 -0.2230
31518W        W47135  10.319  11.563  15.717 -0.2726 -0.3433 -0.0334
31519W        W47136   7.364   4.448  13.128  0.2506 -0.1689  0.2057
31520W        W47137   4.838   0.070   5.179 -0.3707 -0.2891  0.2738
31521W        W47138  13.426  15.402  11.044 -0.0055  0.0218 -0.1513
31522W        W47139   8.041   6.573   1.502 -0.1712 -0.1169 -0.0888
31523W        W47140   1.788  17.959   1.760  0.2941  0.0250 -0.1351
31524W        W47141   5.504   1.942   1.343 -0.0129 -0.1405 -0.1737
31525W        W47142   5.507   3.155  13.294  0.0499  0.1365 -0.1125
31526W        W47143   1.495  17.099  11.548  0.2151  0.2908 -0.2050
31527W        W47144  15.187   7.680  13.163 -0.0640  0.1245 -0.1121
31528W        W47145   7.628  13.610  13.398  0.3039  0.2857 -0.0333
31529W        W47146  16.067  17.629  14.203 -0.5765  0.1261 -0.0842
31530W        W47147   2.174  11.317   4.043  0.1917  0.2500 -0.2405
31531W        W47148   2.354   4.318  14.176 -0.1226  0.1029  0.1119
31532W        W47149  16.695  11.611  15.766  0.0544 -0.2137  0.0141
31533W        W47150   1.072  17.162   3.657 -0.1502 -0.0572 -0.0253
31534W        W47151  14.116  14.059  13.314 -0.2035  0.0891  0.0581
31535W        W47152   5.311  12.183   1.210 -0.2240 -0.2716 -0.2436
31536W        W47153  11.809  11.266   3.678  0.2127  0.0416  0.0546
31537W        W47154  17.077   3.457  11.498 -0.2057 -0.0530 -0.0385
31538W        W47155  13.202  12.154   3.206 -0.0894  0.1580 -0.0602
31539W        W47156   6.353  11.755   1.022 -0.2961  0.0841 -0.1940
31540W        W47157   7.985   6.151  11.038 -0.0411  0.1462 -0.0957
31541W        W47158   5.704   0.143  11.842 -0.0510 -0.1419 -0.0157
31542W        W47159  11.550   1.487  12.989  0.3271 -0.1045 -0.4383
31543W        W47160   4.128  15.196  14.609  0.0243 -0.0927 -0.2766
31544W        W47161  12.143   1.603   5.161  0.0755 -0.4024 -0.3316
31545W        W47162  15.346   9.529  10.045 -0.3976 -0.1614  0.0253
31546W        W47163  14.809   6.276  14.310 -0.0518 -0.0169  0.0177
31547W        W47164  17.360   5.460  12.857  0.0189  0.0840 -0.0797
31548W        W47165  11.544  15.232  10.576 -0.2901  0.1101 -0.3038
31549W        W47166  17.961  12.066  11.705  0.2847  0.0253 -0.1326
31550W        W47167  16.755  16.563  12.115 -0.0630 -0.1002 -0.0071
31551W        W47168   4.586  11.275  14.899 -0.1043 -0.0458  0.1924
31552W        W47169  18.384  11.081  12.904 -0.3711 -0.2500 -0.0006
31553W        W47170   9.810  13.745   0.902 -0.0113  0.0999  0.0291
31554W        W47171   9.143   4.836   2.631 -0.2510 -0.1869 -0.0769
31555W        W47172   7.123  14.172  13.178 -0.1687 -0.1445  0.2248
31556W        W47173   0.577  13.956   0.831 -0.0661  0.0008 -0.4009
31557W        W47174  16.306   1.843  15.928 -0.1256  0.0600  0.1960
31558W        W47175   5.519   8.995  10.962  0.0257 -0.1633 -0.1944
31559W        W47176   8.324  16.399  12.784  0.0904  0.1665  0.5370
31560W        W47177   3.405   8.441  13.363  0.0658 -0.0998  0.1207
31561W        W47178  15.256   5.690   3.060  0.1292  0.1141  0.0611
31562W        W47179   5.264  13.452   4.112  0.0467  0.0932  0.1725
31563W        W47180  16.238   1.492   0.764  0.2382 -0.3011  0.0026
31564W        W47181  12.188  17.411  14.461  0.3159  0.0944  0.0843
31565W        W47182   6.092  11.694   4.570  0.0488  0.0256  0.2791
31566W        W47183   5.876  16.696   2.457 -0.0909  0.1524  0.0627
31567W        W47184   2.459  11.737   4.762  0.0017  0.1024 -0.1462
31568W        W47185   1.065  10.840   6.339  0.4105  0.0018  0.0450
31569W        W47186  16.824  11.407   5.100  0.1117  0.4144 -0.0946
31570W        W47187  14.028  15.235   3.081  0.1618 -0.0779  0.2657
31571W        W47188  18.226   3.820  12.827 -0.1701 -0.2860  0.0202
31572W        W47189   1.817   4.687  15.954 -0.3105  0.1016  0.0916
31573W        W47190  16.935  10.215  11.487  0.2523  0.2751  0.0415
31574W        W47191   0.894   4.428   2.783  0.2622 -0.2288  0.2593
31575W        W47192   5.214  10.771  11.315  0.3448 -0.4544 -0.1890
31576W        W47193  17.651  12.381  14.548  0.0140  0.3289  0.1071
31577W        W47194  13.338   6.556  11.108  0.1694  0.3427  0.1734
31578W        W47195   8.634   1.543  10.851 -0.1006 -0.1057 -0.1470
31579W        W47196   0.534   7.068   5.338 -0.0622  0.0535  0.0064
31580W        W47197  17.011  12.489  13.720 -0.1872 -0.1414  0.0064
31581W        W47198  13.283  13.244   4.812 -0.0574 -0.3391 -0.2773
31582W        W47199   5.130   5.586  12.355 -0.1099  0.0398 -0.1294
31583W        W47200  12.497  12.526  13.175  0.1467 -0.1172 -0.0849
31584W        W47201   9.147   1.475   2.014  0.0090 -0.0172 -0.1290
31585W        W47202  13.097  13.487  15.619  0.2952  0.2145 -0.2848
31586W        W47203  11.062   8.484   0.658  0.1101  0.0895  0.2871
31587W        W47204  16.444  13.917  12.681 -0.0819 -0.1582 -0.0636
31588W        W47205   9.454  11.650  15.887  0.1191 -0.1488  0.0018
31589W        W47206  11.109  13.868  11.422  0.0025 -0.3437  0.0026
31590W        W47207  13.005   1.430   3.479  0.2832  0.1110  0.2225
31591W        W47208  13.968  14.802   1.719  0.0485 -0.0930 -0.0701
31592W        W47209  16.020   9.567   0.577 -0.3104  0.1013 -0.1841
31593W        W47210   1.899   3.252  12.017  0.1332 -0.1833  0.1316
31594W        W47211  14.904  15.565   1.614  0.0996 -0.1065 -0.0426
31595W        W47212   9.227  14.753  11.499 -0.1964  0.0163  0.2550
31596W        W47213   2.770  12.143  14.264 -0.0590  0.4297  0.1442
31597W        W47214  10.445   7.515  11.740 -0.1574 -0.0852 -0.1167
31598W        W47215   0.826  11.561   5.785  0.0648  0.1163 -0.0622
31599W        W47216  13.728  12.322   3.402 -0.0660 -0.3623  0.3062
31600W        W47217  17.716   7.880   2.341  0.1968 -0.0738 -0.1586
31601W        W47218   2.394   7.036  11.125 -0.1272  0.2939  0.2143
31602W        W47219  12.556   8.288   4.741 -0.2220 -0.0735  0.1118
31603W        W47220   5.474   2.869   2.429 -0.0186  0.0057 -0.4150
31604W        W47221   8.558   7.075   0.648  0.3310  0.2554 -0.1817
31605W        W47222  18.127   3.840   1.264 -0.1842  0.0019 -0.0376
31606W        W47223   3.351  15.265   4.991 -0.2154  0.1237 -0.2172
31607W        W47224   4.409  14.423  13.888  0.1053 -0.1859 -0.1304
31608W        W47225   6.381   1.558   5.021  0.0532 -0.0326  0.1083
31609W        W47226   4.783  16.132   1.998  0.0206 -0.0634 -0.0584
31610W        W47227  12.795   2.416   5.785  0.0413 -0.3012  0.2428
31611W        W47228  12.006  12.577  12.414 -0.1191  0.0581  0.1170
31612W        W47229   9.463   1.366   1.517  0.0028 -0.3081  0.3605
31613W        W47230  11.951   1.657   4.280  0.0264  0.1369 -0.0597
31614W        W47231   7.625  13.666   1.902 -0.0944  0.1164  0.1326
31615W        W47232   1.689  13.921   5.779 -0.1284  0.1599  0.3103
31616W        W47233  16.785   7.387  15.235  0.0308 -0.1938 -0.2179
31617W        W47234   7.144  12.069   3.157  0.0995 -0.0455 -0.1916
31618W        W47235  10.907  14.381   2.881 -0.0944  0.0891  0.1291
31619W        W47236   8.689  12.565   1.113  0.2047  0.1072  0.2957
31620W        W47237   7.395   7.905  12.019 -0.1982  0.0661 -0.0496
31621W        W47238   3.178   9.760   4.864 -0.1733 -0.1020  0.0564
31622W        W47239  16.758  12.806  13.428 -0.0881 -0.3628  0.3664
31623W        W47240  12.957  16.532   1.500  0.1254  0.0014 -0.1131
31624W        W47241   8.792   7.902  11.431 -0.3213  0.0608  0.1472
31625W        W47242   5.346   4.917   5.396  0.0025 -0.0598 -0.0480
31626W        W47243   9.782   9.401  15.664  0.3172  0.2154  0.2074
31627W        W47244   8.633   1.647   2.223 -0.1624  0.2511 -0.0245
31628W        W47245  17.029   6.880  11.962  0.1464  0.0124 -0.4307
31629W        W47246  11.024   4.985   2.975  0.2842  0.1865 -0.1089
31630W        W47247  15.912  18.219  12.485 -0.0513  0.3603 -0.1268
31631W        W47248   8.075  16.033  15.357 -0.3197 -0.1597 -0.0982
31632W        W47249   5.187   4.744   3.830 -0.1761 -0.1784  0.1516
31633W        W47250   8.208   7.460   0.574  0.2689 -0.1914  0.3037
31634W        W47251   7.616   5.026   3.668 -0.0998 -0.1172  0.0995
31635W        W47252  13.441   9.405   5.406 -0.0725 -0.0896 -0.0886
31636W        W47253  18.240   3.491  15.890  0.0015  0.2869 -0.0592
31637W        W47254  13.359  17.322   1.454  0.0383  0.1179  0.0679
31638W        W47255  17.812  14.347  11.756 -0.2587  0.0883 -0.1970
31639W        W47256   1.533   9.633  15.231  0.3131  0.0039 -0.0319
31640W        W47257   8.694   0.921   0.302 -0.0356 -0.1756 -0.3826
31641W        W47258  16.070   9.748   1.864  0.0252 -0.1688 -0.1049
31642W        W47259  16.139   7.441   4.683  0.1715  0.0006 -0.0849
31643W        W47260   0.025  13.622  16.136  0.1578  0.2036 -0.1868
31644W        W47261  16.845   1.021  15.300  0.1238 -0.0111  0.1360
31645W        W47262  16.770  14.582   3.345 -0.2148 -0.1641 -0.1311
31646W        W47263   5.208   7.664  12.609  0.1106 -0.1161 -0.0525
31647W        W47264  12.901  16.558   2.443 -0.1056  0.1981 -0.1710
31648W        W47265  17.825   7.027   0.461 -0.0170  0.0230 -0.1443
31649W        W47266  16.252  17.037   5.708 -0.0269  0.2687 -0.1361
31650W        W47267   3.804  15.525  14.691  0.3320  0.1662  0.1004
31651W        W47268   2.974  14.173   1.416 -0.0185 -0.0048  0.0079
31652W        W47269  10.521   0.208   0.323 -0.0824 -0.1232 -0.0214
31653W        W47270   0.438   0.368  11.760  0.0787  0.0136 -0.2082
31654W        W47271  18.270   6.732   1.301  0.1497 -0.0770  0.2779
31655W        W47272  10.661  10.339  15.200 -0.2028 -0.3328  0.1001
31656W        W47273   7.221   7.374  10.505 -0.1107  0.2617  0.0646
31657W        W47274  14.855  13.534   4.465  0.1695  0.0942  0.0969
31658W        W47275   1.686  14.797   1.205 -0.1008  0.2835  0.0388
31659W        W47276   5.034   1.095  13.412  0.1714 -0.2648 -0.0326
31660W        W47277  11.810   2.684   4.290  0.4537 -0.0853 -0.0700
31661W        W47278   0.523  11.469  15.723 -0.0045 -0.2932  0.0141
31662W        W47279   7.480   4.311   4.977  0.1728  0.2308 -0.3016
31663W        W47280   5.283   4.396  16.014 -0.2846 -0.0395  0.2269
31664W        W47281  17.300  15.208   4.971 -0.0673 -0.3407 -0.0756
31665W        W47282  12.935  16.054  15.046 -0.0640 -0.1932  0.1859
31666W        W47283   7.365   7.369  15.438  0.3137 -0.0192 -0.0326
31667W        W47284   6.312  18.046  11.354  0.3810  0.0435  0.0553
31668W        W47285  13.860  13.472   3.519 -0.3102  0.1123  0.2132
31669W        W47286   4.010   9.488   5.658 -0.1367 -0.1305 -0.4771
31670W        W47287  14.813   8.502  11.051  0.2036 -0.1098  0.1044
31671W        W47288   2.691  15.750   0.970  0.4228  0.1783  0.0515
31672W        W47289  13.696   2.717   2.686 -0.3658  0.1516  0.0910
31673W        W47290   0.947   2.622   1.833 -0.0082  0.0206 -0.4831
31674W        W47291  11.167  16.489   2.430 -0.2072  0.0292  0.1831
31675W        W47292  14.966  10.775  11.101  0.1504 -0.0162  0.1347
31676W        W47293   0.271   6.533   1.645 -0.0178 -0.2019  0.0671
31677W        W47294   1.283   3.188   3.737  0.1648 -0.0273  0.0189
31678W        W47295   1.718   0.234   4.260  0.1584  0.0138  0.2480
31679W        W47296  17.301  12.008  14.720  0.4229  0.3425  0.1824
31680W        W47297   2.726  13.084  11.422 -0.2402  0.3401 -0.1177
31681W        W47298  14.497   7.133   2.039 -0.1478 -0.2385 -0.3992
31682W        W47299  14.933   1.024  13.388  0.3357  0.3592  0.4596
31683W        W47300   1.843   4.418  14.350 -0.0877  0.0307 -0.1491
31684W        W47301  11.852   7.784  12.556 -0.3347  0.1754 -0.4077
31685W        W47302  14.015   4.876   6.246 -0.0005  0.0710 -0.0638
31686W        W47303   2.915  11.473  12.099 -0.1463  0.1816 -0.4121
31687W        W47304  18.299  15.022   0.654  0.1467  0.0804  0.0895
31688W        W47305   0.621  16.015   5.087 -0.0915 -0.2303  0.0785
31689W        W47306  13.591   1.449   4.309  0.4658 -0.0133  0.0269
31690W        W47307   8.993   8.457  14.377 -0.1725 -0.0519 -0.1732
31691W        W47308   7.872   5.815   2.334 -0.1583  0.0403 -0.1477
31692W        W47309   9.784   2.731   3.471  0.1587  0.2158 -0.2007
31693W        W47310  16.957   9.470  13.603  0.1826 -0.1851  0.0590
31694W        W47311   2.180   9.760   1.122  0.5032 -0.0221 -0.1722
31695W        W47312   4.152   4.130  14.162  0.2922  0.0978  0.0974
31696W        W47313   0.668   9.546  11.690 -0.2268 -0.2372  0.1687
31697W        W47314  18.257   7.407   5.046 -0.1436  0.0781 -0.0362
31698W        W47315   8.128  11.663   0.190  0.2249 -0.1394 -0.2640
31699W        W47316   1.255   9.349   0.720  0.0141  0.0074 -0.2348
31700W        W47317  14.678  17.942  11.281 -0.0827 -0.0128  0.3635
31701W        W47318  16.142   3.101  15.242  0.2137  0.3147 -0.3393
31702W        W47319  13.077   5.456   3.339  0.1514 -0.1286 -0.2744
31703W        W47320   3.838   7.061  15.808  0.2180  0.0321  0.3712
31704W        W47321  14.963  13.381  14.885 -0.0022 -0.0423 -0.0427
31705W        W47322   1.289   6.100  15.841  0.2560 -0.2173 -0.2102
31706W        W47323   4.626  11.375   1.274 -0.1073 -0.2762 -0.5007
31707W        W47324   8.169  11.941   1.658 -0.0633  0.1762  0.3248
31708W        W47325  14.140   9.903  12.100 -0.1349 -0.0020 -0.1414
31709W        W47326  13.412   0.771  15.371  0.0162  0.2986  0.4561
31710W        W47327  10.938   0.093  14.691  0.1259  0.1718 -0.2075
31711W        W47328  11.866   2.797   1.239 -0.2676 -0.0767 -0.1214
31712W        W47329  18.457  17.328   4.273 -0.1168 -0.1465  0.0400
31713W        W47330   1.228  12.334   1.411  0.0893  0.0873  0.1313
31714W        W47331   1.296   2.651   2.578  0.2230  0.2975 -0.0246
31715W        W47332   0.674  17.151   0.304  0.0327  0.2337  0.5117
31716W        W47333  12.766   2.719   1.103  0.1172  0.1589  0.3404
31717W        W47334   6.779  13.198  12.580  0.0682 -0.2829  0.1315
31718W        W47335  15.232   7.003   2.598 -0.3821 -0.1655 -0.2471
31719W        W47336   6.323  11.453   1.688  0.0620  0.0275 -0.2853
31720W        W47337   1.796   8.570   4.579 -0.0173  0.0284  0.2569
31721W        W47338  16.630  11.919   2.391 -0.1478 -0.0133 -0.1125
31722W        W47339   3.569  12.776  13.395 -0.1113 -0.2486  0.1018
31723W        W47340   9.856   6.228   0.250 -0.0252 -0.0183 -0.0361
31724W        W47341   7.434   8.481   4.136 -0.3490 -0.0310 -0.0598
31725W        W47342   7.436  17.524  16.115 -0.3351  0.1506  0.0495
31726W        W47343  12.430   0.010  15.828 -0.0857  0.3754 -0.0017
31727W        W47344  18.175  16.985   5.556 -0.0034  0.2004 -0.4443
31728W        W47345   8.727  10.696  11.786  0.0889 -0.2064 -0.5346
31729W        W47346  17.330   9.244  14.369 -0.0218  0.2727 -0.2492
31730W        W47347  15.218   0.876  15.483  0.1555 -0.0425 -0.1672
31731W        W47348  10.197  12.002   2.325 -0.1975  0.0206 -0.0200
31732W        W47349  16.603  11.102  13.602  0.2430  0.1267 -0.0336
31733W        W47350   0.757   6.067   3.014 -0.0136  0.0123  0.0108
31734W        W47351  17.234  11.189   0.815  0.0780  0.2340 -0.1226
31735W        W47352   4.532  11.826  13.513 -0.1039  0.2308 -0.2503
31736W        W47353  12.108   9.783  13.162 -0.0291 -0.0913  0.2589
31737W        W47354   7.861  14.454   4.371 -0.0114  0.0223 -0.0291
31738W        W47355   4.905   6.169  11.243  0.1541  0.4201  0.2585
31739W        W47356  13.458  16.254   3.215  0.1856 -0.0521 -0.1179
31740W        W47357  10.756  12.877  13.733  0.1474  0.0005 -0.1088
31741W        W47358   5.564   7.305  14.765 -0.0191 -0.1303 -0.0805
31742W        W47359   6.304   3.699  13.742 -0.1207  0.1139  0.2526
31743W        W47360  14.193  11.247  14.985 -0.0860  0.0062  0.0837
31744W        W47361   5.350   5.995   1.605  0.0247  0.1305 -0.0641
31745W        W47362  13.369  10.033   1.504  0.1515  0.1704 -0.0355
31746W        W47363  10.748   8.540  12.189 -0.2855 -0.0182  0.0090
31747W        W47364  10.142  14.197   0.818 -0.0961  0.0944 -0.0596
31748W        W47365   2.937   9.670  12.718  0.1951 -0.1629  0.0930
31749W        W47366   9.222   3.445   1.113  0.0823 -0.0738 -0.0907
31750W        W47367  11.839   8.406  12.407 -0.0575  0.0917 -0.1156
31751W        W47368   7.816  15.151  11.461 -0.1320  0.1369  0.1338
31752W        W47369   2.436   4.760  11.553  0.1792  0.0890  0.0774
31753W        W47370  14.540   9.859   2.594  0.0992 -0.1106  0.0880
31754W        W47371  14.303  16.962   3.692 -0.3035 -0.0135 -0.1723
31755W        W47372   6.562   6.052  12.025  0.0071  0.4644  0.1332
31756W        W47373   2.034  15.867  12.106 -0.0964  0.1231 -0.0521
31757W        W47374   5.414  13.088   2.364  0.1104  0.1589  0.1666
31758W        W47375   4.850  15.509   5.061  0.1222 -0.2833  0.1290
31759W        W47376  16.543   4.233   3.398  0.0352 -0.2974  0.0478
31760W        W47377   3.200  10.427  14.593 -0.0503 -0.3029 -0.0460
31761W        W47378   9.655  12.848  14.517 -0.3024 -0.0490  0.3395
31762W        W47379  13.013   7.879  14.937 -0.0299  0.0780 -0.0968
31763W        W47380   2.101  14.119   5.448  0.0620  0.0297 -0.0711
31764W        W47381  11.334  14.323   5.052 -0.2696  0.1193  0.1269
31765W        W47382   3.034  16.667  13.469 -0.1947  0.0873 -0.0210
31766W        W47383   9.709   7.662   2.488  0.0864 -0.1462 -0.2096
31767W        W47384   8.907  13.380   2.415 -0.2867  0.2688 -0.1948
31768W        W47385  13.070  12.630  11.736  0.1816 -0.0277 -0.1122
31769W        W47386   3.077  14.790  15.150 -0.0766  0.0031 -0.0733
31770W        W47387   3.358  18.378  13.950  0.2160  0.2141  0.1646
31771W        W47388   3.898  16.070   3.284  0.0034 -0.2461  0.2526
31772W        W47389  12.307   4.841   4.055  0.3548 -0.1688 -0.0414
31773W        W47390   0.585  10.736   4.048 -0.2262  0.1942  0.1966
31774W        W47391   4.019   8.279  13.152 -0.3322 -0.3681  0.0401
31775W        W47392  16.670  14.102   3.512 -0.1608 -0.1623 -0.1895
31776W        W47393   9.453  11.404   1.115 -0.0762 -0.1152 -0.2748
31777W        W47394  17.896  12.768   0.055 -0.0986  0.2083 -0.2194
31778W        W47395   0.246  11.747   0.839  0.2610 -0.2147  0.1232
31779W        W47396  18.162  10.424  15.550  0.3442  0.3669 -0.2371
31780W        W47397  13.936  17.129   3.953  0.1225 -0.0526 -0.1973
31781W        W47398   9.274   4.044   2.680  0.2110  0.2556  0.1167
31782W        W47399   5.946   5.278  11.051  0.0434  0.3089 -0.1290
31783W        W47400   6.262   4.446  11.120 -0.0266 -0.1604 -0.2745
31784W        W47401  14.622  10.548  15.667 -0.0950  0.1032  0.1497
31785W        W47402   0.324  14.131  13.486  0.0181  0.5897 -0.2142
31786W        W47403   9.141   8.181   1.475  0.0795 -0.0246  0.1949
31787W        W47404  14.566   6.388  15.054  0.1314  0.0844  0.1167
31788W        W47405   7.398  12.862  13.157  0.0173  0.0834  0.1527
31789W        W47406  10.060  17.504   4.057  0.0069  0.2132  0.1041
31790W        W47407   5.578   6.093   4.617 -0.0430 -0.1613  0.3007
31791W        W47408   7.391   8.121  16.124 -0.0433  0.0516  0.3545
31792W        W47409   6.010  14.562   3.276 -0.2010 -0.1688  0.1277
31793W        W47410   5.020   2.997  12.384 -0.0730  0.0646  0.0865
31794W        W47411   6.055   2.231  15.419  0.0942  0.0795 -0.0336
31795W        W47412   2.468   6.711  11.971 -0.1839  0.1187 -0.0969
31796W        W47413   7.603  17.601   2.633 -0.0586 -0.0495  0.1954
31797W        W47414   7.505   6.572   1.520 -0.0755 -0.1604 -0.2019
31798W        W47415  10.402  15.508   4.142 -0.0707 -0.2292  0.0723
31799W        W47416   2.632  15.178  15.397  0.2586 -0.2094  0.4261
31800W        W47417   0.911  12.113  15.317 -0.4923  0.4086  0.1484
31801W        W47418   8.009   6.921   1.799  0.2650  0.0663 -0.4160
31802W        W47419  13.012   3.149  11.002  0.1569  0.1214  0.3541
31803W        W47420   1.114  10.094   1.970 -0.0309  0.0026 -0.4034
31804W        W47421  16.340   5.345   2.152  0.2117  0.0672  0.0370
31805W        W47422   6.075   9.670   0.513 -0.0152 -0.1949  0.1106
31806W        W47423   1.902  13.743  14.544 -0.1992  0.0350  0.1156
31807W        W47424   4.237  16.537  12.954 -0.0586 -0.0530 -0.3870
31808W        W47425  15.771   4.403   4.629  0.0959  0.0703  0.3428
31809W        W47426  17.444   3.329  12.975  0.3065  0.0727 -0.0645
31810W        W47427   7.036  14.022   5.092 -0.1401 -0.2210 -0.1964
31811W        W47428  18.350   5.776  16.095  0.0679  0.0883  0.3477
31812W        W47429   2.002   1.482  14.773  0.4198  0.0641 -0.0677
31813W        W47430   1.656   2.890   2.409 -0.1118  0.2124  0.3331
31814W        W47431   4.103  16.474   2.368 -0.0455  0.0488  0.4062
31815W        W47432   7.435   9.785   4.916 -0.0628 -0.2916  0.3497
31816W        W47433  14.808  18.241   2.039 -0.1737 -0.0142  0.0415
31817W        W47434   8.350   3.070   2.388  0.2580 -0.3943  0.0352
31818W        W47435  10.937  13.792  13.089  0.0521  0.0444  0.2563
31819W        W47436  10.908  11.783   1.413 -0.4647  0.0640 -0.0540
31820W        W47437  16.867  12.963  12.924 -0.0794  0.0737  0.1970
31821W        W47438   8.628  13.897  14.991  0.0854  0.2388 -0.0502
31822W        W47439   5.452   9.910   0.460 -0.0381  0.1106  0.1041
31823W        W47440  13.755  17.062   3.500 -0.2349  0.1986 -0.0701
31824W        W47441  17.308   9.732  14.615  0.4982 -0.0410 -0.2848
31825W        W47442   3.671   9.139   1.529 -0.0106  0.0958 -0.2900
31826W        W47443   1.676  11.662   1.449  0.0957  0.0588 -0.0963
31827W        W47444   3.719  15.560  14.198 -0.3179  0.0959  0.3183
31828W        W47445   0.391   3.294   1.546 -0.1050 -0.1886  0.1669
31829W        W47446   5.382  10.125   4.195  0.2421  0.0761  0.2853
31830W        W47447  13.575  13.063  15.647  0.0688  0.2569 -0.0944
31831W        W47448   8.991  16.595  15.680 -0.1354  0.2307 -0.1261
31832W        W47449  17.104  11.187  12.718 -0.0961 -0.4042  0.1926
31833W        W47450   4.918  16.251  14.244 -0.1181 -0.3679  0.3174
31834W        W47451   1.457  11.964  11.410  0.0751  0.0733 -0.0080
31835W        W47452   9.542   4.467   4.133  0.0077  0.2858  0.1293
31836W        W47453   7.376  10.054  12.222 -0.4523 -0.1146  0.1621
31837W        W47454   4.933   0.226  12.922  0.0006  0.1641 -0.0325
31838W        W47455  17.196  17.959   0.519 -0.1922  0.0061 -0.2116
31839W        W47456  17.379   4.879  14.455 -0.3325 -0.0486  0.1759
31840W        W47457  12.440   3.876   3.024 -0.4516  0.2067  0.0798
31841W        W47458  15.363  14.190   6.274 -0.0926  0.0782  0.1245
31842W        W47459  13.756   8.438   5.663 -0.0275 -0.0055 -0.1669
31843W        W47460  10.691   0.209  13.563  0.5539  0.1103  0.3041
31844W        W47461   7.016  17.365  12.234  0.1953  0.0058  0.2258
31845W        W47462  18.388   4.286  11.600 -0.1308  0.0715  0.0863
31846W        W47463  17.173   1.768  13.073  0.1110  0.1613  0.0157
31847W        W47464  11.200  11.200   2.350  0.0234 -0.2020  0.0328
31848W        W47465   4.550   6.786  13.871 -0.2238 -0.1016  0.0889
31849W        W47466   7.269  14.958   0.638 -0.1395 -0.1635 -0.1229
31850W        W47467  10.870  12.669   3.557 -0.0942  0.0438  0.2100
31851W        W47468   6.514  14.361   3.951 -0.2371 -0.1348 -0.0379
31852W        W47469  18.252  12.258  12.066  0.3503 -0.1149 -0.1747
31853W        W47470   8.809  16.699  13.894  0.0255 -0.0003 -0.0620
31854W        W47471  11.988  10.184   3.084  0.0734  0.0048 -0.1910
31855W        W47472  16.629   9.329  14.966  0.0180  0.4859 -0.1388
31856W        W47473  14.879   1.986   2.575  0.1967  0.2939 -0.7245
31857W        W47474   3.828  15.599   4.207  0.0727  0.1051  0.1221
31858W        W47475   4.360  11.419   5.692 -0.3437 -0.0869  0.2927
31859W        W47476   2.149  14.708   1.473  0.0542 -0.1522 -0.2129
31860W        W47477   0.882   6.753   4.955 -0.2974  0.1362 -0.0788
31861W        W47478   7.715   5.385   9.742 -0.2658 -0.0402  0.1178
31862W        W47479   5.547  16.075  13.252  0.0406  0.0193  0.0188
31863W        W47480   0.275  12.924   5.741  0.1726 -0.0926 -0.1627
31864W        W47481   7.246   7.123   0.554  0.0584 -0.1431 -0.2906
31865W        W47482   1.560   2.407   3.001 -0.1769 -0.0823  0.1859
31866W        W47483   8.809   1.960  12.108  0.1323 -0.0290  0.0377
31867W        W47484  13.236  16.449  15.169  0.1112 -0.1295  0.3844
31868W        W47485  17.485  16.924  10.815 -0.2378  0.2107  0.2294
31869W        W47486  17.383   0.372  15.478  0.1251  0.0714 -0.4890
31870W        W47487  14.067  11.378  13.741 -0.4081 -0.0819 -0.4264
31871W        W47488  17.635  16.154   1.053  0.2505 -0.0361 -0.2385
31872W        W47489   6.784  13.565   0.128 -0.1917 -0.0777  0.2429
31873W        W47490   6.190  10.523   0.979  0.2820  0.1277  0.1536
31874W        W47491   8.123   6.220  15.262 -0.1604  0.0888 -0.0445
31875W        W47492   8.802  10.554   2.384  0.0219  0.1189 -0.2103
31876W        W47493  11.780  15.215  14.241  0.0479 -0.1467  0.0395
31877W        W47494  17.672   6.359   3.375 -0.0840  0.0183  0.1200
31878W        W47495  12.894   1.982  15.349  0.0519 -0.0737 -0.1739
31879W        W47496   6.337  13.011  15.584  0.0726 -0.3542 -0.2817
31880W        W47497  16.673   7.663   4.651  0.3295  0.0419  0.1136
31881W        W47498  16.080  12.567   0.745 -0.2305  0.4679  0.1419
31882W        W47499  14.091  16.035  14.226 -0.2561 -0.1800  0.4678
31883W        W47500  13.111  17.569   2.457  0.4378 -0.0417 -0.0157
31884W        W47501   1.774  15.407  14.950  0.4206 -0.1158  0.0413
31885W        W47502  10.685  14.609  11.767 -0.0540 -0.0432  0.0265
31886W        W47503   8.122  11.436   1.794 -0.1517 -0.0732 -0.3500
31887W        W47504   4.230  10.374   5.010  0.0856 -0.0222  0.2962
31888W        W47505  15.522   8.604   0.302 -0.2352 -0.1659  0.0764
31889W        W47506   4.237  17.579  11.887  0.1955  0.1784 -0.1237
31890W        W47507  10.227   5.181   2.737  0.0946 -0.0128  0.0182
31891W        W47508   6.064  15.358  16.094 -0.0909  0.0646 -0.0691
31892W        W47509  12.389   7.018  10.744 -0.1647  0.1498  0.0032
31893W        W47510   6.785  10.944  13.755  0.0558  0.0626 -0.0879
31894W        W47511   2.777   3.759  15.250  0.1916  0.1762  0.6830
31895W        W47512   3.082   8.024   5.541 -0.1042 -0.0835 -0.2242
31896W        W47513   2.137   5.499  13.309  0.3255 -0.0519 -0.5496
31897W        W47514  11.026   4.524  14.833  0.2500 -0.1344 -0.0696
31898W        W47515  15.217   2.274   2.189  0.1762 -0.1421 -0.1229
31899W        W47516  12.963   4.432  10.424  0.0950  0.0993 -0.0713
31900W        W47517  12.097  10.881  15.115 -0.1874 -0.3743 -0.4419
31901W        W47518   1.930  14.311   1.123 -0.2103  0.1788  0.0167
31902W        W47519  10.099  11.152  11.365 -0.0875 -0.1332  0.1378
31903W        W47520  15.140  13.032   0.056 -0.0415 -0.3873  0.2225
31904W        W47521  11.672  14.652  14.917  0.0858  0.0868 -0.2366
31905W        W47522   0.853   1.237   1.679  0.1599  0.0154  0.1776
31906W        W47523  14.630   8.899  14.015  0.2539 -0.2253  0.1115
31907W        W47524  12.772  16.993  13.227  0.0236 -0.1586 -0.2575
31908W        W47525   4.855   5.921  13.650 -0.0398  0.1885  0.0144
31909W        W47526   7.274  11.577  10.389  0.2622 -0.1335 -0.0876
31910W        W47527  10.152  12.409  10.265  0.0592 -0.0616 -0.3104
31911W        W47528   0.277  14.773  15.577 -0.0843  0.0553 -0.0332
31912W        W47529   2.021   8.687   1.575 -0.0324 -0.3964 -0.1326
31913W        W47530   3.999  12.037   1.772 -0.1368  0.0557 -0.1732
31914W        W47531  10.454  13.019   1.883 -0.0085 -0.4599 -0.2459
31915W        W47532   9.427  16.742   0.277 -0.1239 -0.1334 -0.1082
31916W        W47533  17.710  14.743  15.594  0.2114  0.0605  0.2534
31917W        W47534   7.494   4.903   0.380 -0.1127  0.5038 -0.1684
31918W        W47535  15.606  12.182   5.023  0.0730  0.2743 -0.2376
31919W        W47536   5.442  17.800   6.113 -0.0840  0.1924  0.1926
31920W        W47537   8.063  12.506   5.106  0.2472  0.2126  0.0276
31921W        W47538   4.501  12.325   0.962 -0.1112 -0.3247  0.1138
31922W        W47539   3.693   8.929   3.153 -0.1033 -0.2603 -0.0131
31923W        W47540   2.128   7.676   0.810 -0.1222 -0.2007 -0.2445
31924W        W47541  10.758   1.240   0.637 -0.0870  0.1908  0.0057
31925W        W47542   4.709  10.992   3.539 -0.0826  0.0752 -0.1882
31926W        W47543  17.331   1.163  15.253 -0.0175  0.0873  0.0322
31927W        W47544  16.212  10.247   2.686 -0.1361 -0.0745  0.2715
31928W        W47545   5.014   9.735   4.889  0.1338 -0.2385  0.1285
31929W        W47546   6.269   3.189  14.560  0.3385  0.0669  0.3396
31930W        W47547  12.409   7.493   4.184 -0.1807  0.2850  0.0188
31931W        W47548  11.657   0.995  15.292  0.1719 -0.0245 -0.0166
31932W        W47549  14.874  14.762  14.867 -0.3232 -0.0148 -0.1529
31933W        W47550  16.464   4.203   2.405 -0.0803  0.0014 -0.0299
31934W        W47551   6.149   8.664   3.740  0.0689 -0.0351  0.0687
31935W        W47552   6.169   6.633  14.324 -0.1333 -0.0051  0.3326
31936W        W47553  16.112   4.474   3.457  0.2038 -0.2729 -0.1493
31937W        W47554  11.866   4.012  11.486 -0.1512 -0.0784  0.2168
31938W        W47555   5.876   1.888   2.067 -0.4253 -0.0290  0.1560
31939W        W47556   2.492   2.714  12.601  0.0853 -0.0370  0.1006
31940W        W47557   2.589   4.724   0.552  0.2380 -0.1083 -0.1522
31941W        W47558   0.519   7.650  11.804  0.1399 -0.1960  0.3258
31942W        W47559   5.030   2.824   4.640  0.1237  0.2156  0.3483
31943W        W47560   1.596   2.591  13.489 -0.0718 -0.2808 -0.0708
31944W        W47561   6.681   1.287   4.118 -0.2167 -0.1514 -0.2705
31945W        W47562   2.646   2.744  12.113 -0.1439 -0.2038  0.0316
31946W        W47563  12.280  16.582   4.501 -0.1685  0.1539  0.0138
31947W        W47564   2.176   3.900   0.469 -0.0345 -0.0050  0.1713
31948W        W47565  15.337  16.230   4.876 -0.4239 -0.2640 -0.1970
31949W        W47566   2.907  12.066   1.160  0.2427 -0.2639 -0.0388
31950W        W47567   0.022   1.184   0.947 -0.1972  0.3547  0.0723
31951W        W47568   9.681  17.477  13.505  0.2106  0.4688 -0.1675
31952W        W47569   2.781   5.465  14.145  0.0932 -0.0184  0.0821
31953W        W47570   6.063  13.031   2.384 -0.2479  0.1797  0.1665
31954W        W47571  16.792   5.278   0.733  0.2250  0.0840  0.1841
31955W        W47572  11.484  10.866   4.778  0.0280 -0.1801 -0.2452
31956W        W47573  13.482  16.843   4.862  0.4413  0.0863  0.0988
31957W        W47574  10.492   5.241  11.274 -0.0220 -0.1220  0.0908
31958W        W47575  16.164   3.282  11.952 -0.2725 -0.0496 -0.2780
31959W        W47576  15.603   2.215  11.829  0.1470 -0.0528 -0.4436
31960W        W47577   3.832  11.315  12.903  0.2155  0.2439 -0.2486
31961W        W47578   0.170  12.514  12.275  0.0444  0.1000 -0.0693
31962W        W47579  17.194  11.407   4.641  0.0820  0.4930 -0.0750
31963W        W47580   7.102   3.269   3.531 -0.2008  0.1861  0.2525
31964W        W47581   6.153   1.576  11.773 -0.1196  0.2590 -0.4247
31965W        W47582   8.385   2.109  14.099  0.0735 -0.0091 -0.1471
31966W        W47583   3.288  17.242   4.380  0.6058 -0.2101 -0.1278
31967W        W47584   8.476  16.642  12.165  0.2512  0.0598  0.0100
31968W        W47585  16.426  15.334  15.398 -0.0600  0.1256  0.0021
31969W        W47586  16.693  10.486  12.526  0.1227 -0.1963 -0.0021
31970W        W47587   2.159   6.923   1.820 -0.4354  0.0197  0.1732
31971W        W47588   6.823   2.126  12.273  0.2092  0.1711  0.1283
31972W        W47589   0.990  13.185   1.964  0.4641 -0.3339  0.1301
31973W        W47590  13.331  15.554  14.865  0.1285 -0.1420  0.0849
31974W        W47591  17.511   9.425   0.773  0.0390  0.2471  0.0856
31975W        W47592  10.190   1.287  14.654 -0.0839  0.3496  0.0104
31976W        W47593  16.830   1.890  14.486 -0.0100 -0.1598 -0.3021
31977W        W47594  13.183  18.328   1.324 -0.1703  0.0310  0.1085
31978W        W47595  10.921  16.843  13.017  0.2561  0.1790  0.0872
31979W        W47596  14.555  11.737   4.042 -0.1388  0.0660 -0.1310
31980W        W47597  17.295   4.977   3.756  0.1883  0.3092  0.1483
31981W        W47598  12.597   9.218   1.140  0.0375 -0.1323 -0.0831
31982W        W47599   5.706  15.846  12.035  0.1659 -0.0400 -0.0412
31983W        W47600  10.918  11.091   6.257 -0.0634  0.1959 -0.1019
31984W        W47601  11.484   1.790   4.481 -0.2126  0.1664  0.1915
31985W        W47602   9.528  12.082  13.297  0.1687 -0.0152  0.3374
31986W        W47603   4.435   7.341  13.032  0.1017 -0.0032  0.1747
31987W        W47604  13.042   8.487   4.797 -0.0919 -0.2315 -0.0726
31988W        W47605  18.050   7.603  15.628  0.1177  0.1461 -0.4687
31989W        W47606   8.386  12.707   6.042  0.0511  0.1916 -0.6085
31990W        W47607  17.148   7.403  12.424  0.0182 -0.0850 -0.0271
31991W        W47608   9.001   4.196   0.155 -0.0234  0.1826  0.0336
31992W        W47609   5.103   6.764  11.784  0.0704 -0.2783 -0.1754
31993W        W47610  14.833  11.278  13.516  0.0126  0.1044  0.0796
31994W        W47611   9.003  11.339   3.585  0.0824  0.2976  0.2587
31995W        W47612  17.295   8.393   5.285 -0.0102  0.2029  0.5646
31996W        W47613   7.981  17.483   3.372  0.1647  0.1333 -0.0982
31997W        W47614  11.813   9.406  12.939 -0.1460 -0.0754  0.0033
31998W        W47615   7.879  15.895  13.456 -0.0935  0.1953 -0.4129
31999W        W47616   1.064   2.905   5.865  0.2011 -0.0653  0.1712
32000W        W47617  10.712  11.994   2.673 -0.1691  0.1654 -0.3304
32001W        W47618   3.471  14.014  13.404  0.1579  0.3601  0.1007
32002W        W47619  10.484  14.873  15.181  0.0615 -0.0115  0.1234
32003W        W47620  10.953  16.748   5.226  0.0597  0.0275  0.3649
32004W        W47621  11.501   6.136  15.486  0.1700  0.3271  0.0498
32005W        W47622   3.358   4.612  14.161 -0.1546 -0.1177  0.2904
32006W        W47623   1.372   3.076   4.247 -0.1097  0.2501  0.1687
32007W        W47624   3.443  10.603   2.127 -0.2420  0.1262  0.3061
32008W        W47625  16.661   8.344   0.657  0.0531 -0.1533 -0.0496
32009W        W47626  16.112   1.503  12.365  0.1415 -0.1793 -0.1535
32010W        W47627  13.456   0.366  16.119 -0.0006 -0.1751 -0.0308
32011W        W47628   3.945   9.642   1.660 -0.0847  0.3505  0.1124
32012W        W47629  10.145   7.839  12.875 -0.0913  0.1042 -0.1504
32013W        W47630  11.109  12.189  12.371  0.2099  0.0656 -0.2572
32014W        W47631  17.154   6.797   2.061  0.2748 -0.0672  0.0817
32015W        W47632  17.799   1.292  15.379  0.0505  0.0376 -0.1576
32016W        W47633  10.875   8.782  11.449 -0.0433 -0.0862 -0.0385
32017W        W47634   4.708   6.138  15.639 -0.0760  0.0318 -0.0522
32018W        W47635   4.753   1.286   0.924  0.1243  0.2891  0.1129
32019W        W47636  13.942   7.118   3.219  0.1163  0.2211 -0.1984
32020W        W47637   5.947   9.870   2.032  0.3066 -0.3562 -0.1897
32021W        W47638   6.978   5.475  11.615 -0.1906 -0.0081 -0.1272
32022W        W47639  13.002   3.903   5.218 -0.2377 -0.1090  0.0855
32023W        W47640  17.220  14.972  15.732 -0.2037  0.3291 -0.0569
32024W        W47641   8.947   4.206  11.077 -0.3150 -0.0992  0.0660
32025W        W47642  14.225   2.570   1.339  0.1474  0.0403 -0.0165
32026W        W47643   8.966  11.626  13.823  0.2105 -0.2055 -0.0761
32027W        W47644   3.838   4.169   1.728 -0.0538 -0.2223 -0.3085
32028W        W47645  14.047   6.039   0.557 -0.0634  0.2142 -0.3338
32029W        W47646   0.536  11.450   4.366  0.1466  0.0449  0.0857
32030W        W47647  12.909  10.321   4.501 -0.2488  0.3457 -0.0037
32031W        W47648   1.323  17.558   5.395 -0.1074  0.0534  0.2054
32032W        W47649   5.054   6.458   1.634 -0.3193 -0.2062  0.0378
32033W        W47650   5.083  17.204  12.997  0.0475 -0.0206  0.2709
32034W        W47651  18.324   6.324  12.701  0.0066 -0.0227 -0.1163
32035W        W47652  16.836   8.232   2.673  0.0852 -0.0213  0.0622
32036W        W47653  11.387  13.446  11.326  0.3594 -0.1632 -0.1907
32037W        W47654  16.441   7.407   2.123 -0.0462 -0.3662 -0.0853
32038W        W47655  10.630   6.377   3.816 -0.1509 -0.2743  0.0005
32039W        W47656   4.698  13.277   0.183 -0.0216 -0.0621  0.0622
32040W        W47657  12.955  13.101  16.016 -0.0745 -0.0592 -0.0573
32041W        W47658  13.258   0.316  15.664  0.3926 -0.0792 -0.1997
32042W        W47659  16.810   4.390   4.964  0.1558 -0.1913 -0.1035
32043W        W47660   4.211   6.215  15.724  0.0817  0.3631 -0.0937
32044W        W47661   9.300  10.736  15.404  0.0681  0.3135  0.0401
32045W        W47662  16.269   2.140   2.607 -0.1715 -0.1892 -0.5306
32046W        W47663   3.336   7.716   1.841  0.1221 -0.0723 -0.1173
32047W        W47664  11.887   5.598   2.433  0.2174 -0.1472  0.1399
32048W        W47665  13.094  12.589   2.494  0.1478 -0.0485  0.1094
32049W        W47666  14.475  15.889   4.346  0.2086  0.1060  0.0023
32050W        W47667   8.529  15.749   3.647  0.0375  0.0134  0.0616
32051W        W47668   1.138   8.665   2.277  0.4151 -0.0332  0.0738
32052W        W47669   2.849  11.613   3.492  0.1427 -0.2694 -0.0395
32053W        W47670   0.257   6.955   1.307 -0.0537  0.0948 -0.0050
32054W        W47671  14.676  10.586   1.171  0.1876 -0.1874  0.0240
32055W        W47672  18.201   9.044  12.784  0.0324 -0.0957  0.0903
32056W        W47673  17.863  11.184  15.297 -0.0381  0.3897 -0.2371
32057W        W47674   7.620   7.112  16.029 -0.1761 -0.1401  0.2415
32058W        W47675   9.228   7.740   9.978 -0.2014 -0.1720 -0.2906
32059W        W47676  10.843   4.096  14.730 -0.2883 -0.1143  0.1214
32060W        W47677   6.262   6.815  12.800  0.0503  0.3583  0.0686
32061W        W47678   3.977   7.310  12.258 -0.1137  0.1258  0.3696
32062W        W47679   5.392  12.151   5.348 -0.2222 -0.2048  0.0486
32063W        W47680   4.235  17.460  14.329 -0.1376  0.0152 -0.2405
32064W        W47681   9.354   1.516  13.769 -0.2516  0.0010  0.1234
32065W        W47682  12.073  14.994  13.856 -0.2993 -0.1130 -0.0206
32066W        W47683   8.292  10.935  11.720  0.1024  0.4068  0.1207
32067W        W47684   0.805  17.321   1.171 -0.3707  0.4775 -0.1458
32068W        W47685  13.361   0.766  13.453 -0.2963 -0.0159 -0.0527
32069W        W47686   3.588   0.636   1.795  0.1113 -0.2930  0.0079
32070W        W47687  12.371   9.342  10.845  0.0116  0.4191 -0.0027
32071W        W47688   3.370   7.636  12.780  0.0942  0.2579  0.1378
32072W        W47689   6.379   6.768  10.193  0.0765 -0.0969  0.1372
32073W        W47690   6.595  15.621   5.103  0.0599 -0.1299 -0.3043
32074W        W47691   7.504   9.341   5.398 -0.0134  0.0567  0.2036
32075W        W47692   9.205   3.530  11.271  0.1500  0.2798  0.8360
32076W        W47693  13.869   6.218  13.803  0.2218 -0.0518 -0.1204
32077W        W47694   6.652   3.149   4.669  0.1667 -0.1882 -0.1279
32078W        W47695  11.807  10.404  14.332  0.1293 -0.2374 -0.1661
32079W        W47696  12.394  14.866   4.561 -0.2587 -0.0647  0.1412
32080W        W47697   7.826   3.300  16.117  0.0768 -0.1382  0.2301
32081W        W47698   6.388  13.218   4.967 -0.2650  0.1900 -0.3361
32082W        W47699   4.345  13.028   1.660  0.0049  0.3132  0.3351
32083W        W47700   5.373   7.079   3.339 -0.1753  0.0833 -0.0562
32084W        W47701   8.292  13.978   2.774 -0.0187  0.3167 -0.0971
32085W        W47702  12.520  12.756  10.961 -0.1813  0.0947 -0.0512
32086W        W47703   5.365  12.732  12.619 -0.4034  0.1383  0.3771
32087W        W47704   4.789  14.892  13.026  0.1345 -0.2293  0.0379
32088W        W47705   2.187   6.279  11.068 -0.2447 -0.1986  0.3149
32089W        W47706   8.592   0.323  13.254 -0.1149  0.0477 -0.2605
32090W        W47707   2.621   2.208  15.284 -0.4871 -0.0446  0.0078
32091W        W47708   3.002   6.438   2.303 -0.1481 -0.1176  0.0142
32092W        W47709   7.462  12.419  12.881  0.0259 -0.2101 -0.0178
32093W        W47710  13.764   3.583   0.013  0.0350  0.1582  0.0270
32094W        W47711  16.300   1.927  12.628 -0.2288  0.0872 -0.0215
32095W        W47712   9.070  12.159  15.241  0.0781 -0.0612 -0.0514
32096W        W47713   1.907   7.712   1.231  0.1168  0.1335  0.2651
32097W        W47714  17.793  12.931   4.832  0.1153 -0.0476  0.0909
32098W        W47715  17.038  14.153   5.251  0.1060 -0.3258  0.0546
32099W        W47716  10.452   4.773  11.957 -0.1529  0.0732 -0.1475
32100W        W47717   6.632   0.146   1.901 -0.1149  0.0592  0.1236
32101W        W47718  10.802   6.995  10.270 -0.1804 -0.2023 -0.1706
32102W        W47719  17.964   1.496   1.284  0.0133  0.2836  0.1232
32103W        W47720   3.441   7.933  13.391 -0.3098 -0.2465  0.1888
32104W        W47721   6.047  11.526   3.657  0.3685  0.0258 -0.0166
32105W        W47722   2.940  15.453   1.955 -0.0321  0.2937 -0.0982
32106W        W47723   8.189  14.512  12.962 -0.2196  0.1567 -0.0188
32107W        W47724  13.420   2.699   0.044 -0.3246  0.1961 -0.2492
32108W        W47725  17.837   4.899   4.276  0.0326 -0.2328 -0.1133
32109W        W47726   2.760  17.053   4.246  0.2425  0.0996  0.1058
32110W        W47727   3.283   1.919   1.090 -0.0647  0.1632 -0.1057
32111W        W47728   2.376   8.421   9.859  0.0864  0.2561  0.2630
32112W        W47729   5.644   3.831  13.292 -0.4427  0.0148 -0.1589
32113W        W47730   5.954   9.575   4.982 -0.3407 -0.0130 -0.2159
32114W        W47731  17.703  12.872   4.270  0.2745 -0.0767  0.1638
32115W        W47732   8.441   3.119   3.399 -0.0044  0.2636  0.1291
32116W        W47733  12.513   4.183  12.256 -0.1463  0.1670 -0.0027
32117W        W47734   2.734   3.138  12.526 -0.0675  0.1965 -0.3027
32118W        W47735   8.850   4.325  10.245  0.1970 -0.0156  0.2792
32119W        W47736  15.468   5.483   5.117  0.2746 -0.2153 -0.1174
32120W        W47737   1.390   4.772  14.158  0.0826 -0.0800  0.1360
32121W        W47738  14.078   5.975   2.903 -0.0044  0.0637 -0.0458
32122W        W47739   1.545  15.940   0.826 -0.0188 -0.2034 -0.0266
32123W        W47740   5.096   9.715  12.533  0.1254  0.1984 -0.0436
32124W        W47741   0.207  14.640   1.596 -0.1012 -0.0315  0.1717
32125W        W47742   4.481   4.628  13.055 -0.1711  0.0967  0.2041
32126W        W47743  15.896  11.823  13.879 -0.1816 -0.0893 -0.0208
32127W        W47744   4.934  17.659   1.020 -0.0867  0.1731  0.2079
32128W        W47745  10.766   3.203   3.507 -0.4063 -0.3871  0.2397
32129W        W47746  12.773   8.733  15.853 -0.2688  0.0150  0.3694
32130W        W47747  10.648   9.229  11.683 -0.0015 -0.0992  0.1256
32131W        W47748   4.953   1.179   6.110  0.3152  0.2359 -0.1401
32132W        W47749  14.181   5.472  12.171 -0.0448  0.1160  0.0528
32133W        W47750   4.878   7.720   4.973  0.0245  0.0038  0.1054
32134W        W47751  12.093   3.039   1.659 -0.0724 -0.0690  0.1390
32135W        W47752   8.798  15.421  15.251 -0.1117 -0.0565  0.3678
32136W        W47753  12.669  17.836   3.046 -0.0955 -0.2278  0.2339
32137W        W47754   1.451   6.635   1.250  0.0920  0.0339  0.0109
32138W        W47755   8.341   0.653  11.849  0.0164 -0.0860  0.0603
32139W        W47756   2.463   2.848   0.834  0.0093  0.0054  0.2518
32140W        W47757   3.774  15.796   5.741  0.4021 -0.0558 -0.0100
32141W        W47758  10.575  17.113  15.326 -0.1245 -0.1100  0.2585
32142W        W47759   4.475  15.902  12.901 -0.1557  0.0423 -0.1264
32143W        W47760   6.057  15.105  13.991 -0.0680  0.0091  0.3186
32144W        W47761  18.117  16.296   2.310  0.1442 -0.1291 -0.0081
32145W        W47762  13.501  12.600   3.059 -0.0761 -0.0318  0.1583
32146W        W47763   3.462   8.608   4.007 -0.0945  0.2322  0.1308
32147W        W47764   5.964  18.181  13.894 -0.1999  0.0679 -0.1563
32148W        W47765   1.477  15.350   0.807 -0.0829 -0.1185 -0.1853
32149W        W47766   1.551   5.817   1.051  0.2496  0.1595 -0.2436
32150W        W47767  10.147   9.678   0.226 -0.3521 -0.0879 -0.3411
32151W        W47768   0.617  11.364  13.590  0.0088 -0.3080  0.0460
32152W        W47769  16.960  15.125  14.153 -0.1999  0.0164  0.0876
32153W        W47770   5.170   6.080   2.516  0.3948  0.0713 -0.2035
32154W        W47771  15.170  10.255   2.794 -0.0622 -0.1734  0.1442
32155W        W47772   8.929   6.888   5.352  0.5667  0.0300 -0.2045
32156W        W47773  11.380   4.378  15.689  0.1286 -0.1219  0.0095
32157W        W47774  12.370  14.752  12.185  0.0561  0.3833  0.1595
32158W        W47775  17.514   0.246   1.253 -0.1068 -0.0515  0.1593
32159W        W47776   0.054  17.209  13.787  0.2080 -0.4330 -0.0201
32160W        W47777   4.591   0.574  11.887  0.0608 -0.2164 -0.0268
32161W        W47778  17.728   2.553   2.861  0.1140  0.0244  0.1858
32162W        W47779   4.988   4.633  14.798 -0.0494  0.2149 -0.2343
32163W        W47780  14.605   2.303  12.766 -0.3102 -0.2148  0.1006
32164W        W47781  10.158   7.119  15.876  0.1718  0.1640 -0.0202
32165W        W47782   5.793  11.256   6.109 -0.1562  0.0456  0.0055
32166W        W47783   1.284  16.514  11.567  0.2024 -0.0583 -0.0513
32167W        W47784  11.272   5.473   3.658 -0.3528  0.2209  0.1655
32168W        W47785  13.996   2.901   3.045 -0.0688  0.2924  0.0460
32169W        W47786  14.689  12.097   3.739 -0.0603 -0.1733 -0.0643
32170W        W47787   0.444  17.289  15.999  0.4432 -0.2371 -0.0018
32171W        W47788  15.016   6.755   4.857 -0.0116 -0.2487  0.0326
32172W        W47789  15.557   0.020  14.278  0.0198 -0.2897 -0.0877
32173W        W47790   2.374   0.528   1.103 -0.3182  0.0825  0.2404
32174W        W47791   8.538   6.266  10.942 -0.2773 -0.0982  0.2334
32175W        W47792   1.297   6.955  11.486  0.1567  0.0688 -0.1184
32176W        W47793  17.592  15.313  13.315 -0.0166  0.1040 -0.0895
32177W        W47794  15.354  12.486   1.528 -0.2321 -0.0758 -0.0121
32178W        W47795  17.765  12.337  12.199 -0.2627  0.1856  0.0212
32179W        W47796   4.568   3.833  13.520 -0.2324  0.0464  0.0546
32180W        W47797  10.528   3.814  15.886 -0.2092 -0.2837  0.1061
32181W        W47798   6.609   1.273   1.104 -0.1073  0.2285  0.2924
32182W        W47799   0.285   9.184  11.596  0.4534  0.1368 -0.1403
32183W        W47800  16.700  15.818   3.599  0.0907 -0.0645 -0.2623
32184W        W47801  15.269  17.481   1.438  0.1963  0.1780 -0.0093
32185W        W47802   6.620  12.694   3.715  0.0756  0.2422 -0.0772
32186W        W47803  17.021   8.875  14.930 -0.0368 -0.0847  0.0408
32187W        W47804   3.214   2.047  13.974 -0.5063 -0.0173  0.0724
32188W        W47805  17.625  14.768   2.040 -0.0152  0.2320  0.0978
32189W        W47806  12.332   9.003   1.607  0.3718  0.0887 -0.4518
32190W        W47807  13.351  10.944  16.092  0.2913  0.0203 -0.2177
32191W        W47808  11.231   2.522  12.899  0.0223 -0.0866 -0.0752
32192W        W47809  15.890   9.697   4.180  0.1241  0.0520 -0.0819
32193W        W47810   0.148   7.908   5.385  0.0856  0.0995  0.2923
32194W        W47811   4.840   2.907  14.308 -0.0562 -0.1525  0.3628
32195W        W47812  15.954  16.992   1.080 -0.1753 -0.0427  0.2231
32196W        W47813   6.437   8.669   2.554 -0.1373  0.1942  0.1068
32197W        W47814   9.662  12.868   2.646 -0.0728 -0.3378 -0.0211
32198W        W47815  13.130   2.831   1.415  0.0421 -0.0346 -0.0465
32199W        W47816   1.519  10.472  14.253 -0.3748  0.0146 -0.0134
32200W        W47817   0.609  10.007   3.340 -0.3345 -0.0775  0.2658
32201W        W47818  13.024  12.259   2.137 -0.4304 -0.0287  0.1070
32202W        W47819  14.608  11.992   1.748 -0.1825 -0.1109 -0.0936
32203W        W47820  15.898   2.558  11.461  0.1583 -0.2463 -0.0575
32204W        W47821  10.216   4.441  11.087 -0.2129 -0.5858 -0.3018
32205W        W47822   7.294  12.560   4.458 -0.0455 -0.0289  0.0808
32206W        W47823   3.610  10.834   3.176 -0.3354 -0.0504 -0.1550
32207W        W47824  18.315   2.863  12.286 -0.0915  0.0052  0.1502
32208W        W47825   6.689   0.140   4.899 -0.5945 -0.0612 -0.1885
32209W        W47826   1.794   6.848  13.366 -0.0728  0.1113  0.1316
32210W        W47827   4.293  12.209  13.880  0.4795  0.5237  0.2538
32211W        W47828  13.014  12.948  11.089 -0.2230 -0.3690 -0.1064
32212W        W47829   2.262   3.805  12.984 -0.1165 -0.5608  0.0795
32213W        W47830   3.823  10.416  10.465  0.2737  0.2405  0.0248
32214W        W47831   8.761   4.611   4.329 -0.3298  0.2504  0.3298
32215W        W47832   4.579   9.678  11.995 -0.0053  0.3274  0.0805
32216W        W47833   6.814   8.662  13.032 -0.1469 -0.1636 -0.2442
32217W        W47834  15.747  15.341   2.303  0.3575 -0.0361 -0.0648
32218W        W47835  14.499  13.383  15.415 -0.1228  0.0255 -0.4357
32219W        W47836  10.616  16.185   0.916  0.0997 -0.0903 -0.4410
32220W        W47837   5.094  11.870   3.694 -0.2917  0.2433 -0.0827
32221W        W47838  13.959  17.676  12.296 -0.1974 -0.2884  0.0306
32222W        W47839   7.698  13.220   2.759 -0.2239 -0.0230  0.1914
32223W        W47840   5.328   9.613  11.478  0.1127  0.2407 -0.0633
32224W        W47841  17.488  12.695  12.411 -0.0297  0.2131  0.0789
32225W        W47842  13.734  14.025  13.623 -0.0071 -0.1597  0.1975
32226W        W47843   1.290  14.635   4.925  0.0839  0.2158 -0.1721
32227W        W47844   7.567   8.125   4.514  0.0119  0.1048 -0.1019
32228W        W47845   7.907   2.025  12.989 -0.2840  0.1473  0.0794
32229W        W47846  11.624  11.483   2.036  0.3184  0.0701 -0.2155
32230W        W47847   0.435  10.226  14.639  0.2983  0.1555  0.1199
32231W        W47848  17.663  16.955  15.591  0.0468 -0.0146 -0.0993
32232W        W47849   8.093   6.453  14.102  0.1893 -0.1212 -0.0470
32233W        W47850  15.011  16.105  13.677  0.0228 -0.1628  0.0362
32234W        W47851   1.126   9.503   5.005 -0.4677  0.0420  0.2249
32235W        W47852   7.726  18.333   4.067 -0.2911 -0.0147  0.1092
32236W        W47853   7.281   0.088   4.983  0.0053  0.0343 -0.2777
32237W        W47854   1.582  12.350   2.637  0.3440 -0.1204 -0.1793
32238W        W47855   1.961   9.514  11.944  0.3686  0.1091  0.1062
32239W        W47856  16.454  15.588   0.510  0.0370 -0.0380  0.0780
32240W        W47857   7.506  12.005   5.128  0.0362  0.1347  0.1479
32241W        W47858  17.813   6.340  14.999 -0.0776  0.2669 -0.0179
32242W        W47859   1.666   4.854   2.278 -0.0883 -0.0140  0.0529
32243W        W47860   5.407   0.925  11.685  0.0418 -0.0883  0.1465
32244W        W47861  14.463   3.417   1.182  0.0202  0.1408 -0.1433
32245W        W47862   3.544   7.603  10.809 -0.1870 -0.2210  0.0291
32246W        W47863   3.595  10.261  14.796  0.1600  0.1737 -0.0339
32247W        W47864   5.621   6.780   0.241 -0.1965  0.0353 -0.2678
32248W        W47865  18.384   1.704  14.296  0.0914  0.0844  0.1682
32249W        W47866   4.511   0.074  14.878  0.3081  0.3787 -0.0832
32250W        W47867   6.956  12.351  13.933 -0.0012 -0.2578 -0.2253
32251W        W47868   7.436   4.768  14.434  0.2224  0.1874 -0.0954
32252W        W47869  12.049   5.949   0.474 -0.4607  0.0878 -0.0425
32253W        W47870   8.078  13.329  14.267 -0.1080 -0.0557 -0.1214
32254W        W47871   3.226   6.930   2.181  0.0833  0.2439 -0.0427
32255W        W47872  18.424  17.097  15.190 -0.3526 -0.0749  0.1579
32256W        W47873   6.878   3.295  12.913 -0.0029 -0.0550 -0.2152
32257W        W47874   8.629   4.655   0.301 -0.0847  0.2840  0.1475
32258W        W47875  13.809   9.388  13.604  0.2049 -0.1869 -0.0499
32259W        W47876  15.303   3.241   0.859 -0.1470  0.0960 -0.0683
32260W        W47877   7.173  10.537   3.027 -0.1073  0.0396 -0.0755
32261W        W47878  11.320  18.236   4.450 -0.0059  0.1546  0.0189
32262W        W47879  14.915  15.696   3.461  0.0302  0.0325  0.0459
32263W        W47880  12.056  17.544  11.682  0.0475 -0.0179 -0.1152
32264W        W47881   7.224  15.051  15.279 -0.0232 -0.1816  0.0819
32265W        W47882  16.777   9.508   5.719  0.0247 -0.1123 -0.1130
32266W        W47883  10.584   9.606  13.576 -0.2981  0.1782 -0.0341
32267W        W47884  11.390   8.545   3.047  0.0313 -0.2798 -0.4330
32268W        W47885  14.965  11.820  13.841 -0.1451  0.0975 -0.0149
32269W        W47886  14.148  13.423   4.601  0.2776  0.0358 -0.1041
32270W        W47887  12.013  15.810   4.417 -0.0236  0.0666 -0.1751
32271W        W47888   0.949  15.681  12.690 -0.2229 -0.0323 -0.2837
32272W        W47889  17.739  17.194  14.734 -0.1189  0.2764  0.0751
32273W        W47890   3.628  16.035  12.374  0.2215 -0.0190  0.3461
32274W        W47891  12.237  12.234   0.580 -0.2611  0.0241  0.0002
32275W        W47892   7.950  12.551   1.998 -0.0243  0.1761 -0.0694
32276W        W47893   7.013   5.916  13.177 -0.0778  0.0889  0.1096
32277W        W47894   4.501   5.986  10.293 -0.0005  0.1818 -0.1555
32278W        W47895   2.474  14.028  13.630  0.1639  0.3086  0.2783
32279W        W47896  11.911   4.905   1.697  0.1658  0.1064 -0.0712
32280W        W47897  12.049  14.671  15.738 -0.0216 -0.1081 -0.2211
32281W        W47898   2.635   9.292   0.497  0.3645 -0.1966  0.1377
32282W        W47899  18.055   8.257   4.292  0.1801  0.2957 -0.4486
32283W        W47900  17.681  16.603   2.390  0.1850 -0.1251  0.1070
32284W        W47901  11.119  10.671  15.264 -0.2668  0.2769  0.1447
32285W        W47902   3.319   1.054   1.864  0.0907  0.0704 -0.1936
32286W        W47903   4.320  18.253  14.516  0.1169 -0.0023  0.3041
32287W        W47904  13.266   8.425  13.231 -0.2918 -0.0557 -0.2994
32288W        W47905   4.743   5.817  12.018 -0.4104 -0.1904  0.2121
32289W        W47906  16.387   7.589   4.194  0.2964 -0.2555  0.0220
32290W        W47907  16.328   2.323  15.614  0.5073 -0.3137  0.2294
32291W        W47908   3.343  14.955   3.266  0.2398  0.0042 -0.2144
32292W        W47909   0.880  17.898  15.520 -0.0978  0.1189 -0.0707
32293W        W47910  11.917   0.056   1.840  0.1207 -0.0656 -0.2072
32294W        W47911   8.261  10.749  10.916  0.0297 -0.4018  0.3349
32295W        W47912   6.733   9.045  15.262  0.0281  0.1755 -0.0491
32296W        W47913   5.585   9.426   0.550  0.1347  0.1818  0.2078
32297W        W47914   3.945  13.743  11.979 -0.1964 -0.0915 -0.0178
32298W        W47915   1.351  16.492  15.109  0.3699 -0.1136 -0.1074
32299W        W47916   0.460  10.096   2.097 -0.3038 -0.0912  0.3047
32300W        W47917  12.125   0.694   0.754 -0.0040  0.0092 -0.0848
32301W        W47918   4.937   9.543  14.321  0.1557 -0.2894  0.0193
32302W        W47919  18.212  11.281   3.894 -0.4230  0.3689 -0.0433
32303W        W47920  17.900   4.053  15.968  0.0544  0.1286 -0.0897
32304W        W47921   8.866  10.754   4.315 -0.0807 -0.1769 -0.3932
32305W        W47922   3.158  16.898  12.749  0.2741 -0.1894 -0.0975
32306W        W47923  13.927   6.714  14.736 -0.2100  0.1293  0.1916
32307W        W47924  14.659  12.624   5.010  0.1287 -0.1154 -0.2341
32308W        W47925   1.307   5.154  15.309 -0.1867  0.1040 -0.0804
32309W        W47926   3.998  18.254  14.190  0.0286 -0.1106  0.1242
32310W        W47927  14.387   4.930  15.541  0.0256  0.2192  0.0017
32311W        W47928   1.895   1.260  13.163  0.1308  0.1430  0.1384
32312W        W47929  10.615  14.335   3.653  0.1838  0.1050 -0.2959
32313W        W47930   0.803   9.041  11.735 -0.0538 -0.1390 -0.4606
32314W        W47931  17.736  18.078   2.433  0.0401  0.0012 -0.0806
32315W        W47932  17.427  10.523  14.463 -0.2650  0.2180  0.4218
32316W        W47933   0.076   4.376   3.601  0.0046  0.1064  0.0263
32317W        W47934  14.094  11.966   4.866  0.1299 -0.0672  0.1236
32318W        W47935  16.291  16.158  14.731  0.3492 -0.0797 -0.0512
32319W        W47936   5.708   7.677   4.471  0.1629  0.1124 -0.0754
32320W        W47937  15.485  15.655  15.386 -0.0247 -0.2203 -0.1143
32321W        W47938   3.055  10.210   5.087  0.4201  0.0770 -0.1661
32322W        W47939   0.258  10.751  14.853 -0.1404  0.3538 -0.3823
32323W        W47940  16.212   8.519  14.630 -0.0001 -0.3098  0.0517
32324W        W47941   7.967   1.944   3.009  0.0951  0.1068 -0.0504
32325W        W47942  15.249  15.977   3.637 -0.1913  0.0345 -0.0541
32326W        W47943   0.570   1.986  12.219  0.3322 -0.1900 -0.1567
32327W        W47944  18.229  17.200   3.879 -0.1364  0.0555  0.0075
32328W        W47945  10.030   5.770   0.743  0.0706  0.2501  0.1907
32329W        W47946   8.163  15.031   3.164  0.0248  0.2058  0.0535
32330W        W47947   5.405   8.308   0.127  0.3434 -0.0857 -0.0742
32331W        W47948   6.975   1.487   0.578 -0.1777  0.4198 -0.2696
32332W        W47949   1.878   8.123  13.659  0.1736 -0.0578  0.0779
32333W        W47950   5.703  11.998   1.620  0.1425  0.0316 -0.0060
32334W        W47951  14.767   7.771  12.920  0.2558 -0.0583  0.0217
32335W        W47952   2.789  11.949  12.093  0.1659 -0.1280  0.0107
32336W        W47953  13.052  10.780   3.144 -0.0212 -0.2684  0.0136
32337W        W47954  12.166   7.859  10.897  0.2490  0.0175 -0.3015
32338W        W47955   9.628   1.796  14.841 -0.0789 -0.2522  0.0013
32339W        W47956  10.907  17.175   0.376  0.3544 -0.0146 -0.0316
32340W        W47957   4.172  16.751   5.768  0.0209  0.0430 -0.1297
32341W        W47958  16.683   4.713  13.883  0.1549 -0.0823  0.0102
32342W        W47959  13.200  11.779   2.377 -0.2591  0.0945  0.1608
32343W        W47960  16.988  13.237   5.791 -0.0814 -0.2966  0.1091
32344W        W47961  16.742   8.575   5.199 -0.0515 -0.3727  0.0567
32345W        W47962   2.626  10.529   0.446  0.2804 -0.2478 -0.0636
32346W        W47963   5.788  12.728   2.050  0.0981 -0.0665  0.4390
32347W        W47964  14.737  15.663   4.845 -0.1276 -0.1296 -0.0893
32348W        W47965   3.022  15.358  15.160 -0.3093 -0.2495  0.3074
32349W        W47966  12.116  14.849   0.142 -0.2067  0.3678 -0.1407
32350W        W47967  13.496   7.485  10.945  0.1848 -0.0682 -0.1479
32351W        W47968  13.458  17.820  15.445  0.0712 -0.4059 -0.0120
32352W        W47969   5.618   1.468   4.601  0.0392 -0.2414  0.3962
32353W        W47970   7.061   2.192   2.757 -0.1465 -0.0511  0.1674
32354W        W47971   6.754  15.386  14.010  0.2880 -0.2556 -0.0905
32355W        W47972   7.074   0.465   4.695  0.1052  0.1172 -0.1345
32356W        W47973  11.596   0.896   3.248 -0.0691  0.0389 -0.1223
32357W        W47974   1.905  10.630  15.943  0.1121 -0.1528  0.1658
32358W        W47975   2.156   6.272  15.385  0.0752  0.0998 -0.0251
32359W        W47976  17.025   0.941   0.839  0.0180  0.2100  0.0459
32360W        W47977  13.446  11.006   4.495 -0.2032  0.1126 -0.1163
32361W        W47978   3.492  11.499   6.324  0.1740 -0.1647  0.0034
32362W        W47979  10.360  13.530  12.533  0.0336 -0.0676  0.2791
32363W        W47980   4.867  13.900  14.609 -0.1207 -0.0472 -0.2904
32364W        W47981   7.312   7.472  11.890 -0.0585 -0.1335  0.1275
32365W        W47982   6.555   8.113   4.321 -0.1809  0.1411  0.0810
32366W        W47983  14.371   9.662  11.378 -0.0854  0.3170  0.2602
32367W        W47984   9.725   8.220  14.985  0.1044 -0.0716 -0.1668
32368W        W47985  16.582   0.868   1.068 -0.0248 -0.0098  0.0439
32369W        W47986  13.387  12.791  15.239 -0.0323 -0.1374 -0.1888
32370W        W47987  11.192   1.597   5.043 -0.2124  0.1813  0.0395
32371W        W47988  18.069   1.482   4.151 -0.2415  0.0158 -0.1708
32372W        W47989   5.327  15.182  12.785  0.1571 -0.1738 -0.1559
32373W        W47990   7.505  18.160  13.107 -0.0115 -0.0565  0.2363
32374W        W47991   2.885   6.054   4.689 -0.1879 -0.0122  0.1261
32375W        W47992   1.615  12.193   4.798 -0.0472  0.0026  0.2030
32376W        W47993  12.042   5.395   1.987  0.1588 -0.1986  0.1043
32377W        W47994   4.865  13.904   1.422  0.2142 -0.4815  0.2005
32378W        W47995   3.950   2.921  14.617  0.0620  0.1554  0.0568
32379W        W47996  12.573   3.878  15.272 -0.3288  0.2531 -0.0765
32380W        W47997  12.132   7.419  13.806 -0.0116 -0.1449  0.2049
32381W        W47998   0.738   6.844  13.671 -0.2454 -0.2697 -0.0821
32382W        W47999   1.287  14.814   2.475  0.3441  0.1218  0.0139
32383W        W48000   4.263   8.272  13.600 -0.1563  0.0266 -0.1597
32384W        W48001   4.601  11.105   2.205 -0.0116 -0.1982  0.1037
32385W        W48002   8.901   1.677   0.788  0.3361  0.0771  0.0200
32386W        W48003   7.999   7.077   4.548 -0.1130 -0.1989 -0.1714
32387W        W48004   8.319   1.791   0.340 -0.2258 -0.0090  0.0967
32388W        W48005  17.880  16.226  13.352 -0.0527  0.0278  0.3379
32389W        W48006   6.079  11.548  14.472 -0.1131 -0.2178  0.0375
32390W        W48007   2.661   7.459  12.350 -0.0433 -0.0185 -0.0292
32391W        W48008  12.963  12.653  12.782  0.0983  0.3645 -0.0049
32392W        W48009  12.394   0.865   2.907  0.0737  0.0148  0.3226
32393W        W48010   1.106   1.743   0.058 -0.0840  0.1334  0.0259
32394W        W48011   6.033  10.756  14.774  0.0565 -0.1511 -0.0920
32395W        W48012  11.252   5.102  12.543 -0.0197 -0.0585  0.0970
32396W        W48013   2.467   2.336   0.602  0.2499  0.2154  0.0109
32397W        W48014   8.610   9.303  16.063 -0.4635  0.2067 -0.1920
32398W        W48015   0.563   9.614  14.932  0.4007  0.3419 -0.0635
32399W        W48016  10.022  13.806  12.964 -0.2036 -0.0715 -0.3227
32400W        W48017   0.631   7.728  11.188 -0.2847 -0.3814 -0.0253
32401W        W48018   6.771   2.168  13.214 -0.1960  0.2577  0.0623
32402W        W48019  16.757   0.802  12.606  0.1918 -0.3753  0.1162
32403W        W48020  14.945   8.279  12.073  0.3700 -0.2509  0.2316
32404W        W48021  15.447   1.827   5.676  0.0724 -0.0762 -0.4243
32405W        W48022   7.632   4.652   3.034  0.3694 -0.1846  0.1185
32406W        W48023  15.413   8.696   2.106  0.0043 -0.1490  0.0413
32407W        W48024  14.675  13.522  11.995 -0.2540 -0.0636 -0.0716
32408W        W48025  16.175  15.965  15.895  0.0665 -0.0422  0.0081
32409W        W48026   7.236   1.154   3.013  0.0144  0.2818  0.1703
32410W        W48027  16.828  10.223  15.559 -0.2590  0.0612 -0.0313
32411W        W48028   6.869  12.910   4.491 -0.2922  0.1336  0.3211
32412W        W48029   9.851  15.323   4.441  0.2127  0.3350  0.1944
32413W        W48030  10.876  15.196  12.307  0.2885  0.0454 -0.3103
32414W        W48031   8.214   7.890  11.603  0.0736 -0.4551 -0.0403
32415W        W48032  17.982   0.844   0.128  0.1135 -0.0280 -0.0598
32416W        W48033  18.211  11.999   2.246  0.1528 -0.2111 -0.1694
32417W        W48034   7.274  11.002   4.095 -0.0385 -0.1128 -0.1101
32418W        W48035   5.318   4.422  14.531 -0.1353  0.3079  0.0803
32419W        W48036  14.851  14.242  12.480  0.0917  0.0310 -0.1520
32420W        W48037  17.456   1.337  12.989  0.0868 -0.3120 -0.1926
32421W        W48038   0.892  14.917   0.665 -0.0729  0.1564 -0.0982
32422W        W48039   4.755  13.816  15.830 -0.0631  0.1518 -0.0640
32423W        W48040  16.438   9.587   0.098  0.0581 -0.0189  0.3069
32424W        W48041  18.217   2.430   0.018  0.1991 -0.0359 -0.2250
32425W        W48042   5.593   7.482   3.167  0.0191  0.1308  0.1472
32426W        W48043  13.546  11.998   4.053 -0.1723  0.2165 -0.0926
32427W        W48044   0.230  10.079   1.395  0.0069  0.1802  0.1131
32428W        W48045  14.560  12.383  12.538 -0.0356 -0.1286 -0.0716
32429W        W48046  17.848  16.558   5.392  0.0591  0.1561 -0.2408
32430W        W48047  12.903  12.379   4.795 -0.3023  0.2376  0.0472
32431W        W48048   6.387  10.369   0.149 -0.0630  0.1510 -0.0760
32432W        W48049  14.678  11.823   5.420 -0.0428  0.0159 -0.1423
32433W        W48050   2.510   1.257   1.336 -0.0290 -0.0431 -0.0210
32434W        W48051  13.475   4.793  14.028  0.0377 -0.0171 -0.1030
32435W        W48052   6.866  16.330  15.701  0.0090 -0.0359  0.0100
32436W        W48053  14.686   6.104   4.758 -0.0371 -0.0253  0.2292
32437W        W48054  10.987   9.214  11.252 -0.1212 -0.2013 -0.2526
32438W        W48055  11.337   0.993   2.298  0.1144  0.1656 -0.4614
32439W        W48056  17.986   8.094  15.610 -0.0755  0.3022  0.1358
32440W        W48057  15.563  12.732   2.592 -0.0628 -0.3414 -0.2899
32441W        W48058  11.823  16.752   4.505  0.2433 -0.0663  0.0961
32442W        W48059  14.904  13.308  15.666  0.0079 -0.2142 -0.0335
32443W        W48060  13.906   0.643   3.999  0.3259 -0.1639 -0.2268
32444W        W48061   6.192   9.272  12.535 -0.0658 -0.0733  0.0447
32445W        W48062   3.206  16.612   0.530  0.1576  0.0680 -0.1360
32446W        W48063  18.010   8.199  14.742 -0.0447 -0.0171 -0.1705
32447W        W48064  11.031  17.435   4.296 -0.1175 -0.0714  0.0286
32448W        W48065   9.061  10.724   2.816  0.2127  0.0304  0.2425
32449W        W48066   0.442  16.817  12.547  0.3606 -0.2900 -0.0537
32450W        W48067  18.426  13.013   6.645  0.1346 -0.2980  0.1252
32451W        W48068   5.041  12.470   1.950 -0.1605 -0.0405  0.2101
32452W        W48069  13.035  18.160  11.785  0.3410 -0.3023 -0.1142
32453W        W48070   3.642   2.628   4.135 -0.2682  0.2150 -0.0781
32454W        W48071   2.642   6.898   1.563  0.0148  0.1612  0.1572
32455W        W48072  16.417   6.592   0.291 -0.1690 -0.1537 -0.1877
32456W        W48073  17.753  10.588  13.505 -0.0963  0.0182 -0.0499
32457W        W48074   0.355   8.393   0.481  0.1571 -0.0088 -0.1352
32458W        W48075   6.237  18.392   4.917 -0.1647 -0.0967 -0.4261
32459W        W48076  11.897  14.922  12.665 -0.0821  0.3647  0.2006
32460W        W48077  10.265  17.796   2.711  0.1053 -0.1312  0.2264
32461W        W48078   6.496   3.703   2.262 -0.2494  0.2929 -0.0876
32462W        W48079   6.971  16.310  14.953 -0.1483  0.3414 -0.3271
32463W        W48080   6.718   5.341   1.317 -0.1078  0.2491 -0.2201
32464W        W48081   8.520  15.981  15.110  0.0307  0.0929  0.3523
32465W        W48082  17.162  15.035   2.310 -0.1066  0.0406 -0.1358
32466W        W48083  11.231  13.905   5.269  0.0193  0.0789 -0.2565
32467W        W48084  13.168   7.279  12.277 -0.2680  0.0934 -0.2286
32468W        W48085   1.019   2.327  15.192 -0.0171 -0.1755 -0.1079
32469W        W48086  11.474  10.451  11.075  0.0631  0.0510  0.0965
32470W        W48087   0.540   6.867  12.825  0.0281  0.1349 -0.4402
32471W        W48088  17.733  18.192   0.290 -0.3484  0.1301  0.3244
32472W        W48089   9.138  11.325   4.064 -0.2211  0.0449 -0.1527
32473W        W48090  15.499  12.501  13.558 -0.4093 -0.0543 -0.1166
32474ION     NA48091   9.868  14.913  10.869 -0.1605 -0.0825 -0.0136
32475ION     NA48092   6.897   3.404   9.779 -0.1907  0.0180  0.0555
32476ION     NA48093  15.965   0.823  14.279  0.2763  0.1149 -0.1047
32477ION     NA48094   2.333  13.266   5.311  0.0377 -0.0802  0.1588
32478ION     NA48095  14.357  15.438  10.337 -0.0671  0.1264  0.2176
32479ION     NA48096  15.937  14.708  10.449 -0.0234 -0.3809  0.0801
32480ION     NA48097   8.135   0.886  10.373  0.3264  0.1319 -0.2168
32481ION     NA48098   9.985  12.986  11.510  0.0383 -0.4016  0.1592
32482ION     NA48099  11.796   1.922   5.908 -0.1418 -0.4548  0.0946
32483ION     NA48100   3.572  15.422  10.784  0.0855  0.0312 -0.1686
32484ION     NA48101  17.889   4.344  10.715  0.3063  0.1189  0.3649
32485ION     NA48102   5.948   6.147  10.677 -0.1513  0.3974 -0.2222
32486ION     NA48103  11.304   8.082   5.019  0.2288 -0.1751 -0.2713
32487ION     NA48104   3.622  16.573   2.302 -0.0721  0.1463  0.0367
32488ION     NA48105  17.417   7.937   9.946 -0.0219 -0.0817 -0.2611
32489ION     NA48106   3.658  15.628  12.713  0.0261 -0.1834 -0.1646
32490ION     NA48107   5.568  14.979  10.989  0.0463 -0.0668 -0.0310
32491ION     NA48108  15.881  13.116  10.456  0.2646 -0.0127  0.2071
32492ION     NA48109  14.893  16.692  13.695 -0.3003 -0.0592 -0.0589
32493ION     NA48110   5.103   2.262  10.547 -0.2880  0.1728  0.1014
32494ION     NA48111  11.632   3.666  10.091  0.2365 -0.0081  0.0762
32495ION     NA48112   2.791  14.977  11.441 -0.1961 -0.2322 -0.0812
32496ION     NA48113  14.543  13.726  10.294 -0.0467  0.0454  0.1047
32497ION     NA48114  11.938  13.166   4.438 -0.0064  0.0689  0.2341
32498ION     NA48115   1.805   2.090  10.434  0.3893  0.1086 -0.0390
32499ION     NA48116  14.192   9.582  10.172 -0.0365  0.2356  0.0715
32500ION     NA48117   9.281   6.350   9.780 -0.4860  0.0532  0.0711
32501ION     NA48118  15.930  17.941  10.044 -0.4164 -0.0494 -0.0125
32502ION     NA48119   2.381  15.915  10.807  0.2088  0.0258  0.0907
32503ION     NA48120   4.751  13.446   1.558  0.0035 -0.1880  0.1235
32504ION     NA48121  11.001  11.552   0.966 -0.2401  0.0850 -0.0562
32505ION     NA48122   4.371  10.282  10.454 -0.1121  0.1453 -0.1464
32506ION     NA48123   7.572   2.839  10.078  0.1329 -0.1434 -0.0451
32507ION     NA48124  11.856   8.568   9.877  0.0279  0.1705 -0.1914
32508ION     NA48125   8.041   7.790  13.380 -0.0357 -0.2935  0.1304
32509ION     NA48126  14.969   7.268  12.246  0.0268 -0.2636 -0.0594
32510ION     NA48127  11.149   4.504   9.768  0.2169 -0.0691  0.1266
32511ION     NA48128   3.422   0.847   0.938  0.1271 -0.1328  0.1344
32512ION     NA48129   1.992  16.785  10.849  0.0192 -0.2661  0.0147
32513ION     NA48130   1.041  11.785   4.205 -0.5522  0.3784 -0.0827
32514ION     NA48131  13.483   9.142   9.881  0.0646  0.1814  0.1503
32515ION     NA48132  14.520   3.770  10.058  0.2137 -0.3073 -0.0317
32516ION     NA48133   0.969  10.590   5.859  0.0601  0.0925  0.0334
32517ION     NA48134  13.755  17.547  11.542 -0.0465  0.0879 -0.1607
32518ION     NA48135  12.804  15.918  10.386 -0.0650 -0.1722 -0.1270
32519ION     NA48136   3.992  17.838  10.647 -0.0454 -0.2590 -0.0608
32520ION     NA48137  16.007   7.269   3.115  0.1020  0.1200 -0.1887
32521ION     NA48138  11.117  11.510  10.282 -0.0730 -0.0615 -0.0890
32522ION     NA48139  13.368  15.307  10.136  0.3029 -0.1891  0.2783
32523ION     NA48140   2.468   5.200  10.029 -0.1962 -0.0062 -0.1590
32524ION     NA48141  11.746  16.929  10.407 -0.1574 -0.1751 -0.0684
32525ION     NA48142   3.943   5.926  11.829 -0.3979 -0.2511  0.0783
32526ION     NA48143  15.559   3.953  10.227 -0.0684 -0.3835 -0.1263
32527ION     NA48144  13.690  17.953  10.381 -0.1907  0.2438  0.3325
32528ION     NA48145   8.337   8.986   5.399  0.0735 -0.3823  0.3990
32529ION     NA48146  15.376  14.638  14.393  0.1311 -0.3296 -0.0029
32530ION     NA48147   6.106  10.919  10.467  0.0321  0.0698  0.4236
32531ION     NA48148  10.109   2.388  11.421 -0.0673  0.0902  0.2811
32532ION     NA48149   0.986   4.854  10.496 -0.2666 -0.0788 -0.0217
32533ION     NA48150  16.945   6.418  10.303 -0.0907  0.0894  0.4854
32534ION     NA48151   9.833   8.467   2.635  0.5019  0.0972 -0.2618
32535ION     NA48152   5.619  13.964  10.959 -0.0307  0.1317 -0.2231
32536ION     NA48153   9.358  16.563   5.477  0.1240 -0.1985  0.0387
32537ION     NA48154   4.838  15.619  11.053 -0.0460 -0.0717 -0.1278
32538ION     NA48155   7.945   6.035   0.154 -0.0053 -0.1446  0.0931
32539ION     NA48156  12.065   6.774   9.872 -0.2628  0.0102  0.0374
32540ION     NA48157  15.495   4.721   5.488  0.0978  0.1037 -0.0036
32541ION     NA48158  12.590  12.326   2.496 -0.1221 -0.1698  0.1086
32542ION     NA48159  15.934  13.973  10.190 -0.0700  0.0935 -0.3902
32543ION     NA48160  10.820   9.664  10.083 -0.0396  0.1340  0.0507
32544ION     NA48161  16.718  15.671  10.547 -0.0165  0.0692 -0.3259
32545ION     NA48162   1.810   3.407  10.433 -0.2594  0.1846  0.1179
32546ION     NA48163   3.937  10.099  10.070 -0.1024  0.1859 -0.0461
32547ION     NA48164   4.713  12.034   6.229 -0.0985  0.0174  0.0597
32548ION     NA48165  13.597  13.619  10.096 -0.0343 -0.1664  0.2523
32549ION     NA48166  18.148  15.877  13.045 -0.0546 -0.0622 -0.0834
32550ION     NA48167  10.425   5.661  10.076  0.0052 -0.0286  0.0354
32551ION     NA48168   7.123  10.226   3.630 -0.1557  0.1484 -0.0860
32552ION     NA48169  11.451   7.440   4.933  0.1214  0.1823  0.0647
32553ION     NA48170  11.840   4.468   9.710  0.1566 -0.0445 -0.3492
32554ION     NA48171   9.427   7.930   2.218 -0.1182  0.1125 -0.0403
32555ION     NA48172   0.615  16.153   6.164 -0.1149  0.1354 -0.3957
32556ION     NA48173  15.313   1.936   5.122 -0.3949 -0.2137 -0.1792
32557ION     NA48174  15.735  17.229   0.035  0.3270  0.0199 -0.0752
32558ION     NA48175   9.408   9.375   3.200 -0.0969  0.2700 -0.2941
32559ION     NA48176   0.323  14.536   6.450  0.2026 -0.2707  0.0926
32560ION     NA48177  10.140  13.703  14.833 -0.1390  0.1315 -0.0814
32561ION     NA48178   2.242  17.012   5.867  0.0344  0.2131 -0.1605
32562ION     NA48179  15.009   9.903  10.126  0.2190  0.0178  0.0030
32563ION     NA48180   0.734  10.104  15.958  0.2108 -0.2390 -0.2876
32564ION     NA48181   6.267   2.288   3.243  0.2330 -0.3704 -0.3488
32565ION     NA48182   4.558  17.953  14.194  0.1719 -0.0076 -0.1221
32566ION     NA48183   6.507   5.013  15.413  0.0254  0.2423 -0.0499
32567ION     NA48184  12.153   9.671   9.897  0.0004 -0.0160 -0.2066
32568ION     NA48185  17.005   7.457  14.724  0.1457  0.0232  0.0444
32569ION     NA48186  14.159   4.124   9.929  0.1458 -0.1215 -0.1783
32570ION     NA48187   1.409   2.955  10.399  0.4352  0.1959 -0.0818
32571ION     NA48188  13.193   0.973  10.242 -0.0852 -0.0029  0.2539
32572ION     NA48189  14.857   5.713  10.078 -0.0052 -0.0239  0.1466
32573ION     NA48190   0.559   1.008   5.401 -0.0720  0.0396  0.0032
32574ION     NA48191  10.695  16.430  14.773 -0.5540  0.0376  0.1555
32575ION     NA48192  16.657  10.775  10.017  0.1038 -0.3394 -0.0873
32576ION     NA48193   3.873   7.615   3.772  0.2702  0.1602 -0.1253
32577ION     NA48194   4.750  17.281   6.222  0.2262 -0.2079  0.0638
32578ION     NA48195   9.591   8.695   9.863  0.1407 -0.1919 -0.2536
32579ION     NA48196   8.502   9.820  10.094 -0.0521  0.0907 -0.3093
32580ION     NA48197  14.356   3.704   5.736 -0.1258  0.0576 -0.1510
32581ION     NA48198   8.217   8.626   9.724  0.2786 -0.0243  0.0951
32582ION     NA48199  11.614   7.722  10.146 -0.1783  0.1899  0.1755
32583ION     NA48200   4.032   7.049  10.184 -0.1072  0.0829 -0.0153
32584ION     NA48201   7.573  17.821  10.522 -0.1179 -0.1010  0.2135
32585ION     NA48202  14.442  14.476  10.237  0.0728  0.1987 -0.1511
32586ION     NA48203   3.000   2.206   4.863 -0.2200 -0.0610 -0.1237
32587ION     NA48204   7.467   6.270   9.976  0.3193  0.0623 -0.0683
32588ION     NA48205  11.062   2.057  13.888  0.0126  0.0047  0.2655
32589ION     NA48206   4.928   5.253  14.830 -0.0255  0.1579  0.1315
32590ION     NA48207   2.998   2.189  10.554  0.2410  0.1715  0.1799
32591ION     NA48208  17.054   9.872   9.968 -0.2632 -0.2546 -0.0728
32592ION     NA48209   8.355  12.419  11.091 -0.0969  0.0161 -0.0915
32593ION     NA48210   0.100   3.659  10.681 -0.1569 -0.1255 -0.0027
32594ION     NA48211   6.913   8.048   9.830 -0.0037  0.0301  0.1343
32595ION     NA48212  15.210  17.153  10.137 -0.1371  0.0991  0.1519
32596ION     NA48213  11.221  14.278  10.589  0.2151  0.2961 -0.3645
32597ION     NA48214  14.176  11.722  10.044  0.0233  0.0098  0.1565
32598ION     NA48215   1.017   7.230   5.528 -0.1763  0.1004 -0.1155
32599ION     NA48216  16.175   6.543  10.052 -0.1154 -0.2462 -0.0621
32600ION     NA48217   0.646  13.425  11.004  0.1492  0.3046 -0.0844
32601ION     NA48218  10.518  18.371  11.017  0.0578  0.0230 -0.1143
32602ION     NA48219   0.588   0.440   3.614  0.2659  0.2306  0.0816
32603ION     NA48220   5.182   7.819   5.393  0.2488  0.2688 -0.2818
32604ION     NA48221   7.816  13.936   5.638  0.0718  0.0797  0.2097
32605ION     NA48222   5.259  10.600  10.335 -0.0703 -0.1202 -0.1746
32606ION     NA48223   6.175  12.527   6.348  0.1842  0.0107 -0.3649
32607ION     NA48224  16.500   4.461  10.232 -0.0797 -0.0465  0.0275
32608ION     NA48225  13.081   9.681  14.624  0.1046 -0.1881  0.3826
32609ION     NA48226  11.027   5.262   9.621 -0.0669 -0.2530 -0.0996
32610ION     NA48227   4.297   8.463   9.980  0.0129  0.1611 -0.2066
32611ION     NA48228  12.847  15.790   4.350  0.0008  0.3388  0.1356
32612ION     NA48229   4.403  11.127  11.723 -0.0041 -0.1614 -0.1310
32613ION     NA48230  17.547  10.563  10.352 -0.3053  0.1512  0.1717
32614ION     NA48231   9.127  18.038  10.320 -0.1967  0.0648  0.3995
32615ION     NA48232   9.830  16.804  10.515 -0.1988 -0.0310 -0.1828
32616ION     NA48233   7.878   3.603  12.086 -0.0469  0.3726  0.1937
32617ION     NA48234   5.878   5.138   9.652  0.0508  0.1752 -0.3663
32618ION     NA48235   8.719  15.409  10.710  0.2300 -0.2877  0.2588
32619ION     NA48236  13.669   2.118  15.023  0.1335  0.1453 -0.1560
32620ION     NA48237   5.553  18.264  10.429  0.0345  0.0591 -0.2927
32621ION     NA48238   7.380   8.858  10.025  0.0408 -0.3026  0.1692
32622ION     NA48239   9.566   3.479  11.702  0.0732  0.3241 -0.1674
32623ION     NA48240   5.151   5.268  13.273  0.1507  0.1308  0.2015
32624ION     NA48241  11.796   4.279  11.947  0.0588 -0.4095 -0.2463
32625ION     NA48242  16.737   8.984  11.239 -0.2015  0.2014 -0.0131
32626ION     NA48243   7.871  10.832   5.747 -0.0340 -0.1895 -0.3755
32627ION     NA48244  11.307  17.643  10.808  0.0611 -0.4268  0.0184
32628ION     NA48245   2.857   3.837   5.840  0.0661  0.0361  0.0767
32629ION     NA48246   7.886  12.169   5.459  0.0246  0.1802 -0.0190
32630ION     NA48247  11.497   0.409   2.743 -0.1083 -0.1182  0.1105
32631ION     NA48248   9.747  15.825   5.959  0.1041 -0.1393 -0.2965
32632ION     NA48249   1.415   4.344  10.361  0.1382  0.0907 -0.1958
32633ION     NA48250  13.373   9.882   1.038  0.1223  0.0472  0.3336
32634ION     NA48251   7.733  14.449  10.903  0.1745 -0.1379 -0.3252
32635ION     NA48252  16.632   1.822   0.181  0.3087 -0.1183  0.1176
32636ION     NA48253  13.996  12.681  10.916  0.0908  0.0404  0.2088
32637ION     NA48254   8.973   9.079   9.744 -0.2413  0.2629 -0.1274
32638ION     NA48255   9.107   0.879  10.489 -0.2856  0.1650 -0.0627
32639ION     NA48256   2.542   5.809  12.370  0.0504  0.0688  0.1954
32640ION     NA48257   2.139  12.758  15.954  0.1745 -0.1951 -0.1817
32641ION     NA48258  17.263   2.816  10.889  0.1655 -0.0152 -0.0311
32642ION     NA48259   0.118   5.860  10.331  0.0365 -0.2068  0.0102
32643ION     NA48260   3.391   8.922  10.003  0.1451 -0.0896 -0.0403
32644ION     NA48261   6.362   1.874  11.306 -0.0553  0.0838 -0.2261
32645ION     NA48262  13.149   3.264  10.188 -0.2208 -0.0151  0.1657
32646ION     NA48263  13.713  17.944   6.136  0.0997 -0.0981 -0.1122
32647ION     NA48264  17.768   1.659   6.091  0.1071  0.0592  0.0647
32648ION     NA48265  17.851   3.378  10.607 -0.0108  0.2454 -0.1186
32649ION     NA48266   9.064  17.042  10.078  0.0810 -0.2049  0.0317
32650ION     NA48267   8.879   8.071   9.549 -0.0237 -0.0895  0.0361
32651ION     NA48268   5.751   1.642  10.108  0.3317 -0.1391  0.0236
32652ION     NA48269  14.389   0.181   5.901  0.1904  0.1449 -0.0095
32653ION     NA48270   3.107  12.901  11.164  0.0872  0.6262  0.0833
32654ION     NA48271   1.268   0.573   5.981 -0.0538 -0.1824  0.2550
32655ION     NA48272   0.565   8.707  10.465  0.1295 -0.0059  0.1210
32656ION     NA48273   3.733   6.801  10.784  0.2740  0.3566 -0.0394
32657ION     NA48274   6.172   6.857   9.772  0.3216  0.0617 -0.0468
32658ION     NA48275  13.308  11.146   9.948  0.2713  0.1498 -0.2583
32659ION     NA48276   7.868  14.242  11.645 -0.2432  0.1315  0.2811
32660ION     NA48277   9.120   2.789   9.855  0.0835 -0.2538 -0.1083
32661ION     NA48278   5.812  16.040  11.558 -0.2552  0.2235  0.2764
32662ION     NA48279   4.707  13.018   6.199  0.1198  0.0871 -0.1453
32663ION     NA48280   0.321   6.241   0.109 -0.0204  0.0323  0.3713
32664ION     NA48281  10.191   7.392   5.619  0.4155  0.1968 -0.2087
32665ION     NA48282  11.594   9.937   5.565  0.2171  0.1134 -0.3660
32666ION     NA48283  13.708   7.051  10.927 -0.0084  0.0752  0.0684
32667ION     NA48284  18.272   9.837   1.559 -0.0435 -0.1858  0.0749
32668ION     NA48285   7.542  18.148   5.757 -0.1710  0.0175  0.0178
32669ION     NA48286   6.525   1.037   2.340  0.0600  0.1289  0.3922
32670ION     NA48287   5.401   3.042  10.231  0.0685  0.3499 -0.2186
32671ION     NA48288  15.837   8.552  10.126  0.0617  0.1611  0.2544
32672ION     NA48289   4.868   3.769  10.085  0.0490 -0.2068 -0.1019
32673ION     NA48290  16.247   5.676  14.689  0.1715  0.1931  0.3397
32674ION     NA48291  10.133   4.409   9.604 -0.0527 -0.0959  0.1649
32675ION     NA48292   6.338   9.093  10.495 -0.2427  0.1714  0.2462
32676ION     NA48293   9.730   9.626  10.099 -0.1625 -0.2624  0.3089
32677ION     NA48294  16.543  12.538   4.467  0.0490 -0.0982  0.2174
32678ION     NA48295  18.191  16.503  10.447  0.2513 -0.2480 -0.0866
32679ION     NA48296  17.475  14.582  10.481  0.0306  0.0403  0.0829
32680ION     NA48297  11.682   2.331  10.393 -0.0578 -0.0686  0.3426
32681ION     NA48298   6.909   2.321  10.182 -0.0473 -0.2738 -0.1646
32682ION     NA48299  18.120   5.566  14.735 -0.0095 -0.1807 -0.2369
32683ION     NA48300   7.933   7.504   1.370  0.0916 -0.1460  0.0459
32684ION     NA48301   1.396  14.062  10.904  0.0672  0.3370  0.2443
32685ION     NA48302  13.755  15.182   1.439 -0.1061 -0.0136  0.1136
32686ION     NA48303  14.452  14.239   5.439  0.0201  0.3110  0.1625
32687ION     NA48304  16.233   9.279   1.869 -0.2458 -0.2528 -0.1820
32688ION     NA48305  13.713  12.642  10.150  0.1436  0.0403 -0.0443
32689ION     NA48306   6.672  13.110  10.915  0.0660 -0.1414 -0.0591
32690ION     NA48307   5.563   8.783  10.218 -0.0293  0.0805  0.3828
32691ION     NA48308  14.726   6.224   9.999 -0.1956  0.0996 -0.0719
32692ION     NA48309  13.616   8.224  16.054  0.2046 -0.1051  0.2805
32693ION     NA48310   6.431   2.599   2.387  0.0134  0.2898 -0.0389
32694ION     NA48311   1.737  13.659  10.888 -0.3457 -0.3203 -0.0872
32695ION     NA48312  13.345   1.884  10.281 -0.1703 -0.2840  0.1452
32696ION     NA48313  13.190  14.521  10.117 -0.1541 -0.0080  0.2187
32697ION     NA48314  15.138  13.151  10.250  0.1686  0.2066  0.1302
32698ION     NA48315   1.294   6.281   2.232 -0.0676  0.1945  0.4036
32699ION     NA48316  16.174  16.065   5.286  0.0122 -0.0393  0.3669
32700ION     NA48317   3.888  14.591  12.915 -0.1151  0.0944  0.1815
32701ION     NA48318  16.127   1.819  10.621 -0.2186 -0.1977  0.0042
32702ION     NA48319  14.687   8.716   1.799  0.1171 -0.3206 -0.0488
32703ION     NA48320   1.013   9.305  15.640 -0.0647 -0.2088  0.2055
32704ION     NA48321   9.007   2.876  13.893  0.1841  0.2472  0.3432
32705ION     NA48322   5.545   3.886   0.411  0.0994  0.1543  0.0491
32706ION     NA48323   9.587   2.401   9.841 -0.0223 -0.0202 -0.0810
32707ION     NA48324   3.003  15.623   3.722 -0.2127 -0.0840 -0.1364
32708ION     NA48325  10.759  17.165  10.406  0.1156 -0.0002 -0.3350
32709ION     NA48326   7.058  17.640  10.654  0.3004  0.0616 -0.0272
32710ION     NA48327  16.280  12.411   3.049  0.2735  0.1676 -0.0831
32711ION     NA48328   3.883  15.430   6.196  0.1194  0.0814  0.0308
32712ION     NA48329   2.236  12.798  10.606 -0.1159 -0.1212  0.0277
32713ION     NA48330  17.848   9.353   5.725 -0.2344  0.0029  0.0596
32714ION     NA48331   0.260  12.258  13.691  0.1451 -0.1737 -0.0318
32715ION     NA48332   6.951   1.778  13.793 -0.1094 -0.1405 -0.0329
32716ION     NA48333  15.612  12.177  10.399 -0.0583  0.1201 -0.3682
32717ION     NA48334   7.012   3.844   5.364  0.2137 -0.0520  0.1788
32718ION     NA48335   5.359   0.718   2.160  0.3043 -0.3341  0.0358
32719ION     NA48336  10.671  16.651  13.486  0.1238 -0.0871  0.0245
32720ION     NA48337  10.024   7.282   9.711  0.1856  0.1267  0.1672
32721ION     NA48338   8.706   5.568   9.640 -0.3328  0.3771 -0.3318
32722ION     NA48339  16.137   3.415   5.945 -0.0631 -0.0232 -0.3423
32723ION     NA48340  16.820  17.820  10.439  0.0719  0.0417  0.0235
32724ION     NA48341   5.482  16.779  10.848 -0.0165  0.1913 -0.0574
32725ION     NA48342   2.601  18.366  11.259  0.1669 -0.4159  0.1552
32726ION     NA48343   2.442   7.896  12.453 -0.2029 -0.1618  0.0726
32727ION     NA48344   6.483   5.583  11.863  0.0381  0.1518  0.1760
32728ION     NA48345   6.688   9.521  10.389  0.4596  0.1748  0.2075
32729ION     NA48346   7.026  11.709   5.641  0.0806 -0.1040  0.4126
32730ION     NA48347   3.872   2.210   5.881  0.1298  0.2269 -0.3502
32731ION     NA48348   0.079   3.601   3.371  0.2224 -0.0496 -0.3106
32732ION     NA48349  11.485  15.715  14.799 -0.1712 -0.0337 -0.3553
32733ION     NA48350   3.846   9.375   2.179 -0.0504  0.0212 -0.1317
32734ION     NA48351  12.461   5.263  10.064  0.3178  0.0631 -0.1319
32735ION     NA48352  15.120   6.549  10.012  0.0452  0.1100  0.1287
32736ION     NA48353   3.286  10.674  10.365  0.0360 -0.0320 -0.0910
32737ION     NA48354   3.759   0.357   4.679  0.3063 -0.0140 -0.0984
32738ION     NA48355   5.334   3.516   5.491 -0.1422 -0.2285 -0.1687
32739ION     NA48356   1.927  17.623  10.831 -0.1746 -0.2429  0.0044
32740ION     NA48357   5.952   7.014  11.235 -0.0794  0.0474 -0.0694
32741ION     NA48358  17.658  17.874  10.537  0.0011  0.3049 -0.0556
32742ION     NA48359   2.523   8.888  10.519  0.2511  0.1812 -0.2555
32743ION     NA48360  16.184  11.476  10.263 -0.0737  0.0441 -0.0023
32744ION     NA48361   1.101  15.631  16.100  0.2017  0.0672 -0.0166
32745ION     NA48362   8.455   4.340  13.223 -0.1825 -0.0281  0.1954
32746ION     NA48363   0.228   3.809   0.107  0.2995 -0.0064  0.2503
32747ION     NA48364   6.984  16.774  10.583 -0.0361  0.1506 -0.1001
32748ION     NA48365  13.481   4.572  10.107  0.0803 -0.0369  0.3523
32749ION     NA48366  14.344   3.144   3.405  0.2087  0.1061  0.2167
32750ION     NA48367   8.995  14.683  10.969 -0.0365  0.0266 -0.0906
32751ION     NA48368   3.823   0.421  10.428  0.1401 -0.0888  0.0427
32752ION     NA48369   3.794  14.205   2.870 -0.3069 -0.0691 -0.2995
32753ION     NA48370   8.219   0.898  15.725 -0.1796  0.0975  0.1719
32754ION     NA48371  10.936  16.450  10.517 -0.1618  0.2323  0.0620
32755ION     NA48372  17.188  16.691  10.469  0.0041 -0.1136 -0.0496
32756ION     NA48373  17.167   5.113   2.428 -0.1240 -0.5445 -0.0954
32757ION     NA48374   6.252   8.248  10.249  0.0724  0.0741  0.0753
32758ION     NA48375   6.298  11.610  10.689  0.3259 -0.2912  0.1126
32759ION     NA48376   4.590  14.696  10.670 -0.0565  0.0016  0.1906
32760ION     NA48377  13.599  10.269   9.933 -0.2601 -0.1561 -0.0350
32761ION     NA48378   8.609   7.084   9.528  0.1103  0.0799  0.3321
32762ION     NA48379  15.909   7.505   9.873 -0.1934 -0.0934 -0.0712
32763ION     NA48380  18.059   7.055  10.427 -0.0723 -0.2340 -0.0277
32764ION     NA48381  15.373   1.828   0.968  0.1855 -0.2494  0.0415
32765ION     NA48382  10.189   6.259   1.950 -0.1635  0.0637 -0.0985
32766ION     NA48383   8.430  12.334  11.850 -0.0890 -0.1392  0.2528
32767ION     NA48384   8.383  18.417   5.858  0.0843  0.1429  0.0269
32768ION     NA48385  16.159   5.741  10.130 -0.2980  0.3724 -0.4293
32769ION     NA48386  12.341   2.980  10.393 -0.1504 -0.1926  0.1502
32770ION     NA48387   4.082  11.214   6.109  0.2036 -0.3523 -0.0481
32771ION     NA48388  10.336   6.340   9.826  0.3428  0.1786  0.0800
32772ION     NA48389  11.668  11.769   5.901  0.1336  0.1358 -0.1631
32773ION     NA48390   8.270   2.412   9.809 -0.2259 -0.2764 -0.1235
32774ION     NA48391  16.093   9.739   5.647 -0.2978 -0.1041 -0.2009
32775ION     NA48392   8.439   6.491   9.686 -0.4346  0.0307  0.0441
32776ION     NA48393   3.384  16.367  11.019  0.1540 -0.2228  0.0877
32777ION     NA48394   0.250  12.569  10.603 -0.2377  0.2204 -0.1347
32778ION     NA48395  16.817  10.873   3.778  0.3189 -0.3500  0.1230
32779ION     NA48396   8.456   2.025   4.110  0.1299  0.0483  0.2860
32780ION     NA48397   9.895   1.973  14.451  0.2443  0.1794 -0.1136
32781ION     NA48398   3.257  11.703  11.179  0.1027  0.2638  0.4524
32782ION     NA48399   4.808   7.108   5.004 -0.0379  0.0664 -0.4831
32783ION     NA48400   6.196  17.466  10.592  0.3404  0.1097 -0.0957
32784ION     NA48401   3.339   4.878  10.209 -0.3429 -0.1885 -0.2798
32785ION     NA48402   2.086   6.082  10.158 -0.2494  0.2213  0.1021
32786ION     NA48403  17.250   3.989  12.445  0.1605  0.1371  0.0409
32787ION     NA48404   7.262  15.068   6.139  0.2578 -0.3562  0.1583
32788ION     NA48405   0.874  10.732  10.067  0.0070  0.2117  0.1370
32789ION     NA48406   8.664  10.989   1.009  0.1185  0.0048 -0.1646
32790ION     NA48407   2.352  11.842  10.781  0.1966 -0.0543  0.3569
32791ION     NA48408   9.669   5.676   9.727  0.1665  0.2033  0.1702
32792ION     NA48409   0.049  14.163   2.635  0.0767 -0.3204  0.2077
32793ION     NA48410   5.550  11.592   1.930  0.0267 -0.1248  0.1078
32794ION     NA48411   7.734  11.700  13.667  0.0674 -0.0653  0.3203
32795ION     NA48412   9.235  12.205  10.499  0.0023  0.2040  0.2288
32796ION     NA48413   4.315   3.111  10.149  0.0907 -0.1239  0.0377
32797ION     NA48414  11.706   6.317   9.779 -0.3217 -0.0155 -0.1055
32798ION     NA48415   0.394  11.594  10.346  0.0276  0.1772  0.1529
32799ION     NA48416   9.505   3.734   9.783 -0.1158 -0.0225 -0.1614
32800ION     NA48417   8.973  16.474   3.279  0.0236  0.2512 -0.3141
32801ION     NA48418  14.845  11.958  12.815 -0.3164  0.2744  0.0907
32802ION     NA48419  13.956   2.412   3.001  0.0088  0.2576  0.0611
32803ION     NA48420   4.399  18.249   5.809 -0.0072 -0.0969  0.2213
32804ION     NA48421   3.469   1.279  10.532 -0.1343 -0.4505  0.5656
32805ION     NA48422   7.739   3.344   4.956  0.2038 -0.1317  0.1039
32806ION     NA48423  15.496   0.947  10.458 -0.0212 -0.1432 -0.1102
32807ION     NA48424   7.610   9.542   5.827 -0.0788 -0.3517 -0.0557
32808ION     NA48425  10.702  15.827  16.005  0.1237  0.0193  0.4172
32809ION     NA48426  11.811   6.205  13.493  0.1551  0.0855 -0.2842
32810ION     NA48427  17.950   9.602  10.209 -0.0395 -0.1795 -0.2974
32811ION     NA48428  11.853   0.419  16.133  0.0630 -0.0523 -0.2200
32812ION     NA48429   0.853   2.167  10.722 -0.1627  0.0466 -0.0434
32813ION     NA48430   0.879   8.182  10.128 -0.0742 -0.0316  0.0620
32814ION     NA48431  11.055  16.113   3.637 -0.2722 -0.0430  0.0790
32815ION     NA48432   1.794  17.510  12.222 -0.0677 -0.0510 -0.0870
32816ION     NA48433  14.585  10.454   5.828  0.3196  0.1856  0.0988
32817ION     NA48434  13.836   0.325  10.200  0.2557 -0.1362 -0.1611
32818ION     NA48435  14.135   2.967   5.800 -0.1230  0.1654  0.4427
32819ION     NA48436   3.899  12.939  10.836 -0.4156 -0.1770 -0.0125
32820ION     NA48437   0.817   7.099  14.950 -0.2804 -0.0282  0.1977
32821ION     NA48438  11.103   6.967  15.639 -0.1016  0.3239  0.1858
32822ION     NA48439  15.366  13.975  10.339  0.1678  0.0862  0.1358
32823ION     NA48440  10.391   8.266  10.180 -0.1381  0.0895  0.2178
32824ION     NA48441  14.631  18.028  10.235 -0.2006  0.2178  0.0310
32825ION     NA48442   2.485   2.806  10.298  0.1421  0.4314  0.3286
32826ION     NA48443  15.248   4.388  11.542  0.1623 -0.5082  0.0315
32827ION     NA48444   0.162  18.415  10.730 -0.0143  0.2398  0.2133
32828ION     NA48445   0.842  15.446  10.966  0.1293 -0.3519 -0.0836
32829ION     NA48446   0.291   2.998   6.059  0.0384 -0.3341  0.1878
32830ION     NA48447   6.207  18.251  10.600 -0.0772  0.2811 -0.1596
32831ION     NA48448  15.207  14.697   3.285  0.2373  0.2028  0.2889
32832ION     NA48449   7.767   4.482   9.608  0.3471 -0.1023  0.2054
32833ION     NA48450  13.538  13.261   5.691 -0.1230 -0.0499  0.0897
32834ION     NA48451  11.060   6.843   9.772 -0.2333 -0.2093  0.0872
32835ION     NA48452   8.313  15.377   4.974 -0.2529  0.0909  0.2586
32836ION     NA48453  11.970  17.580   5.875  0.1362 -0.2259 -0.0420
32837ION     NA48454  13.809  16.167   6.219  0.0933 -0.1036  0.0658
32838ION     NA48455   0.109   1.230   3.910 -0.3270 -0.1697 -0.0068
32839ION     NA48456   3.841   5.640   9.829  0.0551 -0.1941 -0.0429
32840ION     NA48457   9.629  13.245   1.214 -0.0953  0.0469 -0.0763
32841ION     NA48458   5.964   7.850  10.066 -0.2268  0.2938 -0.2380
32842ION     NA48459   2.602   1.697  10.575 -0.1613 -0.1744 -0.0432
32843ION     NA48460   8.822   8.456  14.863  0.1138 -0.0365  0.1744
32844ION     NA48461  16.789   7.259   9.982  0.2214  0.1203 -0.1546
32845ION     NA48462   3.786  12.479  11.493  0.3463  0.0457 -0.0536
32846ION     NA48463   1.624   5.610   2.757  0.0046 -0.2618 -0.0645
32847ION     NA48464  16.535   2.454   3.243 -0.1955  0.0431 -0.0446
32848ION     NA48465  17.723  10.861   4.727  0.3727  0.0086  0.2328
32849ION     NA48466   3.084   5.826   9.925 -0.0509 -0.0249  0.1918
32850ION     NA48467   7.820  12.617   1.493 -0.1606 -0.0922  0.2786
32851ION     NA48468   1.447  15.573  10.751  0.1036  0.0431  0.2431
32852ION     NA48469   5.522   7.106   9.771 -0.2628 -0.0542  0.1228
32853ION     NA48470  16.574  12.040   5.818 -0.2107  0.3092 -0.1311
32854ION     NA48471  10.323  11.951  10.477  0.2029  0.1280  0.2476
32855ION     NA48472   8.085  12.417   3.104  0.0485 -0.1611 -0.1803
32856ION     NA48473  10.419  15.047   5.848  0.0485 -0.0506 -0.0464
32857ION     NA48474   4.741  18.428  10.403  0.0020  0.1390  0.0313
32858ION     NA48475   7.159  11.051  10.374 -0.1278  0.2827 -0.2999
32859ION     NA48476   0.811   0.647  10.877 -0.1539  0.0756  0.0712
32860ION     NA48477   9.826  11.323  10.845  0.0390 -0.2236 -0.1858
32861ION     NA48478   4.182   0.119   6.305 -0.0513  0.3166 -0.0688
32862ION     NA48479  17.575  11.575  10.420 -0.0551 -0.3038  0.1047
32863ION     NA48480   6.225   5.655  14.063 -0.0265 -0.1482 -0.0609
32864ION     NA48481  15.019   7.581   9.913  0.2876 -0.2580 -0.1295
32865ION     NA48482  16.531   8.272   9.951  0.1373  0.1377 -0.0942
32866ION     NA48483  11.174  14.763   5.438  0.0456 -0.0090 -0.0663
32867ION     NA48484   7.123   5.212   9.921 -0.0404  0.0406  0.0308
32868ION     NA48485  13.019   5.878  15.569 -0.0695 -0.0529  0.0195
32869ION     NA48486  15.491  16.642   5.954 -0.0166  0.3423 -0.0415
32870ION     NA48487   4.243   9.028  10.035 -0.0052  0.3392 -0.0631
32871ION     NA48488  15.350   0.028  10.174  0.0002  0.1080  0.0316
32872ION     NA48489   5.458   6.810  14.961  0.0278 -0.2499 -0.0201
32873ION     NA48490  11.914   1.338  10.303 -0.0167  0.1770  0.2859
32874ION     NA48491  17.569  15.860  11.019  0.0268  0.2708 -0.0745
32875ION     NA48492  14.700   0.639   5.889  0.0439  0.1882  0.0782
32876ION     NA48493  14.950   7.275  13.973 -0.0068 -0.0410 -0.0758
32877ION     NA48494  18.454  13.594  10.420  0.0728 -0.0369  0.3242
32878ION     NA48495   0.860  12.354  12.999 -0.1346  0.0482  0.1070
32879ION     NA48496  16.421   4.276  11.913 -0.0389  0.0598 -0.0436
32880ION     NA48497   2.242   9.754  10.265 -0.2535  0.0914 -0.0506
32881ION     NA48498   6.430  14.103   0.660  0.1252 -0.1858  0.0556
32882ION     NA48499   8.291  10.001  15.604  0.0548  0.0494 -0.1833
32883ION     NA48500  13.979   1.240  10.434 -0.1861 -0.2979  0.1263
32884ION     NA48501   6.758   4.237   9.749  0.0413 -0.2297  0.0022
32885ION     NA48502   0.498   6.950  11.703  0.1116 -0.2039  0.0397
32886ION     NA48503   3.694  16.861   6.049 -0.2214 -0.2603 -0.1933
32887ION     NA48504   8.776  13.900  11.056 -0.0774  0.2080 -0.3649
32888ION     NA48505  17.033  17.202  14.114  0.0655 -0.4039 -0.0791
32889ION     NA48506  12.296  10.599  12.765  0.0577 -0.1216 -0.4089
32890ION     NA48507  10.922   3.501   5.475 -0.0900 -0.1654  0.1562
32891ION     NA48508   5.152   7.983   9.854  0.0395 -0.1876  0.3433
32892ION     NA48509   8.797   4.622   9.664 -0.1197 -0.0731  0.0452
32893ION     NA48510  17.553  11.086   2.179 -0.1138 -0.1184  0.1827
32894ION     NA48511   8.535   6.584   5.614  0.1128  0.0914  0.0048
32895ION     NA48512   5.118   4.527  10.514  0.0896 -0.2815  0.0171
32896ION     NA48513   1.358   9.972  10.252  0.0862  0.1358  0.0614
32897ION     NA48514   0.866  13.192  10.647  0.2221  0.1302 -0.3061
32898ION     NA48515  10.531  11.309   6.056 -0.1049  0.1125 -0.2633
32899ION     NA48516  10.401  11.265   2.460 -0.0702  0.0616  0.1391
32900ION     NA48517  12.700  11.135  10.749 -0.4524 -0.1758  0.0131
32901ION     NA48518   2.242   2.201   4.255  0.1653 -0.1361 -0.0309
32902ION     NA48519  12.369   7.227   9.729 -0.4705  0.1495 -0.1867
32903ION     NA48520  17.954   7.958  14.234 -0.2079  0.1453 -0.2405
32904ION     NA48521  15.455   6.771   5.686 -0.1560  0.2013 -0.1367
32905ION     NA48522  13.833   0.648  15.096  0.1951  0.4879 -0.1275
32906ION     NA48523   5.794   9.940  10.280  0.2471  0.3975 -0.0141
32907ION     NA48524   1.533   4.091  12.504 -0.1414  0.3395  0.0396
32908ION     NA48525  11.657   8.133  11.969  0.1948 -0.0703 -0.1547
32909ION     NA48526   3.603   7.677  10.309  0.1793 -0.1914  0.1084
32910ION     NA48527   6.818  14.531   6.388 -0.2834  0.2359  0.0040
32911ION     NA48528   8.375   1.322   5.563 -0.0810 -0.3895  0.0546
32912ION     NA48529  16.478   9.201   9.948  0.1795  0.0377 -0.3186
32913ION     NA48530  10.120  16.356  10.713 -0.0431 -0.0729 -0.1722
32914ION     NA48531  16.439  17.242  10.351 -0.2489  0.3220  0.0279
32915ION     NA48532   2.319   7.402   1.224 -0.1379 -0.0437 -0.1766
32916ION     NA48533   0.496  17.584   4.795 -0.0870 -0.1174  0.1850
32917ION     NA48534  16.968   5.220  10.233 -0.0839 -0.0459  0.1237
32918ION     NA48535   0.353   0.284   6.044  0.0324 -0.3698 -0.3340
32919ION     NA48536   4.480   6.307   9.855  0.0850 -0.2685  0.3396
32920ION     NA48537  16.655  15.182  10.500  0.2980 -0.0523 -0.0762
32921ION     NA48538  17.150  12.662  10.430 -0.0864 -0.0692  0.2204
32922ION     NA48539   3.346   4.060  14.347 -0.1485 -0.3419  0.1661
32923ION     NA48540   8.425   2.316   2.923 -0.1618 -0.1639  0.0651
32924ION     NA48541   1.421   3.505  13.320  0.0392 -0.0701  0.0523
32925ION     NA48542   0.950  15.232   3.719  0.0938 -0.2841 -0.0217
32926ION     NA48543  18.376   3.498  11.566  0.1013  0.2303  0.2776
32927ION     NA48544  14.045   5.513   4.785 -0.1819 -0.2453  0.0226
32928ION     NA48545   8.376   7.236   4.930  0.1259 -0.3011 -0.2337
32929ION     NA48546  14.753   2.671  10.161  0.1662 -0.1428 -0.2265
32930ION     NA48547  13.226  12.928  10.300 -0.1531  0.0043  0.2257
32931ION     NA48548  10.479   2.836   9.951 -0.0358 -0.2047  0.2039
32932ION     NA48549   7.622  13.429  10.944  0.0775  0.1101  0.1606
32933ION     NA48550   5.955  13.365  12.865 -0.0835 -0.3602 -0.0322
32934ION     NA48551   0.923   7.215  10.216  0.0245  0.0151 -0.2841
32935ION     NA48552  12.459  17.368  10.386  0.0616 -0.1047 -0.2903
32936ION     NA48553   2.178  15.404   2.885 -0.1642 -0.2956  0.1404
32937ION     NA48554   0.747   9.213  10.236 -0.0613 -0.2030  0.3075
32938ION     NA48555   4.987  11.265   5.916  0.0083 -0.0932  0.1998
32939ION     NA48556  11.371   8.921  11.270  0.3263  0.4548 -0.1282
32940ION     NA48557  11.349   9.512   5.545 -0.0966  0.1524  0.0796
32941ION     NA48558   5.394  17.621  10.574 -0.2438  0.0111 -0.1765
32942ION     NA48559  16.120  15.126   5.918 -0.1126  0.1361  0.2590
32943ION     NA48560   2.494  11.882   6.057  0.0026  0.2406  0.2048
32944ION     NA48561  12.187  13.865   4.022 -0.0756  0.1627  0.2046
32945ION     NA48562   0.281  12.542  15.583 -0.1820 -0.1201  0.1762
32946ION     NA48563   3.119  14.103  10.664  0.0164  0.1514 -0.1632
32947ION     NA48564  15.213   3.051  11.367 -0.1189 -0.1294 -0.1549
32948ION     NA48565  14.665   7.170   5.556  0.1696 -0.4337  0.2226
32949ION     NA48566   3.338  14.492  11.013 -0.0012  0.0315 -0.1144
32950ION     NA48567  12.650  12.910  13.489  0.3105  0.2644 -0.0860
32951ION     NA48568  15.858  14.035   4.621  0.2906  0.0120 -0.1210
32952ION     NA48569   8.823   5.744  11.753  0.0499 -0.1867 -0.0458
32953ION     NA48570  15.820  12.553   5.865  0.2064  0.0166  0.1439
32954ION     NA48571  18.014  10.912  10.272  0.1224 -0.1124  0.1448
32955ION     NA48572  13.844  16.077   3.606 -0.4620  0.2684  0.1617
32956ION     NA48573  18.046   6.509  10.318  0.1508 -0.0303  0.1170
32957ION     NA48574   2.123   3.604  13.771 -0.0714  0.2158  0.0482
32958ION     NA48575  11.909  13.872   6.078  0.0743  0.5979 -0.2349
32959ION     NA48576   3.661   1.781  10.334  0.0993  0.0113  0.1959
32960ION     NA48577  10.074   4.879   1.671  0.2957 -0.0223 -0.1544
32961ION     NA48578   7.173  11.943  10.669 -0.0880 -0.1521 -0.0062
32962ION     NA48579   9.999   0.744   5.841  0.1031 -0.2960 -0.0124
32963ION     NA48580  12.496   3.785   9.900 -0.1735  0.0320  0.1465
32964ION     NA48581  10.998   2.774  10.065  0.0975 -0.1327 -0.0381
32965ION     NA48582  13.939   7.433  10.132 -0.0680  0.3387 -0.1279
32966ION     NA48583  15.467  14.987   5.518  0.3103  0.2509  0.1504
32967ION     NA48584   1.788   8.341   5.717 -0.2373  0.0454 -0.4364
32968ION     NA48585  13.798   0.383  15.795  0.0611 -0.0059  0.2808
32969ION     NA48586  16.530  16.103  10.407  0.0774 -0.5164 -0.0637
32970ION     NA48587   6.934   6.189   4.601  0.1099 -0.2580 -0.1233
32971ION     NA48588  14.112  16.965   5.954  0.2618 -0.0588 -0.2261
32972ION     NA48589   0.455   8.762  15.259 -0.1318 -0.1068 -0.0400
32973ION     NA48590   5.457   6.152   9.792 -0.0112 -0.0949 -0.1208
32974ION     NA48591  13.405   5.892  10.450 -0.0207  0.0316 -0.1040
32975ION     NA48592   7.634   9.417   9.953  0.1929  0.2200 -0.2204
32976ION     NA48593  16.922   2.719   5.860  0.0090 -0.1085  0.1602
32977ION     NA48594   4.394  13.662  15.456 -0.2798 -0.4121  0.1556
32978ION     NA48595   7.263  15.167  10.799 -0.0635 -0.2068  0.1124
32979ION     NA48596   9.879   9.280   4.302  0.0616 -0.1301  0.3112
32980ION     NA48597  10.682  16.059   5.830  0.0146 -0.0308 -0.1460
32981ION     NA48598   1.591   0.151  10.991 -0.0033  0.0277  0.0770
32982ION     NA48599  18.081   6.182  15.912 -0.1330 -0.1332  0.1952
32983ION     NA48600  14.128   2.980   9.956  0.0298 -0.1201  0.0578
32984ION     NA48601   9.109   4.349  15.180 -0.0409 -0.0113  0.2121
32985ION     NA48602   6.310   6.610   5.258  0.1149  0.1814 -0.2225
32986ION     NA48603   0.166   5.606   5.706  0.0927  0.0764  0.1301
32987ION     NA48604  12.089  12.199   6.251  0.1988  0.1585 -0.1958
32988ION     NA48605   0.199   9.841   4.234  0.0731  0.1474  0.0521
32989ION     NA48606   4.315  12.197  13.352  0.4977 -0.4159  0.3400
32990ION     NA48607   2.100   0.893  10.681  0.0270  0.2468 -0.0950
32991ION     NA48608   1.934   6.980  10.579 -0.0701  0.0979  0.0943
32992ION     NA48609  10.193   4.952   9.589  0.1165  0.2166 -0.2221
32993ION     NA48610   9.347   6.290   4.551 -0.1845 -0.0802 -0.0468
32994ION     NA48611   5.528  10.429   3.799  0.2418  0.2398  0.1478
32995ION     NA48612  16.627  14.162  10.669  0.0942 -0.1547  0.0787
32996ION     NA48613   3.671   1.634   0.178 -0.2078 -0.1667  0.1013
32997ION     NA48614  11.780  14.070   4.887  0.1492  0.1091  0.2292
32998ION     NA48615   4.703   0.485  10.350  0.0047  0.0220 -0.3622
32999ION     NA48616  12.546  14.823  10.286 -0.2406 -0.3811  0.0993
33000ION     NA48617   5.058  13.803  10.776 -0.3025  0.0477 -0.0472
33001ION     NA48618   6.112   2.526   0.468  0.0265  0.0479  0.0092
33002ION     NA48619   8.342   9.702   3.616  0.2082 -0.2040 -0.1335
33003ION     NA48620   5.432   5.614   0.678  0.0762 -0.0279 -0.0269
33004ION     NA48621   4.425   1.448  10.268 -0.2486  0.3467  0.0410
33005ION     NA48622   1.698   1.505   4.780  0.2663  0.0577 -0.1800
33006ION     NA48623   7.631   6.407   5.688  0.0384 -0.2421  0.0901
33007ION     NA48624   9.853   0.154  10.338  0.0335 -0.0332 -0.1705
33008ION     NA48625  15.668  10.706  10.229  0.1306  0.2424  0.0449
33009ION     NA48626  10.779   2.722  10.502  0.1354 -0.2516 -0.0157
33010ION     NA48627  14.167  15.804  11.981  0.0863  0.0363  0.0591
33011ION     NA48628   6.043   2.449  10.207 -0.0720  0.1171 -0.0268
33012ION     NA48629  11.678  15.631   6.224  0.2059 -0.2776 -0.0509
33013ION     NA48630   3.636   2.662  10.288  0.0480 -0.1746  0.0225
33014ION     NA48631  13.860  17.828   4.869 -0.4901 -0.1754 -0.0573
33015ION     NA48632  10.957  13.532  10.566  0.0460 -0.1077  0.1358
33016ION     NA48633   0.702  14.441  10.805  0.0313  0.0813 -0.0414
33017ION     NA48634  15.838   2.731  10.296 -0.2097  0.1480 -0.1221
33018ION     NA48635   6.982  17.147   1.149  0.1481  0.0815  0.1039
33019ION     NA48636   3.121   4.954  12.389 -0.2019 -0.0610  0.1516
33020ION     NA48637   5.361   1.316   0.863  0.0738 -0.3499  0.1704
33021ION     NA48638   9.258   4.816   9.548  0.0639  0.2116  0.1714
33022ION     NA48639   6.524   3.068  10.195  0.0543 -0.3163 -0.3703
33023ION     NA48640   2.789   3.294  10.114  0.1313 -0.1561  0.2011
33024ION     NA48641   9.215  15.663  10.686 -0.1636 -0.2372 -0.3544
33025ION     NA48642   8.121   3.777  10.476 -0.1444 -0.2001  0.0550
33026ION     NA48643  16.942   0.560  10.616  0.0599  0.3444  0.0076
33027ION     NA48644  11.611   9.469  10.056 -0.2296  0.1767 -0.1288
33028ION     NA48645  12.315   7.356   5.222 -0.0442 -0.2423  0.1797
33029ION     NA48646   9.028   1.572  10.071 -0.1249 -0.0521  0.0009
33030ION     NA48647   2.772   8.176  10.019 -0.0648  0.2426  0.0594
33031ION     NA48648  14.775  12.301  10.222  0.1782  0.1150 -0.2322
33032ION     NA48649   7.263   5.289  12.301 -0.0064 -0.3332  0.1513
33033ION     NA48650   9.327   8.869  10.627 -0.0930  0.0360  0.1583
33034ION     NA48651   7.070  10.158   5.772 -0.1031  0.1362  0.0289
33035ION     NA48652  13.590  14.478   3.087 -0.1982  0.1123 -0.1926
33036ION     NA48653  12.330  16.503   1.713  0.2421 -0.2517  0.0609
33037ION     NA48654   3.071   1.466  11.585  0.1039 -0.0760 -0.2106
33038ION     NA48655   2.028  14.655  10.891  0.0334 -0.0473 -0.0669
33039ION     NA48656   5.521   0.713  10.269  0.5116  0.3786  0.4007
33040ION     NA48657   4.617  14.605   0.508 -0.3156  0.3756 -0.0136
33041ION     NA48658  17.457   8.585  10.178 -0.1068 -0.1664 -0.2249
33042ION     NA48659  15.139  15.210  10.305 -0.0762  0.3332  0.2133
33043ION     NA48660   0.822  12.098  14.408 -0.0837 -0.0346  0.0275
33044ION     NA48661  14.631   8.348  10.130 -0.1596 -0.3626  0.1042
33045ION     NA48662   4.491  14.291   0.049 -0.0583  0.0554 -0.0857
33046ION     NA48663   6.901   8.421   1.179  0.0470  0.1714 -0.1295
33047ION     NA48664  18.207  16.623   5.944  0.1897  0.0592  0.1589
33048ION     NA48665   3.470   6.572  14.815  0.1030  0.1491  0.1161
33049ION     NA48666  12.324   1.993  10.421 -0.1730  0.0257 -0.2473
33050ION     NA48667  16.631   0.230  10.263  0.2630  0.0326  0.3031
33051ION     NA48668  12.320   0.640  10.465  0.1600 -0.0303  0.0048
33052ION     NA48669  18.234  14.634  10.507  0.3241 -0.2380  0.1958
33053ION     NA48670   4.336   4.408   9.858 -0.4177 -0.1294  0.1106
33054ION     NA48671   1.767   6.814  14.709  0.0369 -0.0371 -0.0196
33055ION     NA48672   0.484   6.768  10.183  0.2491 -0.1235 -0.6253
33056ION     NA48673   2.260   4.185  10.171 -0.1345 -0.2438 -0.1411
33057ION     NA48674   6.221  15.474  10.878  0.0725  0.1434 -0.3852
33058ION     NA48675   5.002   4.121   4.904  0.1299 -0.0860  0.1367
33059ION     NA48676  16.617  10.210   9.920 -0.0623  0.1552  0.1165
33060ION     NA48677   7.607   0.533   2.289  0.1339 -0.1552  0.0041
33061ION     NA48678   0.451   6.807   2.214 -0.1818  0.0224 -0.0723
33062ION     NA48679   3.350   1.689  12.573 -0.0441  0.1943  0.1316
33063ION     NA48680   5.212  17.412   5.856  0.0203 -0.1724  0.1178
33064ION     NA48681  13.835  16.364   9.991  0.1327  0.2487  0.2017
33065ION     NA48682  18.290   7.981  10.433  0.2763 -0.0710 -0.0536
33066ION     NA48683   7.156   1.189  10.329  0.0659  0.1147  0.1276
33067ION     NA48684   1.179  12.599  10.920 -0.1274  0.1135  0.2809
33068ION     NA48685   3.563   6.901   1.398 -0.1693  0.1369 -0.1377
33069ION     NA48686   5.913  15.712   6.369  0.1483 -0.0767  0.8187
33070ION     NA48687   6.258   9.346  14.708 -0.2991  0.1072  0.2092
33071ION     NA48688  15.550  13.690  12.318  0.2719 -0.3507  0.1424
33072ION     NA48689   8.768  16.464  10.842  0.3673 -0.1474  0.2088
33073ION     NA48690   2.918   0.815  10.510  0.2478 -0.0067  0.0444
33074ION     NA48691   6.322   9.249  13.476 -0.4112  0.0000 -0.1071
33075ION     NA48692  12.993  15.719   1.414  0.0914  0.0608 -0.1279
33076ION     NA48693  13.516   8.786   2.595 -0.0263  0.1499  0.3942
33077ION     NA48694  15.595  16.409  10.280 -0.0742 -0.2668 -0.0792
33078ION     NA48695  10.170  15.230  15.556 -0.0004 -0.0208 -0.0243
33079ION     NA48696  17.400   8.828  14.585 -0.2832 -0.1336 -0.1894
33080ION     NA48697   4.375  16.311  10.863  0.2314 -0.2878 -0.3979
33081ION     NA48698   7.485  12.359  10.904 -0.0159 -0.0037  0.0246
33082ION     NA48699  16.993   2.254  14.772 -0.0562  0.0686 -0.3848
33083ION     NA48700   4.451  11.691  10.788  0.1243 -0.0150  0.2637
33084ION     NA48701  18.411  11.736  10.448 -0.1212  0.5286  0.1650
33085ION     NA48702  14.161  18.261   0.036 -0.0017 -0.0820  0.0504
33086ION     NA48703  17.866   0.535   5.794 -0.2343 -0.0140  0.1737
33087ION     NA48704  18.226  15.129  10.558  0.1442  0.1306 -0.0058
33088ION     NA48705  11.528   4.365   5.695 -0.0396  0.0878 -0.1576
33089ION     NA48706   3.251   4.157   9.802  0.3161  0.1482  0.3228
33090ION     NA48707  12.667  13.877  10.298  0.2362 -0.0591  0.2174
33091ION     NA48708   7.730   1.835   9.936 -0.2437  0.1470  0.2765
33092ION     NA48709   8.303  17.573  10.353 -0.1345 -0.0879  0.0838
33093ION     NA48710   0.341  10.082  10.200 -0.1714 -0.0068  0.0416
33094ION     NA48711  15.794  15.607  10.314 -0.3843  0.0155  0.1562
33095ION     NA48712  15.433   0.985  12.413 -0.0452  0.2599  0.0946
33096ION     NA48713   9.057  11.981   2.200  0.3331  0.0800 -0.1075
33097ION     NA48714  17.906   0.440   3.345  0.2319  0.1869 -0.1031
33098ION     NA48715  11.905  16.044  10.346  0.3328 -0.0288  0.4223
33099ION     NA48716  17.856   5.572  12.650 -0.0493 -0.2324 -0.1850
33100ION     NA48717   6.732   4.962  10.755  0.1627  0.2637  0.0416
33101ION     NA48718   8.297   0.062  10.310  0.1090  0.1313 -0.1129
33102ION     NA48719   5.093   9.607  10.175  0.0606  0.1235 -0.2029
33103ION     NA48720   8.171  11.057   2.254  0.0177  0.1075  0.0131
33104ION     NA48721   7.909   7.814   9.721  0.1761  0.0242 -0.0858
33105ION     NA48722   0.506  17.920  10.788  0.0457  0.1287  0.0854
33106ION     NA48723  16.172  16.789  10.207  0.0122  0.2257 -0.0905
33107ION     NA48724  16.160  11.404   5.743 -0.2051 -0.1536 -0.1197
33108ION     NA48725  15.162   1.834  10.372 -0.0458 -0.2720 -0.1558
33109ION     NA48726  18.297   2.094  13.946  0.1051 -0.0143 -0.3397
33110ION     NA48727  10.907   8.826   9.974 -0.0124  0.0478  0.0971
33111ION     NA48728   7.918   6.736  13.621 -0.0206 -0.4523  0.4207
33112ION     NA48729   3.485  17.991  10.697 -0.3429  0.1272 -0.1059
33113ION     NA48730  12.870   7.296   4.371  0.0530  0.0369 -0.0191
33114ION     NA48731  10.595   4.900  13.725  0.0949  0.0719  0.0048
33115ION     NA48732   8.885   0.144   5.121  0.1569  0.3188  0.0974
33116ION     NA48733  10.946   7.479  10.981 -0.1595  0.2856 -0.2045
33117ION     NA48734   9.923   1.965  10.163  0.1125 -0.6480 -0.2977
33118ION     NA48735  18.399  16.227  12.110  0.4483  0.1242 -0.1824
33119ION     NA48736   5.279   2.139   5.409  0.0241 -0.0637 -0.0235
33120ION     NA48737   7.770  10.226  10.169  0.0202  0.0643 -0.0110
33121ION     NA48738  14.324   2.103  10.398 -0.0209 -0.0544  0.2095
33122ION     NA48739   0.262  17.022  11.008 -0.2768  0.1635  0.3024
33123ION     NA48740  12.040   6.165   5.285  0.0772 -0.1984  0.0648
33124ION     NA48741   4.772   5.325   9.792  0.0402  0.2956 -0.0404
33125ION     NA48742   2.637  17.630  10.926 -0.1078  0.0517  0.0034
33126ION     NA48743  18.171  16.229   3.152  0.1194 -0.0585  0.0108
33127ION     NA48744   2.335  10.359  10.485 -0.1166 -0.1227  0.1683
33128ION     NA48745   0.750   4.987  14.966 -0.1079  0.1436 -0.2297
33129ION     NA48746  12.916   0.014  10.384 -0.1539  0.0937 -0.0797
33130ION     NA48747   0.944  10.844  10.583 -0.1174 -0.0949  0.0866
33131ION     NA48748   4.022  13.969  10.749  0.0919  0.3691 -0.0415
33132ION     NA48749  13.298   2.544   5.774 -0.1588 -0.2129  0.0308
33133ION     NA48750   4.764  17.318  10.989 -0.0676  0.2783 -0.0359
33134ION     NA48751  15.167  12.008   5.678  0.3404 -0.2009 -0.0015
33135ION     NA48752  14.701  16.365  10.165  0.0804 -0.0930  0.2298
33136ION     NA48753  16.166  12.918   1.091 -0.0911 -0.2279  0.1220
33137ION     NA48754  16.572   1.403  10.546 -0.3160  0.2124 -0.1247
33138ION     NA48755  13.720   8.381  10.389 -0.1150 -0.2366  0.1749
33139ION     NA48756  12.732   8.087  10.042  0.1647 -0.4166 -0.5245
33140ION     NA48757   8.145   7.756  10.174 -0.0293  0.2493 -0.2062
33141ION     NA48758   0.839   1.509   6.021 -0.3912  0.2647 -0.0620
33142ION     NA48759   3.371  17.217  10.977  0.1827  0.0518  0.1226
33143ION     NA48760  10.283  16.308  12.598  0.1459  0.0196  0.0859
33144ION     NA48761   7.629   3.748   9.884  0.1246  0.4029  0.7248
33145ION     NA48762  12.451  10.649  10.148 -0.0437  0.1156  0.0289
33146ION     NA48763   8.263  11.079  10.387 -0.3158 -0.2146 -0.1578
33147ION     NA48764  12.420   0.877   5.689 -0.0123  0.1254 -0.3304
33148ION     NA48765   7.380   0.243  10.254  0.1691 -0.3371  0.0638
33149ION     NA48766   7.840  17.015  10.581 -0.1289  0.1245 -0.0480
33150ION     NA48767   8.075   4.869   9.717 -0.1873  0.0550 -0.0194
33151ION     NA48768   9.154   7.281   5.519  0.1058  0.0779 -0.1548
33152ION     NA48769  11.919  14.079   0.527 -0.0052 -0.5723 -0.1170
33153ION     NA48770   5.165   8.623   9.908 -0.0660  0.0738  0.0953
33154ION     NA48771   9.943   1.151  10.027  0.4611  0.0699 -0.2625
33155ION     NA48772  13.363   5.564  10.000  0.1312  0.0106 -0.2728
33156ION     NA48773  17.639   7.959   5.390  0.3479  0.0939  0.1482
33157ION     NA48774   2.714  12.576  12.720 -0.0359 -0.0601 -0.0529
33158ION     NA48775  11.562  10.362  10.233  0.1308 -0.0178 -0.0500
33159ION     NA48776   4.924  18.199  12.610 -0.0801  0.0534  0.2822
33160ION     NA48777   0.086   4.821  10.366 -0.2298 -0.1863  0.0486
33161ION     NA48778  15.639   4.835  13.025  0.2681  0.3300  0.1155
33162ION     NA48779  15.426   3.021  16.030 -0.1635  0.2091  0.2573
33163ION     NA48780  17.427  13.439  10.639 -0.1118 -0.0700 -0.1140
33164ION     NA48781  10.931   1.197   1.280 -0.1754 -0.0187  0.0601
33165ION     NA48782   9.033   7.515  12.873 -0.0124 -0.2441 -0.1806
33166ION     NA48783   5.431  11.464  10.543 -0.1814  0.2692  0.0131
33167ION     NA48784  18.284   0.748  10.648 -0.2950  0.2853 -0.1571
33168ION     NA48785   4.723   4.095   4.336 -0.0517  0.1110  0.2226
33169ION     NA48786   4.796   4.145   9.737 -0.0000 -0.2962 -0.0560
33170ION     NA48787  13.118  16.959  10.578  0.0135  0.1372  0.1907
33171ION     NA48788   0.009   1.948  10.563  0.0916  0.0953 -0.1515
33172ION     NA48789  10.216  10.423  10.294  0.1006  0.1420  0.4521
33173ION     NA48790  11.483   2.787  10.175  0.0182  0.1344 -0.0441
33174ION     NA48791   1.177  16.384  11.058  0.1087 -0.0481 -0.2625
33175ION     NA48792   9.195   9.438   5.612 -0.0319 -0.4951  0.0106
33176ION     NA48793  11.718  14.758  10.650  0.0282 -0.1114  0.2931
33177ION     NA48794  10.597   1.899  10.142  0.0075  0.0061 -0.0549
33178ION     NA48795   4.595  11.016  10.694  0.1005 -0.1962 -0.0223
33179ION     NA48796   6.474   7.352   9.720  0.3968 -0.2247  0.3342
33180ION     NA48797  10.186   8.227   5.783 -0.1832 -0.1830  0.3513
33181ION     NA48798  12.469   8.813   9.802 -0.2562 -0.2081 -0.3731
33182ION     NA48799  15.094   4.260  10.163 -0.0069  0.0860 -0.1461
33183ION     NA48800  15.255   5.074  11.024  0.0409 -0.0922  0.0031
33184ION     NA48801  14.200  17.158  10.319 -0.2293  0.1274  0.0006
33185ION     NA48802  17.936  16.976  10.597  0.1408  0.0627  0.0862
33186ION     NA48803   1.889  16.786   6.231  0.1908 -0.0714 -0.1763
33187ION     NA48804  16.195   0.844   5.452 -0.0846  0.0833 -0.2239
33188ION     NA48805  10.415   5.381  15.175 -0.0878 -0.0178  0.0372
33189ION     NA48806   0.630   8.559  16.105  0.2296 -0.1016  0.2872
33190ION     NA48807   1.479  15.907  13.690 -0.0017  0.2849  0.1868
33191ION     NA48808  16.646  11.579  13.328 -0.0679 -0.0479 -0.1982
33192ION     NA48809   3.076   9.866  10.162  0.0934 -0.0904 -0.1062
33193ION     NA48810   1.285   1.444  10.872 -0.3025 -0.1023 -0.1316
33194ION     NA48811   4.509  16.798   0.749 -0.0060  0.0284 -0.0219
33195ION     NA48812   9.413  11.328   4.952 -0.1019  0.1481 -0.1387
33196ION     NA48813  16.565  12.932   6.093 -0.0196 -0.1314 -0.2151
33197ION     NA48814   2.469  18.446  10.753  0.2756 -0.2707  0.2545
33198ION     NA48815   2.903   5.017   1.207  0.1709  0.1549 -0.0385
33199ION     NA48816  13.193   6.966   9.748  0.3537 -0.1138 -0.0987
33200ION     NA48817  16.661  11.775  10.230 -0.0565 -0.4881 -0.2281
33201ION     NA48818   0.875  12.975   6.445  0.0495 -0.1678  0.2853
33202ION     NA48819  12.634   6.215  10.114 -0.1962  0.0793  0.2102
33203ION     NA48820  15.281  14.908  12.222  0.1857  0.0969  0.0952
33204ION     NA48821  18.269   6.506  13.697  0.1982 -0.3335 -0.1124
33205ION     NA48822  11.969  18.225  10.597  0.1657 -0.2107  0.1873
33206ION     NA48823  16.021  18.048   1.020  0.1313  0.0448  0.2098
33207ION     NA48824  11.059  12.331  10.269 -0.1810  0.0013  0.1676
33208ION     NA48825   5.510  12.507  10.979 -0.1024  0.0931  0.5122
33209ION     NA48826   3.277   6.377  10.062  0.0069 -0.2286 -0.1564
33210ION     NA48827  18.282   9.212  10.137  0.1443 -0.2571 -0.0334
33211ION     NA48828   1.583   5.356  10.034  0.2396 -0.0426 -0.0555
33212ION     NA48829   9.401   3.586   2.315  0.2280  0.1357  0.1986
33213ION     NA48830   0.033  16.135  10.642 -0.1300  0.1718  0.2089
33214ION     NA48831  12.104  11.468  10.359 -0.3436 -0.1234  0.3729
33215ION     NA48832  13.028   8.211   3.298 -0.1283  0.3522 -0.2189
33216ION     NA48833   1.027  12.102  10.573  0.1588 -0.2363  0.0105
33217ION     NA48834   8.876  12.858  10.851  0.1737 -0.3388  0.0786
33218ION     NA48835   5.253   8.884   1.409  0.0185 -0.0761  0.2072
33219ION     NA48836  10.210   2.819   5.324 -0.1590  0.1558 -0.0391
33220ION     NA48837  17.424   4.529  10.402 -0.0802  0.1451 -0.1743
33221ION     NA48838   5.404   4.316  13.260 -0.1771  0.0279 -0.0439
33222ION     NA48839  14.244  14.618   3.739 -0.0783 -0.0429 -0.1659
33223ION     NA48840  15.078  11.512  10.176  0.0402  0.0900  0.0529
33224ION     NA48841  15.373  18.169  12.419  0.1682 -0.1181  0.0217
  18.46024  18.46024  16.14040
