INSANE! Membrane UpperLeaflet>loPI:POPI:DPPI:PYPI:ERGO=180.0:5.0:3.0:2.0:10.0 LowerLeaflet>PSPI:POPI:POPS:YOPS:POPE:YOPE:POPC:YOPC:ERGO=6.0:14.0:21.0:9.0:9.0:21.0:12.0:48.0:60.0
48841
    1loPI    C1    1  11.982   3.825   9.645  0.0426 -0.0264  0.1475
    1loPI    C2    2  11.882   4.126   9.889  0.1060  0.0947  0.0257
    1loPI    C3    3  12.193   3.891   9.978 -0.0136 -0.0079  0.1796
    1loPI   PO4    4  11.970   3.918   9.431  0.0940  0.1770 -0.4620
    1loPI   GL1    5  11.605   3.982   9.119 -0.1060 -0.0028  0.1467
    1loPI   GL2    6  11.928   3.812   8.919 -0.2795  0.1010  0.0405
    1loPI   C1A    7  11.457   4.091   8.714 -0.0109 -0.0080  0.1784
    1loPI   C2A    8  11.375   4.022   8.323 -0.0004 -0.1692  0.4922
    1loPI   C3A    9  11.236   3.877   7.906  0.3198 -0.2041 -0.1582
    1loPI   C4A   10  11.194   3.613   7.434  0.0389 -0.1328  0.2195
    1loPI   C5A   11  11.518   3.844   7.138 -0.0206 -0.3817 -0.1140
    1loPI   C6A   12  11.644   4.010   6.804  0.0407  0.1953  0.0635
    1loPI   C1B   13  11.971   3.490   8.668  0.1075 -0.0900 -0.2589
    1loPI   C2B   14  12.151   3.373   8.356 -0.1613  0.1681  0.0482
    1loPI   C3B   15  12.348   3.505   7.944  0.2196 -0.2068  0.0613
    1loPI   C4B   16  12.441   3.509   7.486  0.0140 -0.0639 -0.3552
    2loPI    C1   17  15.568   3.093   9.395 -0.1910  0.1728 -0.0459
    2loPI    C2   18  15.251   3.314   9.291 -0.2392  0.1529  0.0578
    2loPI    C3   19  15.515   3.455   9.557 -0.1585  0.1708 -0.0308
    2loPI   PO4   20  15.468   2.827   9.506 -0.3404  0.0977  0.0325
    2loPI   GL1   21  15.246   2.591   9.317 -0.0984 -0.0121 -0.1323
    2loPI   GL2   22  15.093   2.756   9.109 -0.2100 -0.0746  0.4677
    2loPI   C1A   23  15.247   2.343   8.798 -0.0658  0.1072  0.3633
    2loPI   C2A   24  15.513   2.443   8.447  0.0716  0.1007  0.2679
    2loPI   C3A   25  15.665   2.758   8.108  0.3231  0.4480  0.3535
    2loPI   C4A   26  15.895   2.638   7.749  0.2969 -0.3220  0.0073
    2loPI   C5A   27  16.336   2.669   7.659 -0.0143  0.1055  0.1390
    2loPI   C6A   28  16.770   2.693   7.428 -0.0616 -0.5221 -0.3231
    2loPI   C1B   29  15.120   2.800   8.674  0.0846 -0.0180  0.2926
    2loPI   C2B   30  15.151   2.723   8.189 -0.0107 -0.0637 -0.0991
    2loPI   C3B   31  15.279   2.487   7.901 -0.0412  0.0785  0.0506
    2loPI   C4B   32  15.079   2.164   7.747  0.0840 -0.0926 -0.3464
    3loPI    C1   33  11.061   5.115   9.475  0.3007  0.2011  0.1721
    3loPI    C2   34  11.063   4.750   9.639  0.1647  0.1167 -0.0107
    3loPI    C3   35  10.869   5.050   9.820 -0.1869 -0.0317 -0.1321
    3loPI   PO4   36  11.026   5.084   9.243  0.1433  0.2172 -0.0845
    3loPI   GL1   37  11.001   5.304   8.853  0.3530 -0.2384  0.2410
    3loPI   GL2   38  11.361   5.335   8.771  0.0858 -0.1125 -0.3989
    3loPI   C1A   39  10.791   4.989   8.547  0.0458 -0.0352 -0.0877
    3loPI   C2A   40  10.558   4.975   8.223 -0.0308  0.0971  0.0589
    3loPI   C3A   41  10.323   5.113   7.927 -0.0116  0.0720 -0.0438
    3loPI   C4A   42  10.051   5.320   7.666  0.2345  0.0590 -0.0859
    3loPI   C5A   43   9.789   5.712   7.765 -0.0320 -0.1648 -0.3780
    3loPI   C6A   44   9.880   6.151   7.826  0.3297 -0.1805  0.0534
    3loPI   C1B   45  11.224   5.360   8.356 -0.1895 -0.1081 -0.0632
    3loPI   C2B   46  11.329   5.534   7.936  0.1768  0.0123 -0.4000
    3loPI   C3B   47  11.171   5.527   7.493  0.3695  0.2271 -0.0255
    3loPI   C4B   48  11.287   5.260   7.098  0.2188 -0.1423  0.5280
    4loPI    C1   49  16.685  11.858   9.841 -0.0265 -0.2181 -0.0213
    4loPI    C2   50  17.052  11.982   9.942 -0.0062 -0.1747 -0.1451
    4loPI    C3   51  16.779  11.913  10.226 -0.0448  0.2361 -0.0762
    4loPI   PO4   52  16.670  12.003   9.617 -0.1182  0.0648  0.2448
    4loPI   GL1   53  16.548  11.855   9.201  0.5633 -0.1814 -0.0315
    4loPI   GL2   54  16.784  12.198   9.188 -0.1480  0.1358  0.1992
    4loPI   C1A   55  16.476  11.854   8.844  0.0255 -0.0103 -0.2951
    4loPI   C2A   56  16.622  11.834   8.394  0.1752  0.0693 -0.0454
    4loPI   C3A   57  16.566  11.659   7.920  0.1478 -0.3581  0.1244
    4loPI   C4A   58  16.570  11.565   7.484  0.1464  0.0140  0.2278
    4loPI   C5A   59  16.213  11.545   7.279  0.1330  0.1744 -0.0759
    4loPI   C6A   60  15.789  11.627   7.328 -0.0448  0.1693  0.1817
    4loPI   C1B   61  16.774  12.201   8.733  0.4366 -0.4184 -0.2664
    4loPI   C2B   62  16.759  12.322   8.381 -0.1046  0.0318  0.0994
    4loPI   C3B   63  16.675  12.173   7.996  0.2034  0.0082  0.2058
    4loPI   C4B   64  16.605  12.253   7.572  0.0274 -0.2602  0.0969
    5loPI    C1   65  12.605   8.316   9.747  0.0358  0.2878 -0.1379
    5loPI    C2   66  12.912   8.518   9.904  0.0512  0.1052  0.0731
    5loPI    C3   67  12.538   8.651   9.955  0.0812  0.2309 -0.0304
    5loPI   PO4   68  12.575   8.281   9.518 -0.0395  0.3429 -0.3347
    5loPI   GL1   69  12.260   8.231   9.113  0.1373  0.6052  0.0989
    5loPI   GL2   70  12.375   7.888   9.111  0.1277  0.0164  0.4628
    5loPI   C1A   71  12.169   8.512   8.711  0.3746  0.3672 -0.1728
    5loPI   C2A   72  12.062   8.840   8.511  0.0105 -0.4064 -0.2494
    5loPI   C3A   73  11.908   8.862   8.055  0.3640  0.3782 -0.3345
    5loPI   C4A   74  12.015   9.126   7.688  0.1788  0.0961  0.1275
    5loPI   C5A   75  11.947   9.288   7.352 -0.3000 -0.0091  0.1853
    5loPI   C6A   76  11.979   9.147   6.982  0.0122 -0.1818 -0.2913
    5loPI   C1B   77  12.266   7.948   8.668  0.4206 -0.1288 -0.2096
    5loPI   C2B   78  12.334   7.909   8.254  0.2616  0.2062  0.0467
    5loPI   C3B   79  12.561   7.786   7.824  0.1743 -0.2155  0.2091
    5loPI   C4B   80  12.741   7.896   7.418  0.0463  0.1485  0.1106
    6loPI    C1   81   5.329  11.847  10.215 -0.0901 -0.0648 -0.0241
    6loPI    C2   82   5.445  11.589  10.497 -0.1590 -0.2705 -0.1814
    6loPI    C3   83   5.182  11.877  10.586 -0.0203 -0.2022  0.0152
    6loPI   PO4   84   5.479  11.912  10.079 -0.1608 -0.1837 -0.2497
    6loPI   GL1   85   5.498  11.964   9.641  0.1715 -0.0453  0.0244
    6loPI   GL2   86   5.365  12.218   9.692  0.0508  0.0428  0.2866
    6loPI   C1A   87   5.526  11.897   9.189  0.0326  0.1782  0.0803
    6loPI   C2A   88   5.553  12.022   8.739  0.0262 -0.4958 -0.3344
    6loPI   C3A   89   5.516  11.970   8.413  0.5016  0.2389  0.1755
    6loPI   C4A   90   5.360  11.781   8.044 -0.0274  0.1184  0.0629
    6loPI   C5A   91   5.173  11.666   7.718 -0.1247 -0.0031 -0.1680
    6loPI   C6A   92   4.835  11.544   7.588 -0.0109  0.2246 -0.0794
    6loPI   C1B   93   5.270  12.303   9.226 -0.0854  0.2035  0.4346
    6loPI   C2B   94   5.279  12.386   8.778 -0.2359 -0.1612  0.1654
    6loPI   C3B   95   5.358  12.509   8.331  0.0095 -0.1325 -0.1257
    6loPI   C4B   96   5.307  12.756   8.114  0.2362  0.0524 -0.0635
    7loPI    C1   97  16.975   0.435   9.871 -0.0792  0.1367  0.1627
    7loPI    C2   98  17.259   0.169   9.966 -0.0440  0.0475 -0.1784
    7loPI    C3   99  17.266   0.535  10.127 -0.0822 -0.1474  0.2808
    7loPI   PO4  100  17.093   0.565   9.633 -0.0606 -0.1034  0.3696
    7loPI   GL1  101  17.198   0.434   9.233  0.3213 -0.0524 -0.0137
    7loPI   GL2  102  17.539   0.317   9.120 -0.0450  0.0385 -0.1751
    7loPI   C1A  103  17.303   0.811   8.939  0.2139  0.1536 -0.2708
    7loPI   C2A  104  17.259   1.006   8.631  0.2730  0.2831 -0.1357
    7loPI   C3A  105  17.284   1.273   8.382  0.2966  0.1236  0.0632
    7loPI   C4A  106  17.210   1.545   8.032  0.0597 -0.3875  0.2527
    7loPI   C5A  107  16.902   1.541   7.741  0.0754 -0.0964 -0.1691
    7loPI   C6A  108  16.514   1.297   7.530 -0.3693 -0.1426 -0.3079
    7loPI   C1B  109  17.206   0.384   8.732  0.1837 -0.2855 -0.0279
    7loPI   C2B  110  17.205   0.618   8.324 -0.2737 -0.2484 -0.0453
    7loPI   C3B  111  17.260   0.930   8.006  0.4127 -0.5064 -0.1193
    7loPI   C4B  112  17.359   1.162   7.661  0.1552  0.1424  0.2208
    8loPI    C1  113  14.570  12.987  10.231 -0.0094  0.2098  0.1130
    8loPI    C2  114  14.226  12.784  10.226  0.0803  0.0592 -0.1743
    8loPI    C3  115  14.258  13.117  10.445 -0.1460 -0.0983  0.1067
    8loPI   PO4  116  14.635  13.004   9.933  0.1762 -0.0318 -0.1798
    8loPI   GL1  117  14.456  13.062   9.701 -0.4252 -0.0415  0.1762
    8loPI   GL2  118  14.172  12.947   9.550 -0.0627 -0.0717  0.0414
    8loPI   C1A  119  14.685  13.189   9.336  0.0541  0.3447  0.0855
    8loPI   C2A  120  14.635  13.253   8.812 -0.1676 -0.1219 -0.1581
    8loPI   C3A  121  14.648  13.320   8.311  0.1324  0.0351  0.1842
    8loPI   C4A  122  14.698  13.252   7.856  0.0140  0.2421 -0.0595
    8loPI   C5A  123  14.957  13.018   7.615 -0.0841  0.1183 -0.2067
    8loPI   C6A  124  15.091  12.835   7.294  0.1497 -0.1277 -0.2013
    8loPI   C1B  125  14.256  13.064   9.076 -0.1831  0.0817 -0.0162
    8loPI   C2B  126  14.116  13.005   8.558  0.1999 -0.4685 -0.3686
    8loPI   C3B  127  14.155  12.831   8.118  0.0828 -0.0930  0.1107
    8loPI   C4B  128  13.948  12.664   7.819  0.1222 -0.2647 -0.0257
    9loPI    C1  129  10.660   1.067  10.167  0.0565  0.0062 -0.0544
    9loPI    C2  130  10.318   1.130  10.365  0.0432 -0.1966 -0.0102
    9loPI    C3  131  10.667   1.233  10.531  0.0102 -0.0682 -0.0193
    9loPI   PO4  132  10.669   0.860  10.096  0.0622  0.0749  0.1435
    9loPI   GL1  133  10.928   0.792   9.809  0.1245  0.0727  0.1790
    9loPI   GL2  134  10.674   1.145   9.661 -0.0285  0.2490  0.2569
    9loPI   C1A  135  10.925   0.547   9.338  0.1694  0.2768 -0.0666
    9loPI   C2A  136  10.812   0.380   8.946 -0.0195  0.1243  0.0394
    9loPI   C3A  137  10.653   0.457   8.536  0.0721  0.1699  0.2120
    9loPI   C4A  138  10.535   0.539   8.059  0.0757 -0.1136  0.3627
    9loPI   C5A  139  10.589   0.846   7.661 -0.0739 -0.0902 -0.0783
    9loPI   C6A  140  10.737   1.180   7.495 -0.1666 -0.1810  0.0527
    9loPI   C1B  141  10.751   1.376   9.266 -0.4098 -0.1410  0.0169
    9loPI   C2B  142  10.726   1.485   8.931  0.2090  0.0838 -0.1500
    9loPI   C3B  143  10.743   1.892   8.732  0.3169  0.0606  0.0915
    9loPI   C4B  144  10.719   2.098   8.377  0.4528  0.1009 -0.0826
   10loPI    C1  145  13.817  12.105  10.279  0.0146  0.0410  0.2905
   10loPI    C2  146  14.128  11.916  10.446  0.1888 -0.0538 -0.1278
   10loPI    C3  147  13.913  11.735  10.162 -0.4052 -0.0815  0.3212
   10loPI   PO4  148  13.918  12.365  10.134 -0.1976  0.4672  0.0586
   10loPI   GL1  149  13.766  12.449   9.740  0.1297 -0.1733 -0.0081
   10loPI   GL2  150  13.752  12.089   9.705  0.0382  0.0384 -0.1394
   10loPI   C1A  151  13.628  12.276   9.274 -0.0823 -0.0830  0.0339
   10loPI   C2A  152  13.566  12.180   8.941  0.2761  0.1210 -0.2385
   10loPI   C3A  153  13.323  12.016   8.688 -0.4330  0.1433  0.0727
   10loPI   C4A  154  13.307  12.217   8.310  0.1114 -0.3800  0.2132
   10loPI   C5A  155  13.272  12.124   7.818 -0.0698 -0.0147 -0.0811
   10loPI   C6A  156  13.487  12.375   7.589 -0.1363  0.0863  0.1894
   10loPI   C1B  157  13.455  11.846   9.291 -0.1003  0.2585 -0.2110
   10loPI   C2B  158  13.232  11.517   9.001  0.1108  0.3214 -0.0171
   10loPI   C3B  159  13.171  11.354   8.638  0.0741  0.0442  0.0043
   10loPI   C4B  160  13.312  11.303   8.229  0.0231  0.3392  0.2849
   11loPI    C1  161   5.488   1.429  10.352 -0.0196 -0.2074  0.2678
   11loPI    C2  162   5.552   1.817  10.279 -0.4275 -0.2049 -0.1279
   11loPI    C3  163   5.486   1.692  10.653  0.1022  0.0389  0.0575
   11loPI   PO4  164   5.676   1.263  10.258  0.1812  0.0724  0.0722
   11loPI   GL1  165   5.842   1.238   9.924  0.2036  0.0280 -0.1035
   11loPI   GL2  166   6.087   1.055   9.904 -0.0168  0.1503 -0.0390
   11loPI   C1A  167   5.787   1.305   9.455 -0.2663 -0.0511 -0.2353
   11loPI   C2A  168   5.941   1.234   9.108 -0.0688  0.1025  0.0534
   11loPI   C3A  169   6.064   1.258   8.735 -0.2046 -0.0064  0.2063
   11loPI   C4A  170   6.328   1.128   8.399  0.0259 -0.3806 -0.0768
   11loPI   C5A  171   6.648   0.956   8.177  0.1354 -0.0873  0.0186
   11loPI   C6A  172   6.915   0.704   7.907  0.0280 -0.0317  0.1561
   11loPI   C1B  173   6.235   1.038   9.494  0.1452 -0.0339 -0.2121
   11loPI   C2B  174   6.424   0.802   9.175  0.0813  0.4723  0.2250
   11loPI   C3B  175   6.596   0.463   9.191 -0.1305 -0.1649  0.2675
   11loPI   C4B  176   6.410   0.047   9.237  0.5658  0.2477  0.2862
   12loPI    C1  177   3.300  14.273   9.591 -0.0377 -0.2436 -0.2513
   12loPI    C2  178   3.555  14.507   9.391 -0.0701 -0.2165 -0.2611
   12loPI    C3  179   3.687  14.279   9.692 -0.0988  0.0760 -0.0231
   12loPI   PO4  180   3.140  14.158   9.452 -0.4910  0.0395 -0.2556
   12loPI   GL1  181   2.976  13.981   9.099 -0.0940 -0.1081 -0.1080
   12loPI   GL2  182   2.924  14.258   9.027 -0.0701  0.2585 -0.1768
   12loPI   C1A  183   3.077  13.548   8.837 -0.0522 -0.0209  0.1309
   12loPI   C2A  184   3.231  13.221   8.503  0.0485 -0.1483  0.0951
   12loPI   C3A  185   3.168  12.987   8.124  0.2740  0.0225  0.0405
   12loPI   C4A  186   3.020  12.798   7.614  0.2912  0.0101  0.0526
   12loPI   C5A  187   2.597  12.741   7.401  0.0548 -0.2325  0.3257
   12loPI   C6A  188   2.162  12.990   7.290  0.0002 -0.0711  0.0121
   12loPI   C1B  189   2.766  14.240   8.728  0.3947 -0.2408  0.0622
   12loPI   C2B  190   2.697  14.331   8.276 -0.1530 -0.0875  0.0178
   12loPI   C3B  191   2.828  14.398   7.913 -0.3522  0.0459 -0.1704
   12loPI   C4B  192   2.935  14.629   7.465  0.0274  0.1602 -0.0851
   13loPI    C1  193   3.918   2.474  10.178  0.1777 -0.0602 -0.0787
   13loPI    C2  194   4.157   2.453  10.499  0.2631  0.2442 -0.1191
   13loPI    C3  195   4.299   2.359  10.137  0.2499  0.1841 -0.1087
   13loPI   PO4  196   3.840   2.636  10.133  0.0383 -0.1563 -0.4744
   13loPI   GL1  197   3.775   2.958   9.731 -0.0188 -0.2193  0.4131
   13loPI   GL2  198   3.729   3.266   9.551 -0.0378  0.1341 -0.0388
   13loPI   C1A  199   3.874   2.723   9.396  0.0674 -0.0987  0.0636
   13loPI   C2A  200   4.150   2.514   9.141 -0.0006 -0.1416 -0.1675
   13loPI   C3A  201   4.513   2.402   8.817  0.2444  0.3923  0.0284
   13loPI   C4A  202   4.457   2.562   8.405  0.1604 -0.1799 -0.2290
   13loPI   C5A  203   4.555   2.629   8.039  0.2526 -0.1399  0.2437
   13loPI   C6A  204   4.579   2.832   7.638  0.2264 -0.1908 -0.1926
   13loPI   C1B  205   3.872   3.195   9.240 -0.0913  0.2592 -0.0152
   13loPI   C2B  206   3.907   2.920   8.862  0.1873 -0.1542 -0.0820
   13loPI   C3B  207   3.954   2.908   8.468  0.1154 -0.0957 -0.3028
   13loPI   C4B  208   3.711   2.705   8.122  0.1312  0.2515  0.0442
   14loPI    C1  209  13.823  17.565  10.068 -0.1108 -0.0563 -0.0525
   14loPI    C2  210  13.445  17.527   9.943 -0.0778  0.1576 -0.2233
   14loPI    C3  211  13.565  17.866  10.118 -0.0390 -0.0193  0.1017
   14loPI   PO4  212  13.979  17.493   9.930 -0.0489  0.2349  0.2315
   14loPI   GL1  213  14.058  17.057   9.695 -0.0470  0.0732 -0.0702
   14loPI   GL2  214  13.983  17.323   9.416  0.1877 -0.2387 -0.0268
   14loPI   C1A  215  14.122  16.923   9.164  0.0382  0.0850  0.2117
   14loPI   C2A  216  13.664  16.956   9.143 -0.1708  0.2936  0.2796
   14loPI   C3A  217  13.415  17.039   8.890 -0.1044  0.1780  0.0143
   14loPI   C4A  218  13.456  16.960   8.462  0.0957  0.1374 -0.1153
   14loPI   C5A  219  13.778  16.755   8.211  0.1175 -0.3405 -0.1247
   14loPI   C6A  220  14.136  16.780   8.270  0.2237  0.2458  0.1969
   14loPI   C1B  221  13.952  17.338   9.020 -0.0896 -0.1036 -0.1247
   14loPI   C2B  222  13.920  17.055   8.657 -0.0907 -0.1199 -0.2260
   14loPI   C3B  223  13.842  17.304   8.338  0.3879  0.0296 -0.0664
   14loPI   C4B  224  13.674  17.317   7.888  0.1017 -0.0574  0.0028
   15loPI    C1  225  15.664   4.763   9.953 -0.1336  0.0660  0.0084
   15loPI    C2  226  15.629   5.161   9.958  0.2472  0.1041 -0.0834
   15loPI    C3  227  15.463   4.943  10.248 -0.3732  0.2885 -0.2836
   15loPI   PO4  228  15.632   4.727   9.701  0.1853  0.1053 -0.1247
   15loPI   GL1  229  15.511   4.878   9.396  0.1478  0.0471  0.1815
   15loPI   GL2  230  15.708   5.162   9.281  0.3905  0.3104 -0.2523
   15loPI   C1A  231  15.506   4.913   8.929  0.0617  0.1403 -0.0722
   15loPI   C2A  232  15.513   4.838   8.493  0.1586  0.1449  0.1405
   15loPI   C3A  233  15.626   4.679   8.024  0.3597 -0.1707 -0.2794
   15loPI   C4A  234  15.645   4.444   7.660  0.0158  0.0097 -0.2228
   15loPI   C5A  235  15.975   4.418   7.282 -0.0004  0.1621  0.0224
   15loPI   C6A  236  16.109   4.433   6.895 -0.1614 -0.2431 -0.1287
   15loPI   C1B  237  15.943   5.100   8.836 -0.0150  0.2602  0.0179
   15loPI   C2B  238  15.940   5.008   8.425  0.2583  0.2304  0.0308
   15loPI   C3B  239  15.882   5.162   7.978 -0.2469 -0.1491  0.2229
   15loPI   C4B  240  15.787   4.967   7.555  0.2026 -0.1437 -0.0793
   16loPI    C1  241   8.762  13.354  10.527 -0.3512  0.1834  0.0382
   16loPI    C2  242   9.068  13.610  10.560  0.0853 -0.3123 -0.0250
   16loPI    C3  243   8.787  13.595  10.845  0.0836  0.1863  0.0076
   16loPI   PO4  244   8.671  13.460  10.312  0.1808  0.1392  0.1672
   16loPI   GL1  245   8.678  13.334   9.810 -0.0524  0.1342 -0.0255
   16loPI   GL2  246   9.086  13.355   9.630  0.4013 -0.1087  0.1425
   16loPI   C1A  247   8.297  13.292   9.527  0.1238 -0.2128 -0.1171
   16loPI   C2A  248   8.136  13.216   9.193  0.5902 -0.1127  0.0678
   16loPI   C3A  249   8.053  13.355   8.821  0.0620  0.0813 -0.0402
   16loPI   C4A  250   7.995  13.526   8.453 -0.1021  0.2804  0.0105
   16loPI   C5A  251   7.702  13.799   8.180  0.2764  0.1785  0.2449
   16loPI   C6A  252   7.294  13.893   8.360 -0.0891  0.1167  0.3220
   16loPI   C1B  253   8.806  13.087   9.375  0.1102  0.0066 -0.0978
   16loPI   C2B  254   8.773  13.039   8.957  0.0238  0.2281  0.2871
   16loPI   C3B  255   8.952  13.362   8.619 -0.2655 -0.0520  0.2093
   16loPI   C4B  256   8.795  13.811   8.625  0.0032 -0.0547  0.0182
   17loPI    C1  257   4.536  18.815  10.570 -0.0848 -0.0245 -0.0239
   17loPI    C2  258   4.211  18.608  10.678 -0.0447 -0.0089  0.1292
   17loPI    C3  259   4.460  18.749  10.957  0.2106 -0.2085  0.0063
   17loPI   PO4  260   4.521  18.776  10.304  0.0951  0.0919 -0.0507
   17loPI   GL1  261   4.417  18.889   9.903 -0.0879 -0.0976 -0.0418
   17loPI   GL2  262   4.613  19.004   9.835 -0.1903 -0.3982  0.0953
   17loPI   C1A  263   4.253  19.019   9.486 -0.1721  0.0403 -0.0629
   17loPI   C2A  264   4.421  19.247   9.151  0.0763  0.0825  0.1120
   17loPI   C3A  265   4.671  19.397   8.858  0.0204  0.0582 -0.0273
   17loPI   C4A  266   4.658  19.409   8.414 -0.2085  0.1047 -0.2298
   17loPI   C5A  267   4.521  19.191   8.053 -0.4620  0.0100  0.2774
   17loPI   C6A  268   4.640  19.011   7.653 -0.1611 -0.0700 -0.4650
   17loPI   C1B  269   4.838  19.120   9.488 -0.0864 -0.1572  0.0954
   17loPI   C2B  270   4.948  19.036   9.043  0.0210 -0.0153  0.0847
   17loPI   C3B  271   5.193  19.227   8.816  0.0984  0.0002  0.3157
   17loPI   C4B  272   5.209  19.681   8.652  0.3620 -0.2353  0.2157
   18loPI    C1  273   4.088  11.547   9.819 -0.1964 -0.0646 -0.0535
   18loPI    C2  274   3.882  11.470  10.153 -0.0247  0.0130  0.0721
   18loPI    C3  275   4.267  11.366  10.127 -0.0994 -0.2086 -0.1932
   18loPI   PO4  276   3.980  11.812   9.724 -0.1072  0.0337  0.1783
   18loPI   GL1  277   4.043  12.072   9.571  0.3358  0.1878  0.0705
   18loPI   GL2  278   4.383  12.117   9.400  0.0889 -0.0929  0.1231
   18loPI   C1A  279   3.864  12.070   9.164  0.1035  0.2899  0.0527
   18loPI   C2A  280   4.039  12.201   8.765  0.0200 -0.2082  0.0494
   18loPI   C3A  281   3.920  12.259   8.263  0.1985  0.2219  0.1171
   18loPI   C4A  282   3.946  12.316   7.833 -0.0726 -0.0854  0.1843
   18loPI   C5A  283   3.870  12.361   7.325 -0.3433  0.1304  0.0140
   18loPI   C6A  284   3.888  12.489   6.899  0.1542  0.3382 -0.1895
   18loPI   C1B  285   4.456  12.470   9.023  0.0812  0.1866 -0.3209
   18loPI   C2B  286   4.267  12.603   8.569 -0.0158 -0.2111 -0.0914
   18loPI   C3B  287   4.232  12.618   8.155  0.0862  0.1460 -0.2358
   18loPI   C4B  288   4.523  12.476   7.799  0.0629  0.0063  0.0165
   19loPI    C1  289   1.548  16.135   9.655 -0.0426 -0.1087  0.0794
   19loPI    C2  290   1.379  16.298   9.979 -0.1501 -0.2069  0.0729
   19loPI    C3  291   1.533  15.929   9.997  0.1225 -0.0941  0.0964
   19loPI   PO4  292   1.749  16.361   9.636 -0.1053  0.2290  0.0032
   19loPI   GL1  293   2.036  16.299   9.298 -0.2065  0.1278  0.1227
   19loPI   GL2  294   2.019  16.109   9.019 -0.2762 -0.0006  0.1008
   19loPI   C1A  295   2.155  16.587   8.878 -0.3021 -0.2663  0.1258
   19loPI   C2A  296   2.128  16.657   8.482  0.3163  0.0553  0.1567
   19loPI   C3A  297   2.116  16.731   8.021 -0.1127 -0.0486 -0.2564
   19loPI   C4A  298   2.074  16.602   7.572 -0.1497 -0.0579  0.0620
   19loPI   C5A  299   2.165  16.778   7.228 -0.0864  0.1553 -0.2005
   19loPI   C6A  300   2.352  17.240   7.136  0.4009 -0.0677 -0.0358
   19loPI   C1B  301   1.694  16.195   8.744 -0.0945 -0.1479 -0.0500
   19loPI   C2B  302   1.774  16.302   8.306 -0.1133  0.0360 -0.2282
   19loPI   C3B  303   1.849  16.284   7.838 -0.0021  0.0881 -0.2105
   19loPI   C4B  304   1.900  16.162   7.421  0.1265 -0.0398  0.0032
   20loPI    C1  305  17.647  16.852   9.524 -0.1918  0.0163  0.0910
   20loPI    C2  306  17.433  16.718   9.833 -0.0623 -0.1555  0.1077
   20loPI    C3  307  17.813  16.830   9.887 -0.0103 -0.2741 -0.0058
   20loPI   PO4  308  17.713  16.769   9.350 -0.3211 -0.1417 -0.4948
   20loPI   GL1  309  17.614  16.836   9.027 -0.0854 -0.1520  0.3397
   20loPI   GL2  310  17.830  17.146   8.968 -0.2079 -0.2192  0.2653
   20loPI   C1A  311  17.519  16.482   8.630  0.1926 -0.1975  0.0690
   20loPI   C2A  312  17.602  16.409   8.225 -0.3265  0.1663  0.1187
   20loPI   C3A  313  17.375  16.300   7.878 -0.3590  0.2625  0.2185
   20loPI   C4A  314  16.913  16.175   7.756  0.0804  0.3312 -0.2479
   20loPI   C5A  315  16.643  15.954   7.487 -0.1173  0.2878  0.2473
   20loPI   C6A  316  16.693  16.004   7.074  0.0647 -0.4047 -0.3511
   20loPI   C1B  317  17.585  17.095   8.584 -0.1162 -0.3499  0.2445
   20loPI   C2B  318  17.605  17.447   8.272 -0.0959 -0.0565 -0.0990
   20loPI   C3B  319  17.567  17.809   7.959  0.0540  0.2334 -0.1458
   20loPI   C4B  320  17.857  18.072   7.850  0.1853 -0.1497 -0.1568
   21loPI    C1  321   4.113  13.941   9.861  0.1091  0.0495  0.1251
   21loPI    C2  322   3.834  13.760  10.082 -0.0243  0.0361 -0.0515
   21loPI    C3  323   3.949  13.599   9.735  0.1298  0.0952 -0.0285
   21loPI   PO4  324   4.266  14.136   9.728 -0.1235 -0.1514  0.2646
   21loPI   GL1  325   4.148  14.299   9.375 -0.1287 -0.0169  0.1804
   21loPI   GL2  326   4.374  13.932   9.284 -0.0230 -0.2701 -0.3676
   21loPI   C1A  327   4.349  14.603   9.013 -0.0504  0.2144 -0.0874
   21loPI   C2A  328   4.353  14.493   8.655  0.0288 -0.1498 -0.2538
   21loPI   C3A  329   4.347  14.523   8.168 -0.0867 -0.0498  0.0535
   21loPI   C4A  330   4.346  14.729   7.738 -0.0093 -0.1060 -0.3636
   21loPI   C5A  331   3.930  14.725   7.412  0.3249 -0.1282 -0.1209
   21loPI   C6A  332   3.839  14.361   7.173 -0.0872  0.1528  0.1210
   21loPI   C1B  333   4.354  14.041   8.880  0.2681  0.0579 -0.2473
   21loPI   C2B  334   4.346  14.067   8.438 -0.1357 -0.2535 -0.0961
   21loPI   C3B  335   4.299  14.014   8.054  0.0729  0.1424  0.1709
   21loPI   C4B  336   4.143  14.214   7.588 -0.0637 -0.0216  0.1205
   22loPI    C1  337  18.174   3.020   9.942 -0.0668 -0.0750 -0.1163
   22loPI    C2  338  18.114   2.683  10.149  0.1511 -0.0586 -0.0240
   22loPI    C3  339  18.128   3.034  10.339 -0.2696  0.0277 -0.1420
   22loPI   PO4  340  18.332   2.862   9.770  0.0445 -0.3729  0.2032
   22loPI   GL1  341  18.489   2.827   9.332 -0.1925 -0.0408 -0.1603
   22loPI   GL2  342  18.712   2.559   9.310 -0.2773 -0.1206 -0.1509
   22loPI   C1A  343  18.660   3.045   8.989 -0.0683  0.1961 -0.0407
   22loPI   C2A  344  18.636   3.274   8.608  0.1197 -0.0247  0.1288
   22loPI   C3A  345  18.554   2.913   8.311  0.0903  0.0398 -0.0678
   22loPI   C4A  346  18.451   2.646   7.922 -0.2969  0.4246 -0.1119
   22loPI   C5A  347  18.172   2.608   7.649  0.0514 -0.1935  0.3815
   22loPI   C6A  348  18.032   2.684   7.169  0.1384  0.0632 -0.2503
   22loPI   C1B  349  18.670   2.487   8.781 -0.2530 -0.2108  0.0766
   22loPI   C2B  350  18.765   2.434   8.303 -0.0220 -0.1485  0.0746
   22loPI   C3B  351  18.943   2.367   7.873 -0.3471  0.0905 -0.1874
   22loPI   C4B  352  19.352   2.233   7.692  0.3155  0.0632 -0.3230
   23loPI    C1  353   3.048   5.452  10.362 -0.3341 -0.1911 -0.0236
   23loPI    C2  354   3.095   5.841  10.284 -0.0888 -0.2438 -0.1501
   23loPI    C3  355   2.927   5.725  10.628 -0.0450 -0.0285 -0.0547
   23loPI   PO4  356   2.976   5.401  10.049 -0.2182 -0.1003 -0.5604
   23loPI   GL1  357   2.757   5.266   9.621 -0.2591 -0.5431  0.2689
   23loPI   GL2  358   2.695   5.576   9.629  0.1042  0.0337  0.1046
   23loPI   C1A  359   2.640   5.144   9.241 -0.1675 -0.2833  0.0965
   23loPI   C2A  360   2.737   5.136   8.830  0.3184 -0.0369  0.0483
   23loPI   C3A  361   2.906   5.342   8.418  0.0368 -0.2740 -0.1777
   23loPI   C4A  362   2.893   5.249   7.914  0.1742 -0.3251 -0.4171
   23loPI   C5A  363   2.817   5.447   7.430 -0.2153 -0.0970 -0.0314
   23loPI   C6A  364   2.659   5.576   7.067  0.1508 -0.1706 -0.3274
   23loPI   C1B  365   2.795   5.662   9.240  0.1376 -0.1524 -0.0050
   23loPI   C2B  366   2.820   5.720   8.873 -0.1908 -0.2461 -0.1632
   23loPI   C3B  367   2.674   5.802   8.373 -0.1634 -0.0405 -0.2699
   23loPI   C4B  368   2.684   5.704   7.905 -0.2043 -0.4650 -0.2423
   24loPI    C1  369   1.573   4.973  10.470  0.1595 -0.2107  0.0564
   24loPI    C2  370   1.766   5.145  10.776  0.1137  0.1024 -0.0865
   24loPI    C3  371   1.425   4.945  10.841  0.0243  0.2952  0.0475
   24loPI   PO4  372   1.650   5.198  10.253  0.1375  0.1558  0.0889
   24loPI   GL1  373   1.864   5.341   9.929  0.0468  0.3642 -0.3364
   24loPI   GL2  374   2.216   5.263   9.651  0.3199  0.3920  0.1266
   24loPI   C1A  375   1.747   5.419   9.518 -0.3382 -0.3049  0.3468
   24loPI   C2A  376   1.803   5.503   9.133  0.2297 -0.1073 -0.1949
   24loPI   C3A  377   1.722   5.432   8.702 -0.0876 -0.1838  0.1063
   24loPI   C4A  378   1.793   5.044   8.297 -0.0752 -0.4416  0.3761
   24loPI   C5A  379   1.529   5.226   7.862 -0.1524  0.2594 -0.2014
   24loPI   C6A  380   1.308   5.545   7.932  0.0461  0.2854 -0.2200
   24loPI   C1B  381   2.143   5.097   9.335  0.2485  0.1938 -0.2760
   24loPI   C2B  382   2.161   5.059   8.844 -0.1297 -0.4319  0.0939
   24loPI   C3B  383   2.245   4.854   8.433  0.0656  0.2437 -0.2083
   24loPI   C4B  384   2.081   4.572   8.037 -0.0117 -0.2438  0.3173
   25loPI    C1  385  18.843  15.773   9.623 -0.0479 -0.0730 -0.2233
   25loPI    C2  386  18.689  16.050   9.868  0.1996  0.0424 -0.1959
   25loPI    C3  387  18.657  15.662   9.960 -0.0757  0.0645 -0.1929
   25loPI   PO4  388  18.876  15.860   9.341 -0.0743 -0.1095 -0.1407
   25loPI   GL1  389  18.956  16.220   9.092 -0.1030  0.1336  0.2036
   25loPI   GL2  390  18.976  16.474   8.987 -0.0814  0.1736 -0.1115
   25loPI   C1A  391  18.914  16.108   8.662 -0.2603 -0.1242  0.1556
   25loPI   C2A  392  18.905  16.041   8.189 -0.0964  0.1911 -0.0609
   25loPI   C3A  393  18.690  16.171   7.746 -0.1585  0.3108 -0.2208
   25loPI   C4A  394  18.861  16.425   7.459 -0.2689 -0.0336  0.1779
   25loPI   C5A  395  19.074  16.265   7.099 -0.2172  0.0545  0.2085
   25loPI   C6A  396  19.339  16.000   6.687 -0.1673  0.4011 -0.3105
   25loPI   C1B  397  19.187  16.525   8.647  0.1955  0.2878  0.0039
   25loPI   C2B  398  19.358  16.438   8.257  0.1121  0.0598  0.1819
   25loPI   C3B  399  19.334  16.191   7.879  0.2598  0.2557  0.1507
   25loPI   C4B  400  19.667  15.862   7.713  0.4444  0.1744  0.1579
   26loPI    C1  401   7.356  18.367   9.713 -0.0033 -0.2407  0.3517
   26loPI    C2  402   7.350  18.722   9.898  0.0653 -0.2207  0.3162
   26loPI    C3  403   7.013  18.569   9.746  0.1291  0.0858 -0.1529
   26loPI   PO4  404   7.548  18.347   9.520  0.3372  0.0317 -0.5241
   26loPI   GL1  405   7.873  18.287   9.290  0.0135 -0.2323  0.2718
   26loPI   GL2  406   7.836  18.417   9.024 -0.2439  0.1057 -0.0076
   26loPI   C1A  407   8.074  17.914   9.039  0.2004  0.0569  0.1034
   26loPI   C2A  408   8.113  17.842   8.582 -0.2098  0.0210  0.1864
   26loPI   C3A  409   8.242  17.722   8.233  0.0978 -0.2413  0.1013
   26loPI   C4A  410   8.118  17.448   7.945  0.0752 -0.1550  0.0505
   26loPI   C5A  411   8.147  17.498   7.471  0.3374 -0.1985  0.3081
   26loPI   C6A  412   8.009  17.546   7.013  0.1195 -0.3264  0.0946
   26loPI   C1B  413   7.846  18.302   8.565  0.0880  0.0525  0.1584
   26loPI   C2B  414   7.973  18.148   8.145  0.0007  0.1493 -0.2081
   26loPI   C3B  415   8.038  17.927   7.766  0.2570  0.2179 -0.0305
   26loPI   C4B  416   7.746  17.914   7.342  0.3762  0.0810 -0.1024
   27loPI    C1  417   7.202  12.461  10.463 -0.1119 -0.0218 -0.1619
   27loPI    C2  418   6.923  12.175  10.456 -0.1181 -0.0246  0.1171
   27loPI    C3  419   7.163  12.212  10.773 -0.0909  0.2543  0.0660
   27loPI   PO4  420   7.279  12.472  10.210 -0.3931 -0.1672  0.2491
   27loPI   GL1  421   7.154  12.593   9.834 -0.0139 -0.0986 -0.1172
   27loPI   GL2  422   7.218  12.870   9.660  0.3965 -0.0098  0.2126
   27loPI   C1A  423   7.039  12.516   9.351  0.1042  0.1904  0.2459
   27loPI   C2A  424   6.846  12.778   8.985 -0.1675  0.1041 -0.2562
   27loPI   C3A  425   6.819  12.797   8.502 -0.1075 -0.0291  0.3154
   27loPI   C4A  426   6.854  12.802   8.118  0.0504 -0.2608  0.2773
   27loPI   C5A  427   6.895  12.799   7.640 -0.0362  0.1442  0.2271
   27loPI   C6A  428   7.271  12.875   7.407  0.4890  0.2530 -0.0527
   27loPI   C1B  429   7.326  12.895   9.131  0.0468 -0.1219  0.1093
   27loPI   C2B  430   7.306  12.935   8.693  0.1425 -0.1146 -0.0917
   27loPI   C3B  431   7.297  12.714   8.301 -0.3507 -0.0687 -0.4520
   27loPI   C4B  432   7.384  12.673   7.858 -0.3142 -0.0071 -0.1888
   28loPI    C1  433   6.603  18.298  10.063  0.1331 -0.2488 -0.2841
   28loPI    C2  434   6.242  18.221  10.217  0.0406  0.0365 -0.3529
   28loPI    C3  435   6.545  17.969  10.283 -0.1229 -0.1059 -0.1332
   28loPI   PO4  436   6.548  18.321   9.802  0.1803  0.0286 -0.0990
   28loPI   GL1  437   6.524  18.107   9.331 -0.3984 -0.2222  0.2124
   28loPI   GL2  438   6.753  18.464   9.331  0.0876 -0.2061  0.2895
   28loPI   C1A  439   6.424  18.286   8.883 -0.0460 -0.0624 -0.1141
   28loPI   C2A  440   6.280  18.416   8.577 -0.1402 -0.3697  0.0382
   28loPI   C3A  441   6.230  18.376   8.162  0.0456  0.2828  0.0064
   28loPI   C4A  442   6.453  18.612   7.750 -0.0226 -0.1057 -0.1412
   28loPI   C5A  443   6.500  18.895   7.514  0.1137 -0.1252 -0.0396
   28loPI   C6A  444   6.162  19.143   7.605  0.0712 -0.3585  0.0676
   28loPI   C1B  445   6.863  18.857   9.164  0.1270  0.2289 -0.1545
   28loPI   C2B  446   6.985  19.091   8.849  0.0251 -0.2651 -0.0855
   28loPI   C3B  447   7.039  19.013   8.439 -0.1102  0.0117 -0.2109
   28loPI   C4B  448   7.357  18.969   8.117  0.0640  0.2705 -0.0540
   29loPI    C1  449  13.903   3.460  10.007  0.0749 -0.0854  0.1814
   29loPI    C2  450  14.123   3.175  10.181  0.0338 -0.0090  0.3611
   29loPI    C3  451  13.941   3.452  10.405 -0.1926 -0.0331  0.2104
   29loPI   PO4  452  14.078   3.528   9.803 -0.1772  0.0854 -0.2538
   29loPI   GL1  453  13.881   3.515   9.377 -0.1192  0.1455  0.0801
   29loPI   GL2  454  13.772   3.778   9.353  0.2956  0.0242  0.0675
   29loPI   C1A  455  13.662   3.319   9.077 -0.1921 -0.1528  0.0449
   29loPI   C2A  456  13.218   3.104   8.933 -0.0619  0.0498 -0.1414
   29loPI   C3A  457  13.141   3.164   8.433 -0.3968  0.0630  0.2245
   29loPI   C4A  458  13.293   3.408   8.132  0.1634  0.1769 -0.1282
   29loPI   C5A  459  13.297   3.574   7.699  0.1064  0.3831  0.1671
   29loPI   C6A  460  13.392   3.590   7.282 -0.3102  0.1734  0.1001
   29loPI   C1B  461  13.742   3.915   8.931 -0.0026  0.1236 -0.1571
   29loPI   C2B  462  13.531   3.910   8.491 -0.1504  0.2267  0.1262
   29loPI   C3B  463  13.552   3.899   8.072 -0.0234 -0.2092  0.2845
   29loPI   C4B  464  13.324   4.088   7.656  0.2631  0.0849  0.1754
   30loPI    C1  465  10.645   4.462   9.797  0.1240 -0.2880  0.1019
   30loPI    C2  466  10.637   4.288  10.157 -0.1039 -0.0692  0.2053
   30loPI    C3  467  10.643   4.687  10.128  0.1851 -0.0877 -0.0320
   30loPI   PO4  468  10.434   4.238   9.605  0.0107 -0.0612 -0.1581
   30loPI   GL1  469  10.371   4.248   9.118 -0.2132 -0.2222 -0.0957
   30loPI   GL2  470  10.277   3.910   9.005 -0.2125  0.0224 -0.3250
   30loPI   C1A  471  10.527   4.132   8.653  0.0490 -0.1708 -0.0296
   30loPI   C2A  472  10.724   4.039   8.227 -0.1370 -0.0090 -0.0211
   30loPI   C3A  473  10.694   3.786   7.912 -0.1971  0.1824  0.3807
   30loPI   C4A  474  10.558   3.891   7.441 -0.0720 -0.0325 -0.3042
   30loPI   C5A  475  10.260   3.841   7.130  0.1056  0.0809  0.0386
   30loPI   C6A  476   9.961   4.133   7.045 -0.2562 -0.2424  0.2096
   30loPI   C1B  477   9.878   3.864   8.990  0.2057 -0.3479 -0.0984
   30loPI   C2B  478   9.787   3.614   8.553 -0.0474 -0.3482  0.0893
   30loPI   C3B  479   9.978   3.626   8.201 -0.2383 -0.0325  0.0850
   30loPI   C4B  480  10.171   3.611   7.689 -0.0431  0.2332  0.0035
   31loPI    C1  481  13.864  10.205   9.910  0.2559 -0.3456 -0.0217
   31loPI    C2  482  13.531  10.085  10.095  0.1490 -0.1391 -0.0771
   31loPI    C3  483  13.847  10.204  10.309 -0.0618  0.3400 -0.0193
   31loPI   PO4  484  13.991  10.144   9.699  0.3056 -0.0545 -0.1377
   31loPI   GL1  485  14.024   9.969   9.286 -0.4433  0.0963 -0.0720
   31loPI   GL2  486  14.233   9.832   9.268  0.2177 -0.0714 -0.0289
   31loPI   C1A  487  13.951   9.919   8.852  0.0839  0.0183 -0.0127
   31loPI   C2A  488  13.881   9.897   8.431  0.1926 -0.2207  0.0274
   31loPI   C3A  489  13.652   9.844   8.091  0.1024  0.0991  0.1212
   31loPI   C4A  490  13.442   9.534   7.882 -0.0906 -0.0980 -0.0037
   31loPI   C5A  491  13.383   9.499   7.449  0.3643  0.0196  0.0575
   31loPI   C6A  492  13.491   9.617   7.100  0.1218  0.0771  0.1530
   31loPI   C1B  493  14.324   9.606   8.823 -0.0829 -0.0915 -0.0311
   31loPI   C2B  494  14.248   9.414   8.413 -0.1277 -0.0950 -0.2940
   31loPI   C3B  495  14.178   9.700   8.040 -0.0026  0.0577 -0.0711
   31loPI   C4B  496  14.320   9.591   7.615  0.2442  0.3001 -0.0166
   32loPI    C1  497  16.211   5.527   9.948 -0.3752  0.1319 -0.0304
   32loPI    C2  498  16.220   5.142  10.058  0.2773  0.2488  0.3828
   32loPI    C3  499  16.009   5.407  10.271 -0.1445  0.1349  0.1176
   32loPI   PO4  500  16.093   5.438   9.667  0.0650  0.0708  0.1917
   32loPI   GL1  501  16.219   5.202   9.237  0.1708 -0.0940 -0.0420
   32loPI   GL2  502  16.149   5.472   9.131 -0.1459  0.3901 -0.1696
   32loPI   C1A  503  16.406   5.293   8.766 -0.0289  0.2816  0.2369
   32loPI   C2A  504  16.322   5.324   8.300  0.2043  0.2675  0.1935
   32loPI   C3A  505  16.291   5.573   7.866 -0.2596  0.1134 -0.0518
   32loPI   C4A  506  16.286   5.795   7.388 -0.3011 -0.0852  0.2158
   32loPI   C5A  507  16.288   6.124   7.045  0.0105 -0.0582 -0.1269
   32loPI   C6A  508  16.235   6.098   6.630  0.0418 -0.0282  0.3157
   32loPI   C1B  509  15.860   5.562   8.708 -0.3825  0.1328 -0.1061
   32loPI   C2B  510  15.848   5.618   8.287 -0.2755  0.2426  0.0062
   32loPI   C3B  511  15.814   5.693   7.898 -0.0634  0.1773 -0.0515
   32loPI   C4B  512  15.800   5.719   7.487 -0.2462  0.4551  0.1293
   33loPI    C1  513  15.735   6.835   9.327  0.0247  0.1986 -0.1194
   33loPI    C2  514  15.527   6.721   9.649  0.0545  0.4170 -0.0214
   33loPI    C3  515  15.512   7.102   9.525  0.2415  0.3901 -0.1293
   33loPI   PO4  516  15.807   6.658   9.241 -0.3613 -0.2520  0.0486
   33loPI   GL1  517  16.072   6.517   8.872 -0.4154 -0.2763  0.1765
   33loPI   GL2  518  16.385   6.483   8.903  0.1469 -0.1916 -0.0616
   33loPI   C1A  519  16.023   6.551   8.428  0.1976  0.1186 -0.3101
   33loPI   C2A  520  15.751   6.305   8.284  0.1411 -0.0202  0.2120
   33loPI   C3A  521  15.644   6.180   7.940  0.1005 -0.0098  0.2503
   33loPI   C4A  522  15.545   6.188   7.559  0.3126  0.3274  0.0061
   33loPI   C5A  523  15.682   6.291   7.307  0.0268 -0.0528  0.0017
   33loPI   C6A  524  15.940   6.477   7.028 -0.1179 -0.0881  0.3026
   33loPI   C1B  525  16.482   6.641   8.578 -0.2161  0.0711  0.3368
   33loPI   C2B  526  16.452   6.862   8.158  0.2681 -0.1721  0.1583
   33loPI   C3B  527  16.112   6.595   7.940 -0.0800 -0.1964 -0.0604
   33loPI   C4B  528  15.857   6.512   7.695  0.2104 -0.1625 -0.3222
   34loPI    C1  529  18.146   8.901   9.865  0.1583 -0.2786  0.0378
   34loPI    C2  530  18.242   9.142  10.170 -0.1294  0.0052 -0.0906
   34loPI    C3  531  18.235   8.745  10.223  0.0071  0.0413  0.2186
   34loPI   PO4  532  18.272   9.099   9.612  0.0682  0.0446 -0.0772
   34loPI   GL1  533  18.441   9.103   9.229 -0.2042  0.0566  0.3848
   34loPI   GL2  534  18.280   8.799   9.162 -0.0113  0.2206  0.1203
   34loPI   C1A  535  18.167   9.435   8.970  0.0353  0.0049  0.1920
   34loPI   C2A  536  18.054   9.779   8.650  0.0141 -0.1633 -0.0364
   34loPI   C3A  537  17.869  10.055   8.369 -0.3633  0.0607 -0.0939
   34loPI   C4A  538  17.840  10.110   7.887 -0.0038 -0.0148  0.1470
   34loPI   C5A  539  18.005  10.019   7.409  0.1281  0.0423  0.0506
   34loPI   C6A  540  18.265  10.302   7.230 -0.4078 -0.1968  0.0600
   34loPI   C1B  541  18.275   8.664   8.749 -0.1359 -0.3379  0.1505
   34loPI   C2B  542  18.065   8.516   8.494 -0.4288  0.0790 -0.3787
   34loPI   C3B  543  18.088   8.452   8.048 -0.0826 -0.4992  0.3399
   34loPI   C4B  544  17.961   8.255   7.670 -0.1813  0.0833  0.0913
   35loPI    C1  545   0.547  10.616   9.357  0.2328  0.0839 -0.1343
   35loPI    C2  546   0.228  10.754   9.556  0.0517 -0.3808 -0.0900
   35loPI    C3  547   0.590  10.765   9.726  0.0605  0.1170 -0.1266
   35loPI   PO4  548   0.408  10.387   9.337  0.1282  0.2718  0.1069
   35loPI   GL1  549   0.379  10.108   8.917 -0.4596 -0.2679 -0.1816
   35loPI   GL2  550   0.460   9.932   9.132 -0.2806  0.2508 -0.0337
   35loPI   C1A  551   0.292  10.243   8.554  0.1505 -0.1218  0.2373
   35loPI   C2A  552   0.417  10.060   8.111  0.0224  0.2397  0.0607
   35loPI   C3A  553   0.326   9.963   7.809  0.2644  0.2256  0.1407
   35loPI   C4A  554   0.172   9.546   7.575  0.0541  0.1692  0.1915
   35loPI   C5A  555   0.212   9.060   7.416  0.0594 -0.2168 -0.1022
   35loPI   C6A  556   0.493   8.662   7.635 -0.0249 -0.2801  0.1204
   35loPI   C1B  557   0.203   9.599   8.942 -0.0664 -0.0381 -0.1771
   35loPI   C2B  558   0.010   9.486   8.591  0.0215  0.2827 -0.1441
   35loPI   C3B  559  -0.075   9.252   8.264 -0.3770 -0.0623  0.1381
   35loPI   C4B  560   0.036   8.994   7.910 -0.0686 -0.1561  0.0423
   36loPI    C1  561  12.982   6.099  10.147  0.1042 -0.0211 -0.0463
   36loPI    C2  562  13.363   6.034  10.250  0.0230 -0.0326  0.2555
   36loPI    C3  563  13.071   5.818  10.416 -0.1514  0.2787  0.3634
   36loPI   PO4  564  12.906   6.123   9.789 -0.2586 -0.0334 -0.1797
   36loPI   GL1  565  12.966   6.263   9.230 -0.0373 -0.0061  0.0867
   36loPI   GL2  566  12.752   6.526   9.162  0.2963  0.0305 -0.1722
   36loPI   C1A  567  12.671   5.990   8.923  0.0255 -0.2236 -0.1603
   36loPI   C2A  568  12.527   5.840   8.538  0.1701  0.0725  0.1151
   36loPI   C3A  569  12.494   5.692   8.078  0.0367  0.3246 -0.2217
   36loPI   C4A  570  12.692   5.844   7.802 -0.0380 -0.2014  0.2674
   36loPI   C5A  571  12.949   6.023   7.452  0.1355 -0.2131 -0.0696
   36loPI   C6A  572  13.120   6.060   6.999  0.2170  0.3506 -0.1154
   36loPI   C1B  573  12.466   6.415   8.857  0.0316 -0.1657 -0.0921
   36loPI   C2B  574  12.315   6.429   8.463  0.2884 -0.0028 -0.0934
   36loPI   C3B  575  12.605   6.319   8.236 -0.0272  0.1242  0.1316
   36loPI   C4B  576  12.917   6.604   8.117  0.2753  0.0154  0.0058
   37loPI    C1  577  18.677  17.735   9.713  0.0725 -0.0683 -0.1809
   37loPI    C2  578  18.284  17.689   9.658  0.0924 -0.1824 -0.2300
   37loPI    C3  579  18.418  17.910   9.963 -0.0111 -0.0290 -0.2945
   37loPI   PO4  580  18.810  17.919   9.413 -0.0354  0.1134  0.0741
   37loPI   GL1  581  18.861  17.883   9.005  0.0578 -0.2099 -0.0298
   37loPI   GL2  582  19.205  17.701   9.035 -0.2884 -0.1038 -0.2244
   37loPI   C1A  583  18.922  17.953   8.548  0.1248 -0.0203  0.4178
   37loPI   C2A  584  18.873  17.953   8.124  0.0710  0.0815  0.0444
   37loPI   C3A  585  18.928  18.138   7.724 -0.2778  0.1559  0.1617
   37loPI   C4A  586  18.796  18.359   7.280  0.1681 -0.3101  0.1685
   37loPI   C5A  587  19.037  18.626   6.994 -0.1292 -0.0888 -0.1451
   37loPI   C6A  588  19.208  18.754   6.696  0.0799  0.3094  0.1585
   37loPI   C1B  589  19.180  17.455   8.627  0.1218  0.5505  0.0718
   37loPI   C2B  590  19.138  17.551   8.278 -0.2066  0.1551  0.2496
   37loPI   C3B  591  19.092  17.618   7.809  0.1790  0.3202  0.1371
   37loPI   C4B  592  19.306  17.385   7.592  0.1285 -0.1803  0.0438
   38loPI    C1  593   2.144  16.627   9.935 -0.0062 -0.0517 -0.0932
   38loPI    C2  594   2.187  17.015   9.848 -0.0432 -0.0004  0.1109
   38loPI    C3  595   1.999  16.905  10.184 -0.0406 -0.1958  0.0497
   38loPI   PO4  596   2.335  16.499   9.781  0.1812 -0.1248 -0.0847
   38loPI   GL1  597   2.472  16.671   9.384 -0.2129 -0.3978  0.3252
   38loPI   GL2  598   2.551  16.393   9.251  0.0560  0.0486  0.2373
   38loPI   C1A  599   2.604  16.858   9.037 -0.0752  0.2437  0.3830
   38loPI   C2A  600   2.635  16.896   8.631  0.1089 -0.1845 -0.1980
   38loPI   C3A  601   2.602  16.908   8.147 -0.2804  0.1207 -0.2165
   38loPI   C4A  602   2.582  16.812   7.675 -0.0463 -0.0605  0.0371
   38loPI   C5A  603   2.643  16.883   7.276 -0.0439 -0.3087  0.2600
   38loPI   C6A  604   2.608  16.782   6.925  0.0036 -0.0399 -0.0297
   38loPI   C1B  605   2.588  16.343   8.738  0.0029  0.0344 -0.0800
   38loPI   C2B  606   2.658  16.430   8.197 -0.0307 -0.0447 -0.1824
   38loPI   C3B  607   2.878  16.368   7.727 -0.0922  0.3427  0.1552
   38loPI   C4B  608   3.049  16.187   7.492 -0.2368  0.0649  0.1163
   39loPI    C1  609  16.601   6.797   9.574 -0.1543  0.1484  0.0345
   39loPI    C2  610  16.847   6.642   9.850  0.2404 -0.0381 -0.4072
   39loPI    C3  611  16.715   7.018   9.887  0.1349 -0.1204  0.1245
   39loPI   PO4  612  16.648   6.686   9.337 -0.0290 -0.2587 -0.1756
   39loPI   GL1  613  16.927   6.620   8.989  0.1681 -0.1409 -0.1191
   39loPI   GL2  614  16.893   6.928   8.882 -0.0594  0.0066 -0.4444
   39loPI   C1A  615  17.181   6.546   8.683 -0.0101 -0.0404  0.1895
   39loPI   C2A  616  17.282   6.415   8.314 -0.3290 -0.3331 -0.0348
   39loPI   C3A  617  17.544   6.247   8.095  0.0345  0.0718  0.1946
   39loPI   C4A  618  17.848   6.314   7.793 -0.0222 -0.0730  0.0040
   39loPI   C5A  619  18.179   6.421   7.623  0.1235 -0.1718 -0.0070
   39loPI   C6A  620  18.580   6.478   7.360 -0.2974 -0.1818  0.0041
   39loPI   C1B  621  16.888   6.877   8.463  0.0103  0.1696  0.3065
   39loPI   C2B  622  16.959   6.886   8.047  0.2242 -0.0869  0.4026
   39loPI   C3B  623  16.999   6.655   7.699 -0.1403 -0.2545 -0.2290
   39loPI   C4B  624  17.252   6.314   7.703  0.2221  0.1369  0.1665
   40loPI    C1  625  12.041  10.128   9.881  0.0155 -0.1187 -0.0884
   40loPI    C2  626  12.320   9.899  10.053  0.2809  0.4141  0.2170
   40loPI    C3  627  12.004  10.023  10.265  0.0546  0.2088  0.0077
   40loPI   PO4  628  12.101  10.013   9.586 -0.2003 -0.1794 -0.1704
   40loPI   GL1  629  11.971  10.203   9.134  0.4472  0.0730  0.0876
   40loPI   GL2  630  12.294  10.330   9.211  0.3799  0.1119  0.0507
   40loPI   C1A  631  11.869  10.167   8.809  0.0714 -0.0642  0.0327
   40loPI   C2A  632  11.660  10.256   8.324  0.0032 -0.0736 -0.1390
   40loPI   C3A  633  11.887  10.456   7.902  0.2120 -0.0462 -0.3864
   40loPI   C4A  634  12.233  10.540   7.616 -0.1746 -0.0313 -0.3830
   40loPI   C5A  635  12.313  10.228   7.434  0.0308 -0.0875  0.1502
   40loPI   C6A  636  12.033  10.145   7.109 -0.1408  0.1932 -0.0908
   40loPI   C1B  637  12.378  10.302   8.759 -0.2508 -0.0892 -0.0636
   40loPI   C2B  638  12.629  10.070   8.492 -0.1268 -0.4504 -0.1006
   40loPI   C3B  639  12.918   9.985   8.165  0.1202  0.2371  0.2676
   40loPI   C4B  640  13.100   9.905   7.778 -0.0008  0.3277  0.2018
   41loPI    C1  641  17.914   2.216   9.971  0.1741  0.2995  0.2692
   41loPI    C2  642  17.609   2.014  10.132  0.0668  0.0376 -0.2426
   41loPI    C3  643  17.978   1.861  10.144  0.0985  0.1271 -0.0489
   41loPI   PO4  644  17.824   2.222   9.702  0.1423  0.4610 -0.0027
   41loPI   GL1  645  17.963   2.002   9.284 -0.0871  0.1904 -0.1776
   41loPI   GL2  646  18.244   1.974   9.210  0.3724  0.1588  0.0379
   41loPI   C1A  647  17.823   1.992   8.867  0.1734 -0.4376  0.0509
   41loPI   C2A  648  17.973   1.984   8.415  0.1095 -0.0759 -0.0404
   41loPI   C3A  649  18.106   1.780   8.001  0.1818  0.1378 -0.1686
   41loPI   C4A  650  18.186   1.713   7.605 -0.0340  0.1052 -0.0844
   41loPI   C5A  651  18.190   1.752   7.215  0.0351 -0.2602 -0.0760
   41loPI   C6A  652  18.127   2.022   6.910  0.2472 -0.0463 -0.0186
   41loPI   C1B  653  18.405   2.037   8.832 -0.0545  0.0512  0.2023
   41loPI   C2B  654  18.507   1.984   8.308  0.3306 -0.0927 -0.0939
   41loPI   C3B  655  18.433   2.121   7.877 -0.4635  0.1714 -0.1308
   41loPI   C4B  656  18.437   2.176   7.441  0.1550 -0.6220 -0.0261
   42loPI    C1  657   4.208  10.598   9.797 -0.2528  0.0135 -0.0735
   42loPI    C2  658   4.370  10.285   9.986 -0.2415  0.0445 -0.0315
   42loPI    C3  659   4.417  10.653  10.133 -0.0948  0.0878 -0.1832
   42loPI   PO4  660   4.277  10.620   9.520  0.1721 -0.0721 -0.0826
   42loPI   GL1  661   4.121  10.543   9.155 -0.2472 -0.0281 -0.1496
   42loPI   GL2  662   4.035  10.953   9.164 -0.2386 -0.0827 -0.0428
   42loPI   C1A  663   4.188  10.445   8.774 -0.1322  0.1586 -0.2630
   42loPI   C2A  664   4.184  10.513   8.391 -0.5061  0.1985 -0.5086
   42loPI   C3A  665   4.144  10.661   7.989 -0.1527  0.2745 -0.1193
   42loPI   C4A  666   4.125  10.753   7.558 -0.0275  0.1709  0.2838
   42loPI   C5A  667   4.506  10.834   7.386  0.0243  0.1792  0.1412
   42loPI   C6A  668   4.910  10.883   7.453  0.1052 -0.2859  0.1140
   42loPI   C1B  669   4.071  10.966   8.760  0.1251  0.1504  0.2409
   42loPI   C2B  670   4.189  11.065   8.328 -0.1156 -0.1123 -0.2426
   42loPI   C3B  671   3.984  11.279   7.972 -0.1577  0.1183 -0.3144
   42loPI   C4B  672   3.843  11.184   7.457 -0.2444 -0.1230 -0.1434
   43loPI    C1  673  10.715   8.518   9.940 -0.1620 -0.2538  0.1726
   43loPI    C2  674  10.754   8.701  10.294 -0.0182  0.1983 -0.0691
   43loPI    C3  675  10.859   8.891   9.958 -0.1010 -0.2449 -0.3540
   43loPI   PO4  676  10.796   8.274   9.969 -0.0898 -0.2437 -0.1140
   43loPI   GL1  677  10.845   7.999   9.557 -0.1825  0.0779  0.0393
   43loPI   GL2  678  10.560   8.212   9.560 -0.4348  0.1761 -0.2544
   43loPI   C1A  679  10.869   7.677   9.344  0.1259  0.3732  0.1283
   43loPI   C2A  680  10.698   7.485   8.955 -0.1832 -0.1339 -0.0786
   43loPI   C3A  681  10.621   7.417   8.468 -0.2010  0.0022 -0.0545
   43loPI   C4A  682  10.870   7.264   8.171 -0.0545  0.2036 -0.2887
   43loPI   C5A  683  11.069   7.215   7.833  0.0807  0.0467  0.0289
   43loPI   C6A  684  10.883   6.973   7.570 -0.3437 -0.0730  0.1155
   43loPI   C1B  685  10.644   8.364   9.148  0.1283 -0.1472  0.0925
   43loPI   C2B  686  10.673   8.361   8.670  0.2911 -0.0869 -0.1642
   43loPI   C3B  687  10.547   8.222   8.281 -0.0406  0.0008  0.0396
   43loPI   C4B  688  10.408   7.996   7.891 -0.1483  0.2858  0.3261
   44loPI    C1  689  10.891  14.089  10.215 -0.1279 -0.1185  0.2774
   44loPI    C2  690  11.114  14.407  10.312 -0.1006 -0.0924  0.1320
   44loPI    C3  691  10.851  14.259  10.575 -0.1000  0.0389  0.2073
   44loPI   PO4  692  10.856  14.032   9.948  0.0158  0.2152 -0.0186
   44loPI   GL1  693  10.608  14.287   9.638 -0.2818 -0.0335 -0.2641
   44loPI   GL2  694  10.886  14.153   9.467  0.0414 -0.2378  0.1946
   44loPI   C1A  695  10.516  13.983   9.237 -0.3147  0.0782 -0.2068
   44loPI   C2A  696  10.234  14.151   8.932  0.1738 -0.1107 -0.0575
   44loPI   C3A  697  10.248  14.169   8.552 -0.2737  0.2780  0.1753
   44loPI   C4A  698  10.191  13.877   8.263 -0.0503  0.0823  0.3192
   44loPI   C5A  699   9.825  13.899   7.955 -0.1841  0.2680 -0.1879
   44loPI   C6A  700   9.453  13.731   7.711 -0.2624 -0.0121  0.0933
   44loPI   C1B  701  10.959  14.152   9.078 -0.0399  0.0229 -0.0106
   44loPI   C2B  702  10.704  14.151   8.710 -0.2097  0.1194 -0.0934
   44loPI   C3B  703  10.693  14.151   8.270 -0.0549  0.0220 -0.2891
   44loPI   C4B  704  10.771  14.286   7.855  0.0044  0.1062 -0.3935
   45loPI    C1  705  13.967   6.569   9.810  0.0097 -0.1642 -0.0966
   45loPI    C2  706  14.255   6.786   9.636  0.1200 -0.2068  0.0309
   45loPI    C3  707  14.128   6.879  10.004 -0.0881 -0.1380 -0.0569
   45loPI   PO4  708  13.794   6.505   9.655  0.0643 -0.0517 -0.1221
   45loPI   GL1  709  13.674   6.513   9.177 -0.2153  0.1150  0.1328
   45loPI   GL2  710  13.456   6.360   9.127  0.0140  0.3880 -0.3418
   45loPI   C1A  711  14.032   6.367   8.822 -0.1013  0.0282 -0.2009
   45loPI   C2A  712  14.072   6.474   8.432  0.0163  0.0759 -0.2905
   45loPI   C3A  713  14.103   6.513   7.911 -0.3754 -0.0496 -0.0276
   45loPI   C4A  714  14.258   6.493   7.487  0.0569 -0.0938  0.0829
   45loPI   C5A  715  14.627   6.441   7.108 -0.0680  0.0125 -0.3121
   45loPI   C6A  716  15.129   6.311   7.179 -0.3617 -0.0667  0.0943
   45loPI   C1B  717  13.298   6.195   8.755  0.3026  0.0205 -0.2730
   45loPI   C2B  718  12.896   6.324   8.667 -0.1324  0.0008  0.1348
   45loPI   C3B  719  12.687   6.736   8.566 -0.1063  0.3015  0.2004
   45loPI   C4B  720  12.705   7.023   8.765  0.1346 -0.0101  0.0116
   46loPI    C1  721  16.589   7.845   9.909  0.2219 -0.3188  0.1114
   46loPI    C2  722  16.205   7.736   9.944  0.0314  0.3490  0.2567
   46loPI    C3  723  16.478   7.597  10.202 -0.1045 -0.1348  0.1491
   46loPI   PO4  724  16.688   7.835   9.605 -0.0096 -0.2994  0.2255
   46loPI   GL1  725  16.579   7.841   9.197  0.0698 -0.0143  0.0888
   46loPI   GL2  726  16.660   7.915   9.112  0.4655  0.1422  0.1467
   46loPI   C1A  727  16.603   7.675   8.710  0.2562  0.1237 -0.2037
   46loPI   C2A  728  16.418   7.844   8.379 -0.1254 -0.2575  0.0860
   46loPI   C3A  729  16.288   8.014   7.998  0.2464  0.2927 -0.1039
   46loPI   C4A  730  16.491   8.204   7.590  0.1611 -0.2074 -0.4319
   46loPI   C5A  731  16.531   8.588   7.407  0.1640  0.2990  0.0075
   46loPI   C6A  732  16.382   8.863   7.044 -0.3605 -0.1523  0.1969
   46loPI   C1B  733  16.711   8.169   8.706 -0.3472  0.2784 -0.0841
   46loPI   C2B  734  16.882   8.040   8.317  0.0689 -0.0730 -0.2106
   46loPI   C3B  735  16.917   8.076   7.752 -0.0467  0.1901  0.1185
   46loPI   C4B  736  16.972   7.907   7.400  0.0737  0.1176 -0.1956
   47loPI    C1  737  13.589   1.795   9.919  0.0263 -0.2179 -0.2941
   47loPI    C2  738  13.229   1.871  10.075  0.2664  0.2748  0.0463
   47loPI    C3  739  13.452   1.575  10.223  0.1186  0.1499  0.0219
   47loPI   PO4  740  13.550   1.794   9.547  0.1931  0.3602 -0.0208
   47loPI   GL1  741  13.428   1.753   9.084  0.0338  0.1833  0.0299
   47loPI   GL2  742  13.500   1.467   9.208 -0.0266  0.1621  0.2548
   47loPI   C1A  743  13.434   1.813   8.660 -0.1017  0.0026  0.0752
   47loPI   C2A  744  13.481   1.745   8.178  0.3801 -0.0257  0.2758
   47loPI   C3A  745  13.352   1.887   7.811  0.2358 -0.0474 -0.2496
   47loPI   C4A  746  13.401   2.213   7.456  0.1586  0.5837  0.3672
   47loPI   C5A  747  13.176   2.382   7.142 -0.0328 -0.2884  0.0646
   47loPI   C6A  748  13.253   2.724   6.946 -0.1025  0.0676  0.1698
   47loPI   C1B  749  13.495   1.353   8.819  0.1230 -0.0046 -0.0086
   47loPI   C2B  750  13.540   1.301   8.410  0.1282  0.0408 -0.2658
   47loPI   C3B  751  13.602   1.205   8.074  0.3155  0.0743  0.1104
   47loPI   C4B  752  13.720   1.452   7.731  0.0302  0.2295 -0.1626
   48loPI    C1  753  14.733  16.415   9.830 -0.2033  0.2034  0.2718
   48loPI    C2  754  14.989  16.249  10.089 -0.0799 -0.0291  0.0057
   48loPI    C3  755  14.626  16.363  10.212 -0.1020 -0.3336  0.2352
   48loPI   PO4  756  14.693  16.302   9.659  0.1853 -0.3170  0.0382
   48loPI   GL1  757  14.512  16.363   9.290 -0.2085 -0.1149  0.0099
   48loPI   GL2  758  14.882  16.436   9.195 -0.2700 -0.0004 -0.0678
   48loPI   C1A  759  14.452  16.275   8.893 -0.1793  0.2057  0.1787
   48loPI   C2A  760  14.314  16.349   8.472  0.1016 -0.0685 -0.2021
   48loPI   C3A  761  14.190  16.250   8.044 -0.0536  0.1229  0.1101
   48loPI   C4A  762  14.155  16.538   7.824  0.0457  0.3712 -0.0310
   48loPI   C5A  763  14.362  16.673   7.430 -0.0168 -0.0288  0.1082
   48loPI   C6A  764  14.832  16.769   7.392 -0.0668  0.2211  0.1553
   48loPI   C1B  765  14.793  16.511   8.656 -0.2405 -0.0591  0.1356
   48loPI   C2B  766  14.759  16.368   8.169  0.1576 -0.3004  0.0864
   48loPI   C3B  767  14.649  16.305   7.685  0.0335  0.0834 -0.1114
   48loPI   C4B  768  14.299  16.005   7.575  0.0012 -0.0411  0.1201
   49loPI    C1  769  13.166   0.434   9.999 -0.1110  0.0389  0.0298
   49loPI    C2  770  13.552   0.534  10.028 -0.0896 -0.0002 -0.1134
   49loPI    C3  771  13.402   0.248  10.263 -0.0267  0.0005 -0.0720
   49loPI   PO4  772  13.141   0.472   9.735  0.0274  0.1914 -0.0530
   49loPI   GL1  773  13.264   0.482   9.298  0.1000 -0.2022 -0.0267
   49loPI   GL2  774  12.982   0.284   9.240 -0.0506 -0.1677 -0.1764
   49loPI   C1A  775  13.320   0.491   8.901  0.2422  0.1629  0.1188
   49loPI   C2A  776  13.289   0.500   8.423 -0.5208  0.0342  0.0403
   49loPI   C3A  777  13.266   0.418   7.961  0.2350  0.1863 -0.1838
   49loPI   C4A  778  12.873   0.301   7.797  0.0066 -0.2153  0.1874
   49loPI   C5A  779  12.663  -0.108   7.749 -0.0899  0.0069 -0.0257
   49loPI   C6A  780  12.748  -0.530   7.813 -0.2107 -0.1561 -0.0071
   49loPI   C1B  781  13.010   0.149   8.859 -0.2321  0.1715 -0.0313
   49loPI   C2B  782  12.951   0.097   8.526 -0.1298 -0.3877 -0.0896
   49loPI   C3B  783  12.889  -0.043   8.190  0.2227  0.0285 -0.1040
   49loPI   C4B  784  13.164  -0.128   7.829 -0.2484  0.0243  0.0570
   50loPI    C1  785  14.131   4.543   9.823  0.1815 -0.1183 -0.1959
   50loPI    C2  786  14.004   4.389  10.169 -0.1832  0.0988 -0.2279
   50loPI    C3  787  14.367   4.296  10.030 -0.0735 -0.0712  0.1596
   50loPI   PO4  788  13.927   4.505   9.699 -0.1039 -0.0938  0.3607
   50loPI   GL1  789  13.779   4.285   9.330 -0.4059  0.2204  0.0842
   50loPI   GL2  790  13.643   4.383   9.067  0.2897 -0.1795 -0.0919
   50loPI   C1A  791  14.171   4.138   9.153 -0.1285 -0.2298  0.2961
   50loPI   C2A  792  14.168   4.041   8.631 -0.1159 -0.1201  0.2577
   50loPI   C3A  793  13.992   3.989   8.305 -0.1986 -0.0343 -0.1338
   50loPI   C4A  794  14.043   3.829   7.871 -0.1922  0.1141  0.1627
   50loPI   C5A  795  13.822   3.524   7.506 -0.2009 -0.1763 -0.2470
   50loPI   C6A  796  13.949   3.091   7.398 -0.1068  0.1083  0.1402
   50loPI   C1B  797  13.716   4.464   8.637 -0.2217  0.3091 -0.1042
   50loPI   C2B  798  13.728   4.518   8.205 -0.1043 -0.1140 -0.0993
   50loPI   C3B  799  13.657   4.351   7.898 -0.3290  0.1288 -0.1308
   50loPI   C4B  800  13.911   4.105   7.498 -0.0002  0.1402 -0.1444
   51loPI    C1  801   8.602   0.192   9.807 -0.0766 -0.1911 -0.0223
   51loPI    C2  802   8.477  -0.054  10.098 -0.2811 -0.1198 -0.0480
   51loPI    C3  803   8.269   0.277  10.012  0.2289  0.3049  0.2880
   51loPI   PO4  804   8.787   0.274   9.807 -0.0444  0.0245  0.0057
   51loPI   GL1  805   8.874   0.287   9.430  0.3901  0.0115 -0.2951
   51loPI   GL2  806   8.567   0.006   9.285  0.0782  0.0338 -0.4946
   51loPI   C1A  807   9.043   0.366   9.093  0.0313 -0.0138 -0.0515
   51loPI   C2A  808   9.132   0.429   8.683 -0.0085  0.3454 -0.3125
   51loPI   C3A  809   9.052   0.461   8.306  0.2013  0.2805 -0.0862
   51loPI   C4A  810   9.212   0.438   8.010 -0.0304  0.1161 -0.0212
   51loPI   C5A  811   9.265   0.351   7.557 -0.1467 -0.0327 -0.2889
   51loPI   C6A  812   9.088   0.589   7.206  0.0675  0.0633 -0.1269
   51loPI   C1B  813   8.509   0.328   9.036  0.0246 -0.0155 -0.1450
   51loPI   C2B  814   8.594   0.451   8.671 -0.1812  0.2689  0.4500
   51loPI   C3B  815   8.601   0.478   8.254 -0.2274  0.1195  0.0506
   51loPI   C4B  816   8.578   0.275   7.987 -0.0234  0.2744  0.0451
   52loPI    C1  817  18.954  10.367   9.710  0.1787 -0.0039 -0.0723
   52loPI    C2  818  18.769  10.047   9.862 -0.1383  0.1257 -0.1779
   52loPI    C3  819  18.859  10.356  10.098  0.2316 -0.0659 -0.0608
   52loPI   PO4  820  18.829  10.527   9.490 -0.0140 -0.3929  0.0275
   52loPI   GL1  821  18.888  10.824   9.201 -0.2959 -0.3187 -0.2635
   52loPI   GL2  822  18.508  10.912   9.193 -0.1368 -0.1881  0.3069
   52loPI   C1A  823  18.991  10.893   8.819 -0.0512 -0.1310 -0.1003
   52loPI   C2A  824  19.232  10.722   8.490 -0.0903 -0.1538  0.0045
   52loPI   C3A  825  19.293  10.563   8.183  0.1618 -0.4229 -0.1779
   52loPI   C4A  826  19.383  10.444   7.753 -0.1518  0.2273 -0.1401
   52loPI   C5A  827  19.421  10.672   7.332 -0.0727 -0.2353 -0.0478
   52loPI   C6A  828  19.675  10.748   7.027  0.0784  0.0755 -0.0442
   52loPI   C1B  829  18.553  10.637   8.825 -0.0676 -0.0927 -0.0905
   52loPI   C2B  830  18.797  10.513   8.447 -0.1235 -0.1765 -0.1288
   52loPI   C3B  831  18.848  10.336   8.022  0.0521  0.2474 -0.1102
   52loPI   C4B  832  19.012  10.149   7.627 -0.2286 -0.1470 -0.2359
   53loPI    C1  833   3.355  13.773   9.983  0.0867  0.0080 -0.3095
   53loPI    C2  834   2.984  13.895   9.897  0.1179  0.0822 -0.3404
   53loPI    C3  835   3.080  13.793  10.272  0.0497  0.0026 -0.3443
   53loPI   PO4  836   3.474  13.772   9.731  0.1008  0.0415  0.0542
   53loPI   GL1  837   3.683  13.559   9.345  0.1305  0.2780 -0.1762
   53loPI   GL2  838   3.483  13.548   9.171 -0.0209  0.2896 -0.3291
   53loPI   C1A  839   4.017  13.709   9.097  0.3309  0.0015  0.0505
   53loPI   C2A  840   4.004  13.759   8.587 -0.3527  0.0593 -0.0448
   53loPI   C3A  841   4.056  13.657   8.236 -0.1098 -0.2191  0.2057
   53loPI   C4A  842   4.118  13.618   7.714 -0.5615  0.4048 -0.0331
   53loPI   C5A  843   4.542  13.787   7.650 -0.1037 -0.0347 -0.1837
   53loPI   C6A  844   4.903  13.966   7.358 -0.0595 -0.0905  0.1060
   53loPI   C1B  845   3.520  13.758   8.735 -0.1335  0.0616  0.5480
   53loPI   C2B  846   3.595  13.904   8.328  0.0656  0.1809  0.2492
   53loPI   C3B  847   3.797  13.981   7.976 -0.1049  0.0737 -0.3928
   53loPI   C4B  848   3.689  14.022   7.562 -0.0440 -0.2161  0.2426
   54loPI    C1  849   0.857   1.456  10.252 -0.2069 -0.0666  0.1795
   54loPI    C2  850   1.037   1.104  10.187 -0.1283  0.0426 -0.2262
   54loPI    C3  851   1.232   1.397  10.377 -0.0339  0.0156 -0.2811
   54loPI   PO4  852   0.831   1.615   9.977 -0.0735  0.1910 -0.1715
   54loPI   GL1  853   0.777   1.566   9.552  0.0243 -0.0384 -0.1896
   54loPI   GL2  854   0.526   1.453   9.477 -0.3459  0.2222 -0.0821
   54loPI   C1A  855   0.989   1.481   9.248 -0.0893  0.0610  0.0487
   54loPI   C2A  856   1.094   1.198   8.924  0.0104  0.0839 -0.1309
   54loPI   C3A  857   0.959   1.170   8.457  0.2509 -0.1000 -0.1509
   54loPI   C4A  858   0.916   1.338   8.029  0.0435 -0.0032 -0.1509
   54loPI   C5A  859   1.116   1.704   7.810  0.1192  0.2026 -0.1921
   54loPI   C6A  860   1.149   1.798   7.276  0.1082  0.1758 -0.0440
   54loPI   C1B  861   0.574   1.600   9.034 -0.2160  0.0860  0.3744
   54loPI   C2B  862   0.769   1.624   8.654  0.0527 -0.0233  0.1037
   54loPI   C3B  863   0.948   1.747   8.248  0.0146 -0.3103 -0.2678
   54loPI   C4B  864   1.069   2.162   8.080 -0.0483  0.1505  0.0673
   55loPI    C1  865  12.218  10.955  10.193 -0.0237 -0.1782 -0.0617
   55loPI    C2  866  11.977  11.164  10.434 -0.1105  0.1041 -0.3862
   55loPI    C3  867  11.942  10.766  10.414 -0.3482  0.1133 -0.2086
   55loPI   PO4  868  12.141  11.101   9.921  0.0479 -0.2643  0.1529
   55loPI   GL1  869  12.231  10.963   9.543  0.1282 -0.0185  0.0626
   55loPI   GL2  870  12.036  10.742   9.379 -0.0584 -0.0782  0.1748
   55loPI   C1A  871  12.471  10.950   9.198 -0.3307 -0.0056 -0.0765
   55loPI   C2A  872  12.408  10.904   8.844 -0.0541  0.1032  0.1441
   55loPI   C3A  873  12.496  10.707   8.426 -0.1611 -0.1264 -0.1018
   55loPI   C4A  874  12.481  10.524   8.058 -0.1352 -0.1640  0.0861
   55loPI   C5A  875  12.490  10.091   7.953 -0.0722 -0.1790  0.4264
   55loPI   C6A  876  12.228   9.711   7.686 -0.0604 -0.0707 -0.5745
   55loPI   C1B  877  11.899  10.688   8.903 -0.2150 -0.1245  0.2125
   55loPI   C2B  878  12.022  10.668   8.458 -0.3108  0.0227  0.1944
   55loPI   C3B  879  12.070  10.874   8.047 -0.0125  0.1296  0.4639
   55loPI   C4B  880  12.017  11.255   7.689  0.3569 -0.0967 -0.0261
   56loPI    C1  881  18.083   4.407  10.029 -0.1407 -0.0016 -0.1563
   56loPI    C2  882  17.710   4.484   9.905 -0.2408 -0.1515  0.0466
   56loPI    C3  883  17.838   4.626  10.257 -0.1130 -0.1190 -0.0123
   56loPI   PO4  884  18.252   4.478   9.801 -0.0502  0.0803 -0.4181
   56loPI   GL1  885  18.367   4.585   9.298  0.1844 -0.1255 -0.0886
   56loPI   GL2  886  18.744   4.535   9.250 -0.2509  0.2032  0.3867
   56loPI   C1A  887  18.441   4.470   8.909  0.0580  0.0412 -0.2860
   56loPI   C2A  888  18.437   4.489   8.471 -0.1157 -0.1363 -0.0916
   56loPI   C3A  889  18.545   4.164   8.152  0.3073 -0.4091  0.0140
   56loPI   C4A  890  18.619   4.072   7.720  0.1895  0.2892  0.0181
   56loPI   C5A  891  18.330   4.178   7.290 -0.1378 -0.0753  0.3615
   56loPI   C6A  892  18.001   4.338   7.047  0.1125  0.1130 -0.2525
   56loPI   C1B  893  18.906   4.544   8.809 -0.1490  0.0193  0.2660
   56loPI   C2B  894  18.906   4.597   8.401 -0.2340  0.1895  0.0891
   56loPI   C3B  895  19.096   4.846   8.045  0.0868  0.2188  0.0089
   56loPI   C4B  896  19.283   4.758   7.648 -0.0611  0.0941 -0.0832
   57loPI    C1  897   4.794  11.753   9.777 -0.0508  0.1703 -0.0613
   57loPI    C2  898   4.759  11.453  10.039 -0.1182 -0.0491 -0.3179
   57loPI    C3  899   4.820  11.826  10.170 -0.3812 -0.1196  0.0189
   57loPI   PO4  900   4.597  11.683   9.637  0.2304  0.1551 -0.3137
   57loPI   GL1  901   4.343  11.576   9.388 -0.0944  0.2123 -0.0200
   57loPI   GL2  902   4.446  11.269   9.228 -0.0798 -0.3005 -0.0984
   57loPI   C1A  903   4.395  11.841   9.006  0.0327 -0.1174 -0.0390
   57loPI   C2A  904   4.500  11.930   8.712  0.3723 -0.1573 -0.3444
   57loPI   C3A  905   4.394  12.061   8.288 -0.0194  0.1191  0.1739
   57loPI   C4A  906   4.399  12.016   7.872  0.0650  0.4231 -0.3136
   57loPI   C5A  907   4.239  11.805   7.572  0.1469 -0.2853 -0.0891
   57loPI   C6A  908   3.996  11.657   7.200  0.0897  0.0833 -0.0219
   57loPI   C1B  909   4.337  11.398   8.750 -0.3960 -0.0126 -0.1206
   57loPI   C2B  910   4.427  11.503   8.327  0.0453 -0.0120  0.1952
   57loPI   C3B  911   4.421  11.543   7.929 -0.1236  0.1595 -0.1859
   57loPI   C4B  912   4.334  11.285   7.525 -0.0560  0.0593 -0.0638
   58loPI    C1  913  13.805  16.381  10.239 -0.3680  0.3046 -0.0615
   58loPI    C2  914  13.723  16.670  10.503 -0.1454  0.2586  0.0606
   58loPI    C3  915  13.714  16.287  10.617  0.2942  0.2545  0.0980
   58loPI   PO4  916  13.819  16.504  10.006  0.2801  0.1586 -0.0260
   58loPI   GL1  917  13.651  16.657   9.582  0.2469 -0.1037  0.2317
   58loPI   GL2  918  13.906  16.398   9.510  0.4034 -0.4477  0.2198
   58loPI   C1A  919  13.509  16.543   9.203 -0.1148 -0.1246  0.1954
   58loPI   C2A  920  13.428  16.484   8.800 -0.1653  0.1238  0.1271
   58loPI   C3A  921  13.289  16.505   8.398 -0.2467 -0.2262 -0.1138
   58loPI   C4A  922  12.996  16.385   7.996  0.0055 -0.1640 -0.0684
   58loPI   C5A  923  13.127  16.027   7.813 -0.1622  0.3135  0.1427
   58loPI   C6A  924  12.789  15.786   8.032 -0.1660  0.1084  0.1018
   58loPI   C1B  925  13.992  16.481   9.054 -0.0424 -0.1168  0.2985
   58loPI   C2B  926  13.862  16.461   8.617 -0.3116 -0.1136 -0.3025
   58loPI   C3B  927  13.739  16.222   8.258  0.3423 -0.1255  0.0840
   58loPI   C4B  928  13.526  16.339   7.939  0.0144 -0.5059  0.0150
   59loPI    C1  929   8.737   1.331  10.100 -0.1696 -0.1124  0.1993
   59loPI    C2  930   9.115   1.231  10.183 -0.1144 -0.0238  0.0584
   59loPI    C3  931   8.838   1.220  10.471 -0.0423 -0.2622  0.1214
   59loPI   PO4  932   8.716   1.261   9.863  0.2345 -0.0694 -0.2547
   59loPI   GL1  933   8.832   1.358   9.395  0.1268  0.1398  0.0166
   59loPI   GL2  934   9.001   1.647   9.305 -0.2956  0.2383  0.2125
   59loPI   C1A  935   8.665   1.490   8.938 -0.0465  0.1249  0.0064
   59loPI   C2A  936   8.405   1.385   8.580 -0.1465 -0.1871 -0.3003
   59loPI   C3A  937   8.435   1.140   8.152 -0.2120  0.0230  0.1274
   59loPI   C4A  938   8.294   1.113   7.786 -0.0245  0.0825 -0.1304
   59loPI   C5A  939   8.012   0.952   7.495  0.0799  0.0927 -0.0657
   59loPI   C6A  940   7.719   0.662   7.419  0.1010  0.3586  0.2437
   59loPI   C1B  941   8.941   1.871   8.848 -0.2415 -0.1336 -0.2559
   59loPI   C2B  942   8.942   1.586   8.528  0.2545  0.1352  0.0798
   59loPI   C3B  943   8.870   1.411   8.083 -0.0612 -0.1572  0.3920
   59loPI   C4B  944   8.802   1.193   7.739 -0.0802 -0.2816 -0.0500
   60loPI    C1  945  16.271   2.262  10.080 -0.0276 -0.0125 -0.0939
   60loPI    C2  946  16.504   2.242  10.404  0.0229 -0.0230 -0.1307
   60loPI    C3  947  16.348   2.593  10.292 -0.1375 -0.0496  0.0048
   60loPI   PO4  948  16.334   2.047   9.919 -0.0605 -0.0532  0.2018
   60loPI   GL1  949  16.509   2.181   9.562 -0.1973 -0.0424 -0.1916
   60loPI   GL2  950  16.242   2.034   9.388  0.0744 -0.4087  0.0628
   60loPI   C1A  951  16.679   2.103   9.173 -0.1212  0.0622  0.2607
   60loPI   C2A  952  16.375   2.060   8.837 -0.0703  0.1088 -0.3155
   60loPI   C3A  953  16.411   1.873   8.498  0.3887 -0.0761 -0.2936
   60loPI   C4A  954  16.332   1.772   8.099 -0.0962 -0.1470 -0.3536
   60loPI   C5A  955  16.361   1.808   7.648  0.1081  0.0950 -0.1420
   60loPI   C6A  956  15.925   2.036   7.576  0.0639 -0.3289  0.1056
   60loPI   C1B  957  15.999   1.978   9.087  0.4394 -0.2055 -0.0202
   60loPI   C2B  958  15.773   2.240   8.813  0.1070  0.1036 -0.0155
   60loPI   C3B  959  15.581   2.714   8.871 -0.3138  0.5241  0.0266
   60loPI   C4B  960  15.551   2.961   8.621 -0.2929  0.0469  0.1633
   61loPI    C1  961  11.385  15.448  10.117 -0.1176  0.3496 -0.1661
   61loPI    C2  962  11.458  15.627  10.467 -0.0507  0.0397 -0.0187
   61loPI    C3  963  11.103  15.453  10.401 -0.0158 -0.0191 -0.0529
   61loPI   PO4  964  11.487  15.602   9.932  0.2168  0.0110  0.0601
   61loPI   GL1  965  11.414  15.682   9.574  0.1622 -0.1821  0.1797
   61loPI   GL2  966  11.134  15.353   9.474 -0.1013 -0.1310  0.0313
   61loPI   C1A  967  11.243  15.935   9.307 -0.0695 -0.2447  0.0728
   61loPI   C2A  968  11.305  15.775   8.920 -0.0771 -0.0448 -0.0812
   61loPI   C3A  969  11.082  15.907   8.528  0.2984  0.1030 -0.0104
   61loPI   C4A  970  10.889  15.879   8.185 -0.2929 -0.0149 -0.2009
   61loPI   C5A  971  10.941  15.862   7.813  0.2632 -0.0336 -0.0801
   61loPI   C6A  972  10.982  16.171   7.452 -0.0060  0.0591  0.0207
   61loPI   C1B  973  10.956  15.503   9.081  0.0133  0.0437 -0.3965
   61loPI   C2B  974  10.987  15.405   8.629  0.0941 -0.0622  0.1123
   61loPI   C3B  975  10.797  15.310   8.248 -0.3003 -0.0340 -0.0905
   61loPI   C4B  976  10.440  15.335   7.923 -0.2423 -0.0222 -0.1771
   62loPI    C1  977  14.876   5.974   9.580 -0.0050 -0.1065 -0.0013
   62loPI    C2  978  14.673   5.738   9.832  0.2242 -0.4404 -0.1223
   62loPI    C3  979  15.067   5.688   9.784  0.2442 -0.1492 -0.2873
   62loPI   PO4  980  14.661   6.057   9.439 -0.1699 -0.1396 -0.1520
   62loPI   GL1  981  14.283   5.875   9.284 -0.0042 -0.0042  0.0755
   62loPI   GL2  982  14.044   5.542   9.279 -0.0351  0.0113 -0.2517
   62loPI   C1A  983  14.326   5.812   8.907  0.1510 -0.1383  0.0020
   62loPI   C2A  984  14.433   5.635   8.537 -0.0627  0.0997  0.3610
   62loPI   C3A  985  14.465   5.548   8.043 -0.4760 -0.4917  0.0083
   62loPI   C4A  986  14.226   5.530   7.686 -0.2599  0.0745 -0.0381
   62loPI   C5A  987  13.837   5.595   7.450 -0.4090 -0.1859 -0.2293
   62loPI   C6A  988  13.542   5.848   7.315 -0.0616  0.0648  0.1302
   62loPI   C1B  989  13.930   5.488   8.842  0.0430 -0.1148  0.2328
   62loPI   C2B  990  13.930   5.481   8.336  0.1611  0.0791 -0.1598
   62loPI   C3B  991  13.875   5.669   7.958  0.3194 -0.2725 -0.1352
   62loPI   C4B  992  13.866   6.094   7.632 -0.0127  0.0548  0.0402
   63loPI    C1  993  16.079   3.046  10.021 -0.1317  0.0546  0.1177
   63loPI    C2  994  15.800   2.954  10.293 -0.1003 -0.0460  0.1161
   63loPI    C3  995  15.996   3.302  10.317 -0.3171  0.0833  0.0423
   63loPI   PO4  996  15.943   2.956   9.752  0.0955  0.0773  0.0868
   63loPI   GL1  997  16.138   2.997   9.240  0.4898  0.0269 -0.1397
   63loPI   GL2  998  15.998   2.739   9.235  0.2710  0.0327  0.2781
   63loPI   C1A  999  15.913   3.206   9.034  0.0094 -0.1045  0.2239
   63loPI   C2A 1000  15.559   3.401   8.883 -0.0204  0.2099 -0.3274
   63loPI   C3A 1001  15.096   3.290   8.758 -0.3568  0.0250  0.0412
   63loPI   C4A 1002  15.133   3.262   8.427  0.1326 -0.2828  0.0643
   63loPI   C5A 1003  15.011   3.173   8.008  0.1836 -0.0479 -0.0226
   63loPI   C6A 1004  15.012   2.957   7.684  0.0929  0.2628 -0.1794
   63loPI   C1B 1005  16.123   2.648   8.915  0.2914 -0.3628 -0.0741
   63loPI   C2B 1006  16.008   2.759   8.521  0.5058  0.2823 -0.3606
   63loPI   C3B 1007  16.183   2.751   8.178 -0.1232  0.0566  0.0511
   63loPI   C4B 1008  16.494   3.048   8.191  0.1945  0.1228  0.0749
   64loPI    C1 1009  12.822   2.937   9.668 -0.0151  0.0043  0.1074
   64loPI    C2 1010  12.744   2.546   9.637 -0.1382  0.0284  0.1053
   64loPI    C3 1011  12.890   2.695   9.979 -0.0523 -0.0253  0.0925
   64loPI   PO4 1012  12.590   3.055   9.574 -0.0528  0.1342  0.2311
   64loPI   GL1 1013  12.314   2.647   9.358  0.2162  0.4808 -0.0075
   64loPI   GL2 1014  12.030   2.673   9.123  0.0791 -0.0812  0.0213
   64loPI   C1A 1015  12.556   2.513   9.023  0.0919 -0.1414  0.0287
   64loPI   C2A 1016  12.645   2.392   8.550 -0.1132 -0.1420 -0.1135
   64loPI   C3A 1017  12.510   2.270   8.091  0.2542 -0.0178 -0.2543
   64loPI   C4A 1018  12.498   2.414   7.674 -0.3318  0.0559  0.4988
   64loPI   C5A 1019  12.330   2.604   7.298 -0.2856  0.1382 -0.0798
   64loPI   C6A 1020  12.387   2.656   6.880  0.2091 -0.1381 -0.0257
   64loPI   C1B 1021  11.945   2.487   8.730  0.0840  0.1287 -0.2846
   64loPI   C2B 1022  12.016   2.658   8.275  0.0239  0.1101 -0.0407
   64loPI   C3B 1023  12.076   2.591   7.855  0.3300  0.1016  0.2734
   64loPI   C4B 1024  12.012   2.322   7.562 -0.2003  0.2518  0.0951
   65loPI    C1 1025  14.638  15.843  10.166  0.3381  0.0229 -0.0999
   65loPI    C2 1026  15.008  15.771  10.298  0.1854 -0.0084  0.3270
   65loPI    C3 1027  14.750  15.972  10.527 -0.1133 -0.1271  0.1010
   65loPI   PO4 1028  14.699  15.852   9.879  0.0112  0.0927  0.2398
   65loPI   GL1 1029  14.328  15.893   9.579 -0.2976  0.0797 -0.0293
   65loPI   GL2 1030  14.431  15.614   9.409  0.2250  0.0367 -0.3941
   65loPI   C1A 1031  14.122  16.042   9.194 -0.0865  0.0527 -0.1256
   65loPI   C2A 1032  14.116  15.920   8.811 -0.1853  0.2235 -0.2271
   65loPI   C3A 1033  14.052  15.836   8.375  0.0711  0.0817  0.0207
   65loPI   C4A 1034  14.077  15.561   8.007 -0.0771  0.0029  0.1577
   65loPI   C5A 1035  14.018  15.554   7.511  0.0128  0.0231  0.3581
   65loPI   C6A 1036  14.026  15.159   7.226 -0.1671 -0.3236 -0.1456
   65loPI   C1B 1037  14.515  15.417   8.962 -0.0027  0.0925  0.0730
   65loPI   C2B 1038  14.423  15.483   8.556 -0.0339  0.1743 -0.1519
   65loPI   C3B 1039  14.569  15.387   8.064 -0.1129  0.0012  0.0756
   65loPI   C4B 1040  14.421  15.385   7.676 -0.1827  0.1426 -0.1338
   66loPI    C1 1041   5.192   4.153  10.527 -0.1967 -0.0132  0.2377
   66loPI    C2 1042   5.391   3.816  10.613  0.1580  0.1190 -0.0393
   66loPI    C3 1043   5.460   4.149  10.824  0.2152  0.1585 -0.1195
   66loPI   PO4 1044   5.168   4.203  10.257 -0.3154  0.2066 -0.2635
   66loPI   GL1 1045   5.311   4.542  10.040 -0.3087 -0.0672  0.2277
   66loPI   GL2 1046   5.558   4.283   9.915  0.1737 -0.0823 -0.0449
   66loPI   C1A 1047   5.144   4.701   9.667  0.1562 -0.2766 -0.3176
   66loPI   C2A 1048   5.057   4.486   9.278  0.0156 -0.1685  0.1504
   66loPI   C3A 1049   4.665   4.351   9.158  0.0907  0.0487  0.1568
   66loPI   C4A 1050   4.531   4.349   8.744  0.1728 -0.1323 -0.1338
   66loPI   C5A 1051   4.382   4.331   8.339  0.1268  0.3398  0.0243
   66loPI   C6A 1052   4.266   4.096   7.911 -0.2714 -0.0525 -0.0713
   66loPI   C1B 1053   5.537   4.499   9.467  0.1949 -0.3622 -0.0919
   66loPI   C2B 1054   5.641   4.365   9.062  0.3330 -0.3348  0.0070
   66loPI   C3B 1055   5.816   4.327   8.625 -0.0944  0.1114  0.2585
   66loPI   C4B 1056   6.135   4.314   8.246 -0.0612  0.0745  0.0436
   67loPI    C1 1057  12.240  11.788  10.406 -0.1905  0.1393  0.1781
   67loPI    C2 1058  12.552  11.784  10.656 -0.2691  0.2324  0.2789
   67loPI    C3 1059  12.269  11.503  10.684 -0.0999  0.0368  0.0647
   67loPI   PO4 1060  12.277  11.777  10.059 -0.0419 -0.3147 -0.0967
   67loPI   GL1 1061  12.107  11.749   9.679 -0.0797 -0.0739 -0.0668
   67loPI   GL2 1062  12.339  12.155   9.632  0.2134 -0.1778 -0.2175
   67loPI   C1A 1063  11.892  11.871   9.200 -0.1051 -0.1024 -0.0500
   67loPI   C2A 1064  11.872  11.785   8.748  0.1924 -0.0297  0.0112
   67loPI   C3A 1065  11.937  11.612   8.282  0.4395 -0.1299  0.0098
   67loPI   C4A 1066  11.635  11.431   7.950 -0.1669 -0.3640  0.2004
   67loPI   C5A 1067  11.353  11.379   7.621 -0.0716  0.0857  0.2060
   67loPI   C6A 1068  10.906  11.306   7.632  0.1785 -0.4209  0.0113
   67loPI   C1B 1069  12.420  11.896   9.324  0.2962  0.1278 -0.0694
   67loPI   C2B 1070  12.431  11.828   8.842  0.0615  0.1550  0.1168
   67loPI   C3B 1071  12.460  11.847   8.339 -0.0580  0.0957 -0.0164
   67loPI   C4B 1072  12.746  11.955   7.966 -0.0297 -0.1596  0.1818
   68loPI    C1 1073  17.334   8.575   9.745 -0.1034 -0.1543  0.1084
   68loPI    C2 1074  17.015   8.775   9.612 -0.0363 -0.1343 -0.0251
   68loPI    C3 1075  17.079   8.738  10.005 -0.0372  0.1255  0.0010
   68loPI   PO4 1076  17.335   8.410   9.605  0.2095  0.0160 -0.2579
   68loPI   GL1 1077  17.318   8.259   9.131  0.0097 -0.1183 -0.0446
   68loPI   GL2 1078  17.509   8.593   9.141 -0.0369 -0.1964  0.0603
   68loPI   C1A 1079  17.077   8.528   8.878  0.0604  0.0544 -0.3007
   68loPI   C2A 1080  16.979   8.613   8.475  0.2318 -0.1005  0.0198
   68loPI   C3A 1081  17.069   8.795   8.082 -0.2089  0.0770  0.3596
   68loPI   C4A 1082  17.166   9.004   7.697 -0.2391 -0.2714 -0.1193
   68loPI   C5A 1083  17.424   9.055   7.535  0.0839  0.0136  0.1075
   68loPI   C6A 1084  17.839   9.128   7.322  0.1427 -0.0991 -0.0502
   68loPI   C1B 1085  17.545   8.610   8.702  0.2045 -0.0547  0.0944
   68loPI   C2B 1086  17.565   8.636   8.240 -0.1085  0.4121  0.0572
   68loPI   C3B 1087  17.715   8.634   7.824  0.2939  0.1382  0.1039
   68loPI   C4B 1088  17.637   8.670   7.357  0.0901  0.2701 -0.1557
   69loPI    C1 1089   2.659   4.628  10.502 -0.1802 -0.0539  0.0987
   69loPI    C2 1090   2.822   4.318  10.695 -0.0299 -0.0394 -0.0033
   69loPI    C3 1091   3.042   4.531  10.437 -0.1229  0.1726  0.0901
   69loPI   PO4 1092   2.480   4.693  10.542 -0.2524  0.0823  0.0492
   69loPI   GL1 1093   2.056   4.790  10.196  0.1454  0.0435  0.2730
   69loPI   GL2 1094   2.263   4.550  10.000 -0.2512 -0.1512 -0.3687
   69loPI   C1A 1095   1.864   4.898   9.700 -0.2083  0.1803 -0.0137
   69loPI   C2A 1096   2.009   4.545   9.369 -0.1584  0.1517 -0.0410
   69loPI   C3A 1097   2.020   4.379   8.990  0.0615 -0.3316 -0.1471
   69loPI   C4A 1098   2.128   4.341   8.626  0.1260  0.2712 -0.1983
   69loPI   C5A 1099   2.369   4.266   8.375  0.0689 -0.0622 -0.0102
   69loPI   C6A 1100   2.556   4.364   8.028  0.3962  0.0553  0.0969
   69loPI   C1B 1101   2.296   4.272   9.700  0.2943  0.0515  0.2304
   69loPI   C2B 1102   2.316   4.140   9.309 -0.2239 -0.1748  0.1526
   69loPI   C3B 1103   2.451   4.150   8.953  0.0710  0.0346 -0.3810
   69loPI   C4B 1104   2.722   4.139   8.667 -0.3721  0.0945 -0.1454
   70loPI    C1 1105  12.867  17.741  10.189  0.0432 -0.2966 -0.0175
   70loPI    C2 1106  12.818  17.828  10.576  0.1068 -0.1063 -0.0510
   70loPI    C3 1107  12.500  17.798  10.336  0.0708 -0.1739  0.0050
   70loPI   PO4 1108  12.984  17.841  10.050 -0.0840 -0.2985 -0.2249
   70loPI   GL1 1109  13.078  17.701   9.560  0.1846  0.1932  0.0347
   70loPI   GL2 1110  13.006  17.401   9.386  0.1442 -0.3519 -0.0298
   70loPI   C1A 1111  12.976  17.854   9.110 -0.3258  0.0551  0.1688
   70loPI   C2A 1112  13.021  17.693   8.754 -0.0326  0.2487 -0.1196
   70loPI   C3A 1113  13.077  17.389   8.478 -0.1363  0.1285  0.3128
   70loPI   C4A 1114  13.122  17.404   8.115 -0.3463  0.1258  0.1059
   70loPI   C5A 1115  13.115  17.345   7.728  0.0645 -0.2681 -0.4622
   70loPI   C6A 1116  13.141  17.633   7.371 -0.1915 -0.1521 -0.1621
   70loPI   C1B 1117  12.955  17.223   8.978  0.0676  0.1184 -0.0400
   70loPI   C2B 1118  12.867  16.938   8.584 -0.0749 -0.1377  0.1760
   70loPI   C3B 1119  12.980  16.891   8.116 -0.1412  0.1757 -0.0047
   70loPI   C4B 1120  13.335  16.925   7.931 -0.0192 -0.2348  0.0044
   71loPI    C1 1121   5.331   6.393  10.099  0.2998 -0.0810 -0.1450
   71loPI    C2 1122   5.634   6.407  10.360  0.1431 -0.1644  0.0439
   71loPI    C3 1123   5.308   6.631  10.420 -0.0072 -0.3862  0.0668
   71loPI   PO4 1124   5.409   6.411   9.915 -0.0857 -0.1166  0.0165
   71loPI   GL1 1125   5.465   6.025   9.735 -0.3437 -0.1123  0.3605
   71loPI   GL2 1126   5.134   5.972   9.664  0.4228  0.2869 -0.1116
   71loPI   C1A 1127   5.473   6.050   9.267  0.0073  0.3292  0.1578
   71loPI   C2A 1128   5.480   5.776   8.929  0.2526  0.1839  0.2229
   71loPI   C3A 1129   5.437   5.747   8.568  0.0407 -0.4478 -0.0091
   71loPI   C4A 1130   5.456   5.700   8.105  0.0558 -0.0950 -0.0339
   71loPI   C5A 1131   5.440   5.681   7.771  0.0448 -0.1279 -0.2604
   71loPI   C6A 1132   5.667   5.530   7.532  0.0748 -0.1487  0.1354
   71loPI   C1B 1133   5.021   5.883   9.238 -0.0745  0.4405  0.0236
   71loPI   C2B 1134   4.959   5.834   8.847 -0.1229  0.0544 -0.1013
   71loPI   C3B 1135   4.970   5.836   8.465  0.1545 -0.3049 -0.0654
   71loPI   C4B 1136   4.744   6.080   8.052  0.0904 -0.0420  0.1039
   72loPI    C1 1137  12.027  12.760  10.264 -0.0832  0.1673 -0.0943
   72loPI    C2 1138  11.754  12.476  10.193 -0.0433  0.1286 -0.0932
   72loPI    C3 1139  11.853  12.568  10.569 -0.0930  0.1792 -0.0924
   72loPI   PO4 1140  12.150  12.640   9.904 -0.0612  0.2112  0.1928
   72loPI   GL1 1141  12.373  12.681   9.502 -0.0082  0.4016  0.1574
   72loPI   GL2 1142  12.222  13.007   9.409  0.3006 -0.1868  0.1466
   72loPI   C1A 1143  12.227  12.383   9.195  0.3416 -0.3193 -0.0828
   72loPI   C2A 1144  12.023  12.243   8.825 -0.1084 -0.2174 -0.1483
   72loPI   C3A 1145  12.063  12.110   8.382  0.2207  0.0472 -0.0216
   72loPI   C4A 1146  12.171  11.878   7.894 -0.0237 -0.3430  0.0031
   72loPI   C5A 1147  12.168  11.725   7.471 -0.0969 -0.1169 -0.0938
   72loPI   C6A 1148  12.247  11.908   7.113  0.1011 -0.0654  0.0507
   72loPI   C1B 1149  12.030  12.853   9.107  0.1720 -0.1839  0.1005
   72loPI   C2B 1150  12.239  12.713   8.835 -0.1759  0.0185  0.2748
   72loPI   C3B 1151  12.304  12.761   8.443 -0.1477  0.2656  0.0080
   72loPI   C4B 1152  11.993  12.563   8.260 -0.1282 -0.0969 -0.1265
   73loPI    C1 1153  12.232  15.821  10.050  0.3553  0.0816 -0.1952
   73loPI    C2 1154  12.573  15.687  10.213  0.1984  0.2161  0.2578
   73loPI    C3 1155  12.295  15.860  10.444 -0.2060  0.0545 -0.0949
   73loPI   PO4 1156  12.331  15.911   9.842 -0.0940  0.0184 -0.2824
   73loPI   GL1 1157  12.229  16.017   9.472 -0.2150  0.0557  0.0614
   73loPI   GL2 1158  12.292  15.715   9.362 -0.3522  0.0622  0.1494
   73loPI   C1A 1159  11.797  16.009   9.253  0.1697 -0.2480 -0.2321
   73loPI   C2A 1160  11.455  16.251   9.002 -0.2810 -0.2405 -0.0526
   73loPI   C3A 1161  11.478  16.240   8.486 -0.0126  0.2367  0.0617
   73loPI   C4A 1162  11.346  16.004   8.117  0.1779 -0.0229 -0.2998
   73loPI   C5A 1163  11.414  15.887   7.693 -0.0459 -0.1042  0.2491
   73loPI   C6A 1164  11.225  15.702   7.329 -0.1230 -0.0736  0.0274
   73loPI   C1B 1165  12.210  15.637   8.987  0.3395  0.1064 -0.2317
   73loPI   C2B 1166  12.164  15.624   8.457  0.3496 -0.2985  0.0765
   73loPI   C3B 1167  12.253  15.666   8.007  0.1257  0.0257  0.6195
   73loPI   C4B 1168  12.109  15.846   7.635 -0.2836  0.1460 -0.0239
   74loPI    C1 1169   4.455  17.816   9.994  0.0482 -0.1186  0.0611
   74loPI    C2 1170   4.739  17.644  10.217  0.0244  0.1280  0.2875
   74loPI    C3 1171   4.830  17.956   9.983 -0.0257  0.0994  0.2297
   74loPI   PO4 1172   4.342  17.619   9.717  0.1887  0.0808 -0.2157
   74loPI   GL1 1173   4.295  17.352   9.383  0.0737  0.4680  0.1133
   74loPI   GL2 1174   4.463  17.650   9.229  0.0084  0.0942  0.1996
   74loPI   C1A 1175   4.046  17.345   9.018  0.1082 -0.3180 -0.0844
   74loPI   C2A 1176   4.126  17.457   8.681  0.2120 -0.1534 -0.0960
   74loPI   C3A 1177   4.068  17.549   8.248  0.2230 -0.0294 -0.0544
   74loPI   C4A 1178   3.800  17.544   7.898  0.0668  0.2632 -0.1572
   74loPI   C5A 1179   3.571  17.540   7.616 -0.2393  0.2029  0.1504
   74loPI   C6A 1180   3.297  17.697   7.406  0.0587 -0.2216  0.1800
   74loPI   C1B 1181   4.468  17.827   8.779 -0.0051  0.0120 -0.1756
   74loPI   C2B 1182   4.359  17.991   8.408  0.0162 -0.2228  0.2760
   74loPI   C3B 1183   4.456  18.483   8.112  0.2816  0.1043  0.6193
   74loPI   C4B 1184   4.307  18.764   7.886 -0.2371  0.0515 -0.1473
   75loPI    C1 1185  19.036  12.568  10.039  0.1289  0.1487  0.0089
   75loPI    C2 1186  19.433  12.600   9.995  0.1647  0.0129  0.2174
   75loPI    C3 1187  19.249  12.791  10.294  0.0671  0.1029  0.1010
   75loPI   PO4 1188  18.974  12.505   9.729  0.1106  0.1188 -0.1164
   75loPI   GL1 1189  18.880  12.565   9.215  0.0326 -0.3331 -0.1183
   75loPI   GL2 1190  19.168  12.567   9.169  0.1331 -0.1398  0.0218
   75loPI   C1A 1191  18.906  12.901   8.895  0.0405  0.0137 -0.4085
   75loPI   C2A 1192  18.923  13.238   8.566 -0.3399  0.2337 -0.0980
   75loPI   C3A 1193  18.703  13.352   8.261  0.2858  0.0698 -0.1334
   75loPI   C4A 1194  18.471  13.065   8.016  0.0587  0.0169  0.3008
   75loPI   C5A 1195  18.496  13.025   7.589  0.3515  0.0880  0.2147
   75loPI   C6A 1196  18.382  12.893   7.126  0.3023 -0.1119  0.1978
   75loPI   C1B 1197  19.117  12.428   8.733  0.5395 -0.3290  0.0373
   75loPI   C2B 1198  19.207  12.251   8.314  0.2630  0.0350 -0.4437
   75loPI   C3B 1199  19.249  12.092   7.962 -0.0446  0.0933  0.3061
   75loPI   C4B 1200  19.362  12.048   7.458  0.1200  0.0081 -0.2967
   76loPI    C1 1201   6.876  15.154  10.626  0.2529  0.4203  0.0043
   76loPI    C2 1202   7.132  15.397  10.813  0.4030  0.1160  0.2033
   76loPI    C3 1203   6.856  15.198  11.023  0.3882 -0.0111  0.0649
   76loPI   PO4 1204   6.992  15.276  10.326  0.3857  0.1174 -0.0474
   76loPI   GL1 1205   7.047  15.484   9.860  0.0074 -0.1704  0.2176
   76loPI   GL2 1206   6.790  15.221   9.818  0.1077  0.3131 -0.3225
   76loPI   C1A 1207   7.019  15.838   9.635  0.1591  0.1743 -0.3312
   76loPI   C2A 1208   6.825  15.839   9.208  0.2087  0.3111 -0.0823
   76loPI   C3A 1209   6.773  16.032   8.841 -0.4231 -0.1103 -0.0284
   76loPI   C4A 1210   6.813  16.146   8.410  0.3076  0.0224  0.1136
   76loPI   C5A 1211   6.664  16.025   7.933  0.1008 -0.1924 -0.2499
   76loPI   C6A 1212   6.681  15.616   7.853  0.1014 -0.1390 -0.0786
   76loPI   C1B 1213   6.717  15.379   9.392 -0.0623  0.1884 -0.0288
   76loPI   C2B 1214   6.884  15.287   9.050  0.2102  0.2351  0.1616
   76loPI   C3B 1215   6.852  15.439   8.725 -0.2759  0.0923  0.0086
   76loPI   C4B 1216   7.096  15.736   8.547 -0.3537 -0.3645  0.1267
   77loPI    C1 1217   4.948   1.409  10.558 -0.0813 -0.0562  0.0990
   77loPI    C2 1218   5.158   1.335  10.889 -0.1787 -0.3233  0.1042
   77loPI    C3 1219   4.761   1.373  10.910 -0.1399  0.1417  0.0889
   77loPI   PO4 1220   5.023   1.646  10.432 -0.5645  0.1157 -0.1685
   77loPI   GL1 1221   5.157   1.770   9.995 -0.1863 -0.0475  0.2310
   77loPI   GL2 1222   5.419   1.579   9.880 -0.1671 -0.0835 -0.1466
   77loPI   C1A 1223   5.061   2.025   9.558 -0.2295 -0.0307 -0.1030
   77loPI   C2A 1224   4.898   2.048   9.134  0.1732  0.2372 -0.3342
   77loPI   C3A 1225   4.956   2.125   8.698 -0.2924 -0.1814 -0.1503
   77loPI   C4A 1226   5.242   1.865   8.421 -0.0100  0.2999 -0.0780
   77loPI   C5A 1227   5.504   1.873   8.102  0.1816 -0.1695 -0.1624
   77loPI   C6A 1228   5.663   1.569   7.838 -0.1573 -0.1822 -0.0475
   77loPI   C1B 1229   5.257   1.510   9.406 -0.2433 -0.0129  0.2303
   77loPI   C2B 1230   5.119   1.519   8.942  0.1416 -0.0339  0.3581
   77loPI   C3B 1231   5.243   1.350   8.528  0.3426  0.1684  0.1922
   77loPI   C4B 1232   5.242   1.299   8.133 -0.1693  0.0141 -0.0743
   78loPI    C1 1233   3.119  11.974  10.126 -0.0175  0.2362 -0.1154
   78loPI    C2 1234   3.302  12.316  10.030 -0.1449  0.2760 -0.2204
   78loPI    C3 1235   2.913  12.317  10.124 -0.0571  0.2166  0.1628
   78loPI   PO4 1236   3.144  11.832   9.920 -0.0141 -0.2452  0.2385
   78loPI   GL1 1237   2.988  11.712   9.615  0.0025 -0.1202 -0.0562
   78loPI   GL2 1238   3.194  11.526   9.483  0.0206 -0.1753  0.2369
   78loPI   C1A 1239   2.901  11.926   9.171 -0.0079 -0.4069  0.0962
   78loPI   C2A 1240   2.968  11.695   8.789 -0.2420 -0.5096 -0.2237
   78loPI   C3A 1241   2.905  11.605   8.300 -0.3035  0.1536 -0.0578
   78loPI   C4A 1242   2.665  11.250   8.160  0.3006  0.2295 -0.0999
   78loPI   C5A 1243   2.726  10.887   7.791 -0.2236  0.1562  0.1565
   78loPI   C6A 1244   2.867  10.920   7.464  0.1311 -0.0428  0.0421
   78loPI   C1B 1245   3.409  11.535   8.995  0.0863 -0.0700  0.0414
   78loPI   C2B 1246   3.374  11.486   8.573 -0.0938  0.2154 -0.0282
   78loPI   C3B 1247   3.518  11.446   8.137 -0.1593  0.2284  0.0461
   78loPI   C4B 1248   3.518  11.508   7.702 -0.0353 -0.0384  0.6381
   79loPI    C1 1249   2.471  15.552   9.684 -0.0638  0.3674 -0.0353
   79loPI    C2 1250   2.731  15.637   9.976  0.0038  0.0634 -0.0047
   79loPI    C3 1251   2.338  15.636  10.051  0.0148  0.1107  0.0536
   79loPI   PO4 1252   2.613  15.628   9.502 -0.0146 -0.0292 -0.1522
   79loPI   GL1 1253   2.602  15.968   9.066  0.0706  0.0848  0.2560
   79loPI   GL2 1254   2.877  16.069   9.386 -0.0751 -0.0060  0.0013
   79loPI   C1A 1255   2.632  15.895   8.499  0.3771 -0.0395  0.2915
   79loPI   C2A 1256   2.793  15.909   8.009  0.2012 -0.1944 -0.0452
   79loPI   C3A 1257   2.959  15.643   7.602 -0.1835 -0.2443 -0.0897
   79loPI   C4A 1258   3.331  15.531   7.400  0.1370 -0.0785 -0.0634
   79loPI   C5A 1259   3.715  15.541   7.112  0.0306 -0.0057  0.4729
   79loPI   C6A 1260   4.106  15.629   7.328 -0.4973 -0.2852 -0.0893
   79loPI   C1B 1261   3.034  16.254   9.031  0.0159  0.0167  0.2631
   79loPI   C2B 1262   3.045  16.127   8.580 -0.0529  0.0380 -0.1335
   79loPI   C3B 1263   3.186  16.261   8.155  0.0251 -0.2044 -0.2102
   79loPI   C4B 1264   3.473  16.319   7.922  0.0181  0.2308 -0.1844
   80loPI    C1 1265  14.155   7.356   9.651  0.0869  0.0925 -0.0622
   80loPI    C2 1266  14.000   7.698   9.788  0.0635 -0.0129  0.1782
   80loPI    C3 1267  13.834   7.348   9.889  0.0641 -0.0947 -0.0978
   80loPI   PO4 1268  14.127   7.408   9.363  0.3132  0.0946 -0.0315
   80loPI   GL1 1269  14.304   7.287   8.927 -0.0446  0.0581  0.1146
   80loPI   GL2 1270  14.245   6.971   9.009  0.1683  0.2290 -0.0691
   80loPI   C1A 1271  14.266   7.446   8.491  0.0790 -0.3278  0.2660
   80loPI   C2A 1272  14.192   7.385   7.994 -0.1662  0.2891  0.0681
   80loPI   C3A 1273  14.267   7.143   7.545  0.4212  0.0954  0.2641
   80loPI   C4A 1274  14.640   6.921   7.362  0.0881  0.0232  0.1141
   80loPI   C5A 1275  14.872   6.895   7.073  0.5468  0.1788  0.1714
   80loPI   C6A 1276  14.889   6.676   6.748 -0.0926 -0.0332  0.1128
   80loPI   C1B 1277  14.143   6.921   8.632 -0.0230 -0.2670  0.0623
   80loPI   C2B 1278  13.886   6.938   8.252  0.2539 -0.0321  0.1724
   80loPI   C3B 1279  13.893   6.935   7.801 -0.1477 -0.1903  0.3311
   80loPI   C4B 1280  13.688   6.623   7.508 -0.0112 -0.0381  0.0471
   81loPI    C1 1281  11.471  13.283  10.121  0.1874  0.1070  0.2323
   81loPI    C2 1282  11.810  13.411  10.290  0.1229  0.0854  0.3795
   81loPI    C3 1283  11.462  13.454  10.482 -0.0310  0.5821  0.0104
   81loPI   PO4 1284  11.512  13.317   9.858 -0.1364 -0.0490 -0.0087
   81loPI   GL1 1285  11.705  13.095   9.468  0.1764  0.2295  0.0820
   81loPI   GL2 1286  11.366  13.350   9.330  0.0940 -0.1906  0.0056
   81loPI   C1A 1287  11.725  13.231   8.936  0.1084 -0.2745 -0.0884
   81loPI   C2A 1288  11.549  13.377   8.521 -0.1144  0.2902  0.1263
   81loPI   C3A 1289  11.322  13.186   8.201 -0.6612 -0.4643 -0.0390
   81loPI   C4A 1290  11.061  13.143   7.841  0.4267  0.4449  0.0883
   81loPI   C5A 1291  10.886  12.828   7.676  0.0439  0.2386  0.0662
   81loPI   C6A 1292  10.845  12.367   7.623  0.1362  0.0465  0.2851
   81loPI   C1B 1293  11.264  13.319   8.903 -0.1069 -0.2817 -0.1375
   81loPI   C2B 1294  11.236  12.932   8.627  0.0335 -0.0320  0.1626
   81loPI   C3B 1295  10.885  12.806   8.263 -0.0284  0.0429 -0.2657
   81loPI   C4B 1296  10.616  13.092   8.036 -0.2508 -0.0865  0.0623
   82loPI    C1 1297  17.280  15.402   9.863  0.1402  0.0061 -0.0337
   82loPI    C2 1298  17.658  15.435   9.991  0.1279 -0.1334  0.0401
   82loPI    C3 1299  17.407  15.746  10.022  0.2487 -0.0265 -0.0490
   82loPI   PO4 1300  17.265  15.370   9.649  0.1420  0.2435 -0.0664
   82loPI   GL1 1301  17.049  15.449   9.199  0.0005 -0.0170 -0.0139
   82loPI   GL2 1302  17.306  15.572   8.948 -0.0576  0.0631  0.1573
   82loPI   C1A 1303  17.052  15.176   8.802 -0.1442  0.3216 -0.5466
   82loPI   C2A 1304  17.138  15.134   8.382 -0.1906 -0.2209 -0.0591
   82loPI   C3A 1305  17.155  15.003   7.947 -0.2241 -0.1248 -0.2287
   82loPI   C4A 1306  17.193  14.732   7.666  0.2016 -0.2273  0.1099
   82loPI   C5A 1307  17.489  14.539   7.338  0.4678  0.1571 -0.1918
   82loPI   C6A 1308  17.754  14.393   7.017  0.1072 -0.1863  0.0205
   82loPI   C1B 1309  16.956  15.657   8.668 -0.2425 -0.0948  0.2163
   82loPI   C2B 1310  16.782  15.769   8.342  0.2906 -0.1608  0.0811
   82loPI   C3B 1311  16.567  15.712   7.943  0.1660  0.1715  0.1863
   82loPI   C4B 1312  16.296  15.571   7.642 -0.0519  0.0040 -0.0309
   83loPI    C1 1313  17.319   1.036  10.011 -0.0997  0.0356 -0.0424
   83loPI    C2 1314  17.615   1.084  10.277 -0.0495 -0.1527 -0.0634
   83loPI    C3 1315  17.243   1.198  10.369  0.0114 -0.0017 -0.0015
   83loPI   PO4 1316  17.460   0.870   9.826 -0.4436  0.0748 -0.1889
   83loPI   GL1 1317  17.499   0.865   9.344  0.0137 -0.2588 -0.2451
   83loPI   GL2 1318  17.391   1.115   9.309 -0.0333  0.1578  0.1119
   83loPI   C1A 1319  17.745   0.781   8.947 -0.0542  0.2046 -0.0882
   83loPI   C2A 1320  17.697   0.612   8.589 -0.1609 -0.0955  0.1373
   83loPI   C3A 1321  17.797   0.297   8.371 -0.0658  0.2597  0.0372
   83loPI   C4A 1322  17.473   0.108   8.170 -0.2694 -0.0299  0.0866
   83loPI   C5A 1323  17.131   0.070   8.296  0.0323 -0.2124  0.1251
   83loPI   C6A 1324  16.784   0.049   8.646  0.2271 -0.1465 -0.0815
   83loPI   C1B 1325  17.639   1.267   8.929 -0.0986 -0.0494  0.1045
   83loPI   C2B 1326  17.803   1.508   8.507  0.1927  0.2452  0.0329
   83loPI   C3B 1327  17.682   1.521   8.143  0.0085 -0.0624  0.0305
   83loPI   C4B 1328  17.736   1.556   7.749  0.0660 -0.0665  0.2191
   84loPI    C1 1329   5.132  16.166  10.034 -0.0819  0.2408 -0.0824
   84loPI    C2 1330   5.067  15.940  10.358 -0.1046 -0.0090 -0.2588
   84loPI    C3 1331   4.862  16.280  10.307  0.1969  0.2519  0.1951
   84loPI   PO4 1332   5.101  15.934   9.784  0.2288  0.0457  0.1947
   84loPI   GL1 1333   5.202  15.857   9.302  0.0439 -0.1975 -0.2782
   84loPI   GL2 1334   4.877  15.959   9.292  0.1153  0.2215 -0.1634
   84loPI   C1A 1335   5.158  15.872   8.819 -0.3203  0.2997 -0.2117
   84loPI   C2A 1336   5.250  15.901   8.429  0.2511  0.1137  0.1624
   84loPI   C3A 1337   5.362  16.179   8.047  0.1557  0.3512  0.0546
   84loPI   C4A 1338   5.317  16.555   7.792  0.1069  0.0300 -0.2012
   84loPI   C5A 1339   5.093  16.866   7.509  0.2387 -0.1403 -0.0499
   84loPI   C6A 1340   4.892  17.307   7.327 -0.2707 -0.3613 -0.1974
   84loPI   C1B 1341   4.652  15.817   9.037 -0.2670  0.1007  0.0740
   84loPI   C2B 1342   4.614  15.706   8.553  0.0256 -0.1370 -0.0981
   84loPI   C3B 1343   4.533  15.836   8.089 -0.2205  0.1341  0.0310
   84loPI   C4B 1344   4.403  16.179   7.964 -0.3092  0.1329  0.2263
   85loPI    C1 1345   2.363  11.082  10.090  0.0185  0.4848 -0.2934
   85loPI    C2 1346   2.014  10.905  10.176  0.3417 -0.0442 -0.0169
   85loPI    C3 1347   2.058  11.299  10.233 -0.1855  0.0192  0.0028
   85loPI   PO4 1348   2.437  10.998   9.923  0.1271 -0.3891  0.1576
   85loPI   GL1 1349   2.573  11.138   9.495  0.1371 -0.0095 -0.1080
   85loPI   GL2 1350   2.794  11.183   9.469  0.4642  0.1111 -0.0533
   85loPI   C1A 1351   2.394  11.094   9.107 -0.1856  0.0643 -0.1103
   85loPI   C2A 1352   2.528  10.902   8.644  0.1825  0.2322 -0.1017
   85loPI   C3A 1353   2.637  10.630   8.276  0.2697 -0.1010 -0.4101
   85loPI   C4A 1354   2.642  10.307   7.889 -0.3068  0.1501 -0.0207
   85loPI   C5A 1355   2.592   9.963   7.574 -0.0092 -0.0733  0.2926
   85loPI   C6A 1356   2.338   9.591   7.517  0.1779 -0.0336 -0.3225
   85loPI   C1B 1357   2.870  11.238   9.089 -0.3332 -0.0325 -0.0213
   85loPI   C2B 1358   3.006  11.188   8.662  0.3162 -0.0378  0.3708
   85loPI   C3B 1359   3.134  11.105   8.218 -0.1330  0.1425 -0.0048
   85loPI   C4B 1360   3.175  11.171   7.705 -0.1217  0.2332  0.0676
   86loPI    C1 1361  14.378   9.298  10.089 -0.1617  0.1814  0.1182
   86loPI    C2 1362  14.399   8.934  10.253 -0.1427  0.1607  0.0702
   86loPI    C3 1363  14.718   9.176  10.261 -0.0601  0.0626 -0.1600
   86loPI   PO4 1364  14.213   9.245   9.787 -0.0468  0.0101  0.1017
   86loPI   GL1 1365  14.192   9.380   9.377  0.0252 -0.3955 -0.2398
   86loPI   GL2 1366  14.087   9.107   9.293  0.0033 -0.0064 -0.2734
   86loPI   C1A 1367  13.851   9.492   9.074 -0.0747  0.1392  0.3451
   86loPI   C2A 1368  13.745   9.492   8.712  0.0452 -0.1676  0.2595
   86loPI   C3A 1369  13.705   9.395   8.285 -0.0793  0.0378  0.1938
   86loPI   C4A 1370  13.915   9.263   7.909 -0.1339  0.0102  0.3194
   86loPI   C5A 1371  14.143   9.016   7.588 -0.0196 -0.2057  0.0095
   86loPI   C6A 1372  14.315   8.924   7.193  0.3492  0.1147  0.1963
   86loPI   C1B 1373  14.279   9.130   8.923 -0.3584  0.1188 -0.3872
   86loPI   C2B 1374  13.989   8.996   8.573  0.0244  0.0306  0.0415
   86loPI   C3B 1375  13.918   8.815   8.308 -0.3018 -0.0837 -0.1676
   86loPI   C4B 1376  13.865   8.707   7.850  0.2784 -0.0068  0.1055
   87loPI    C1 1377  16.698   5.154  10.151 -0.0702  0.0739 -0.0700
   87loPI    C2 1378  16.499   5.396  10.400  0.1509  0.1158  0.0690
   87loPI    C3 1379  16.468   4.999  10.440  0.0375  0.1214  0.0420
   87loPI   PO4 1380  16.963   5.143  10.140 -0.1150 -0.0372  0.0545
   87loPI   GL1 1381  17.127   4.987   9.775  0.0895  0.2055  0.0784
   87loPI   GL2 1382  17.331   4.656   9.601  0.1023 -0.2128 -0.2626
   87loPI   C1A 1383  17.187   5.042   9.334 -0.1194  0.1934  0.1124
   87loPI   C2A 1384  17.317   4.887   8.917 -0.1679 -0.1699  0.5499
   87loPI   C3A 1385  17.404   4.987   8.449  0.1498 -0.4455  0.3709
   87loPI   C4A 1386  17.519   4.976   8.082  0.3139  0.2833  0.0501
   87loPI   C5A 1387  17.696   5.038   7.616 -0.3213 -0.3918  0.0126
   87loPI   C6A 1388  17.584   5.292   7.269  0.0245 -0.1214  0.0220
   87loPI   C1B 1389  17.694   4.571   9.400 -0.1193 -0.0352  0.3362
   87loPI   C2B 1390  17.824   4.388   9.129 -0.1627  0.2481 -0.0109
   87loPI   C3B 1391  17.702   4.574   8.722 -0.3744  0.0907  0.1177
   87loPI   C4B 1392  17.505   4.518   8.387 -0.2362  0.2372  0.0294
   88loPI    C1 1393  14.855   1.242   9.872  0.1437  0.0677  0.0212
   88loPI    C2 1394  14.533   1.356  10.079  0.0923 -0.0142 -0.0129
   88loPI    C3 1395  14.891   1.513  10.163  0.0670 -0.0261  0.1189
   88loPI   PO4 1396  14.767   1.248   9.641 -0.0614 -0.0387 -0.1202
   88loPI   GL1 1397  14.893   1.075   9.231  0.0145  0.2285 -0.2353
   88loPI   GL2 1398  14.927   1.529   9.228  0.0523 -0.0347  0.0469
   88loPI   C1A 1399  15.129   1.158   8.834 -0.1413 -0.1300 -0.1460
   88loPI   C2A 1400  15.267   1.061   8.525  0.3551  0.0157 -0.0366
   88loPI   C3A 1401  15.120   1.160   8.014  0.1311  0.1783  0.2018
   88loPI   C4A 1402  15.072   1.501   7.679  0.0141  0.0725 -0.0455
   88loPI   C5A 1403  14.972   1.361   7.228  0.0152 -0.1192 -0.2623
   88loPI   C6A 1404  15.129   1.419   6.840  0.1972 -0.0364  0.0741
   88loPI   C1B 1405  15.117   1.644   8.701 -0.0630  0.1482 -0.0837
   88loPI   C2B 1406  15.439   1.944   8.561 -0.3108  0.1891  0.2226
   88loPI   C3B 1407  15.605   1.992   8.189 -0.3709  0.2847  0.1135
   88loPI   C4B 1408  15.704   2.273   7.927  0.1174 -0.1139  0.0006
   89loPI    C1 1409   7.877  14.167  10.263 -0.0361  0.0712  0.1583
   89loPI    C2 1410   7.720  13.861  10.467 -0.1848  0.0224 -0.0265
   89loPI    C3 1411   7.552  13.979  10.124 -0.0358  0.2116 -0.0357
   89loPI   PO4 1412   8.124  14.145  10.244  0.2677 -0.0380 -0.0257
   89loPI   GL1 1413   8.305  14.357   9.922  0.0673 -0.2634  0.3151
   89loPI   GL2 1414   8.608  14.607   9.787  0.0141 -0.0903  0.3262
   89loPI   C1A 1415   8.155  14.382   9.464 -0.0745 -0.0934  0.0437
   89loPI   C2A 1416   7.912  14.303   9.152 -0.0717  0.4858  0.0463
   89loPI   C3A 1417   7.785  14.607   8.808 -0.0539  0.2453 -0.0334
   89loPI   C4A 1418   8.119  14.477   8.438  0.2625 -0.0134  0.1479
   89loPI   C5A 1419   8.018  14.414   8.064  0.2140  0.0449  0.3004
   89loPI   C6A 1420   7.761  14.421   7.639 -0.2157 -0.1895 -0.1560
   89loPI   C1B 1421   8.620  14.457   9.442 -0.1021  0.1694 -0.1850
   89loPI   C2B 1422   8.410  14.335   9.025  0.0628 -0.2152 -0.1628
   89loPI   C3B 1423   8.116  13.992   8.815 -0.4343 -0.3628  0.5605
   89loPI   C4B 1424   7.727  13.770   8.803  0.2580 -0.1005 -0.2262
   90loPI    C1 1425  16.980  15.924  10.009  0.0827 -0.0567  0.2379
   90loPI    C2 1426  16.655  16.110  10.151  0.1197  0.2322 -0.0423
   90loPI    C3 1427  16.949  16.001  10.400 -0.1061  0.1366  0.1872
   90loPI   PO4 1428  17.044  16.109   9.799 -0.3310  0.2865  0.1455
   90loPI   GL1 1429  16.982  16.057   9.386  0.1074 -0.0886 -0.2834
   90loPI   GL2 1430  16.905  15.959   9.125  0.2782  0.1866 -0.1017
   90loPI   C1A 1431  17.260  16.362   9.060  0.0453 -0.0969 -0.1557
   90loPI   C2A 1432  17.168  16.678   8.845 -0.1348  0.2043 -0.0045
   90loPI   C3A 1433  17.209  16.790   8.388  0.1249 -0.3520  0.0636
   90loPI   C4A 1434  17.444  17.020   8.020  0.0701  0.0381 -0.3700
   90loPI   C5A 1435  17.818  17.041   7.761  0.2357 -0.2849 -0.0029
   90loPI   C6A 1436  18.025  16.877   7.394  0.0328  0.0849 -0.0926
   90loPI   C1B 1437  17.089  16.175   8.651  0.0243  0.0478  0.1670
   90loPI   C2B 1438  17.031  16.306   8.291  0.4219  0.0226  0.1797
   90loPI   C3B 1439  16.877  16.631   7.965 -0.3530  0.1894 -0.1558
   90loPI   C4B 1440  16.805  16.640   7.505 -0.2781  0.3556 -0.4377
   91loPI    C1 1441   3.508   4.763  10.257 -0.1459  0.2003  0.2344
   91loPI    C2 1442   3.563   4.501  10.554 -0.0581  0.1168  0.1454
   91loPI    C3 1443   3.735   4.861  10.571  0.0909  0.0480  0.1146
   91loPI   PO4 1444   3.629   4.704  10.060  0.3606 -0.0397  0.2797
   91loPI   GL1 1445   3.767   4.788   9.727  0.1752 -0.3019 -0.2527
   91loPI   GL2 1446   4.115   4.824   9.629 -0.0344 -0.0084 -0.2006
   91loPI   C1A 1447   3.515   4.888   9.375 -0.3098 -0.0162 -0.2747
   91loPI   C2A 1448   3.570   5.061   8.922 -0.1971  0.2755 -0.0012
   91loPI   C3A 1449   3.637   4.809   8.620 -0.0516 -0.2665 -0.0587
   91loPI   C4A 1450   3.547   4.461   8.418 -0.3901 -0.2160 -0.1190
   91loPI   C5A 1451   3.451   4.085   8.214 -0.1725  0.1112 -0.1462
   91loPI   C6A 1452   3.381   3.657   8.097 -0.1248 -0.0239  0.1151
   91loPI   C1B 1453   3.936   5.197   9.244 -0.0665  0.0725  0.1376
   91loPI   C2B 1454   3.695   5.585   9.161  0.3098  0.4467  0.0332
   91loPI   C3B 1455   3.757   5.982   9.255 -0.0011  0.2060 -0.0667
   91loPI   C4B 1456   4.077   6.300   9.223  0.1476  0.0003  0.2334
   92loPI    C1 1457   7.747   9.016  10.021  0.1448 -0.1746  0.1500
   92loPI    C2 1458   8.124   9.150  10.042  0.1416 -0.1891  0.3072
   92loPI    C3 1459   7.839   9.317  10.269 -0.0011 -0.0006 -0.0038
   92loPI   PO4 1460   7.785   8.736   9.951 -0.0393 -0.1964 -0.1247
   92loPI   GL1 1461   7.828   8.523   9.604  0.0774  0.0209 -0.0917
   92loPI   GL2 1462   8.138   8.649   9.289  0.0109 -0.0799 -0.0075
   92loPI   C1A 1463   7.652   8.806   9.189  0.1945  0.2720 -0.0802
   92loPI   C2A 1464   7.658   8.899   8.728  0.1003 -0.2176 -0.2944
   92loPI   C3A 1465   7.584   8.895   8.308 -0.1163 -0.1234  0.0802
   92loPI   C4A 1466   7.873   8.779   7.954 -0.0428 -0.2460  0.2009
   92loPI   C5A 1467   7.976   8.327   7.715  0.1387 -0.0436  0.0418
   92loPI   C6A 1468   8.145   7.937   7.678  0.0707 -0.3789 -0.1249
   92loPI   C1B 1469   8.099   8.809   8.915  0.1552  0.0938 -0.0002
   92loPI   C2B 1470   8.069   8.801   8.475  0.0407  0.0716  0.0088
   92loPI   C3B 1471   8.302   8.881   8.086  0.0217  0.1157  0.1605
   92loPI   C4B 1472   8.314   9.057   7.749 -0.1397  0.2125  0.0673
   93loPI    C1 1473  14.709  17.938  10.281  0.0936  0.1465  0.0342
   93loPI    C2 1474  14.748  18.311  10.422 -0.0966  0.1055  0.2007
   93loPI    C3 1475  14.608  18.021  10.659  0.1598 -0.0991  0.1076
   93loPI   PO4 1476  14.662  17.985  10.027 -0.0858  0.3646  0.3156
   93loPI   GL1 1477  14.949  17.978   9.742 -0.4426  0.2504 -0.3459
   93loPI   GL2 1478  15.216  18.221   9.553  0.2809 -0.0074  0.1286
   93loPI   C1A 1479  14.831  17.792   9.257  0.1692  0.2824  0.3429
   93loPI   C2A 1480  14.799  17.666   8.830  0.0088  0.2161  0.0424
   93loPI   C3A 1481  14.642  17.758   8.371  0.2481  0.1710 -0.2898
   93loPI   C4A 1482  14.553  18.033   7.971  0.1978 -0.1119 -0.5096
   93loPI   C5A 1483  14.395  18.091   7.623 -0.1263 -0.0062 -0.0136
   93loPI   C6A 1484  14.493  17.954   7.272  0.0351 -0.0420  0.1906
   93loPI   C1B 1485  15.002  18.241   9.238  0.1409 -0.1291  0.2651
   93loPI   C2B 1486  15.080  18.068   8.854 -0.1955 -0.0227  0.1275
   93loPI   C3B 1487  15.065  18.125   8.506 -0.1033  0.0675 -0.0012
   93loPI   C4B 1488  15.295  18.232   8.132  0.0724 -0.3167  0.0417
   94loPI    C1 1489  11.648  10.332   9.776  0.0994  0.1515  0.0066
   94loPI    C2 1490  11.914  10.595   9.916  0.0506  0.1277  0.1460
   94loPI    C3 1491  11.631  10.450  10.158 -0.0036  0.0470  0.0350
   94loPI   PO4 1492  11.647  10.386   9.503  0.3782  0.2193 -0.0546
   94loPI   GL1 1493  11.533  10.703   9.333  0.1910  0.1315  0.2715
   94loPI   GL2 1494  11.175  10.810   9.371  0.1240  0.0603  0.5556
   94loPI   C1A 1495  11.401  10.627   8.907  0.3066 -0.1750  0.4133
   94loPI   C2A 1496  11.521  10.611   8.603 -0.1751 -0.1712 -0.2645
   94loPI   C3A 1497  11.391  10.657   8.194 -0.3086 -0.1739  0.2474
   94loPI   C4A 1498  11.603  10.884   7.774 -0.1860 -0.3136 -0.1778
   94loPI   C5A 1499  11.631  11.082   7.414  0.2117  0.0930  0.0399
   94loPI   C6A 1500  12.090  10.892   7.297 -0.1811 -0.0038 -0.4193
   94loPI   C1B 1501  11.261  11.116   9.099  0.2469 -0.0368  0.0274
   94loPI   C2B 1502  11.325  11.031   8.675 -0.1912 -0.3399  0.7049
   94loPI   C3B 1503  11.307  11.142   8.140  0.0609  0.1098 -0.0255
   94loPI   C4B 1504  11.122  10.905   7.816  0.1033  0.4003 -0.2505
   95loPI    C1 1505   9.516   0.426  10.157  0.2868 -0.0912 -0.0792
   95loPI    C2 1506   9.573   0.786  10.321 -0.0770  0.0006 -0.1445
   95loPI    C3 1507   9.212   0.615  10.334  0.1077 -0.3962 -0.0533
   95loPI   PO4 1508   9.727   0.509   9.956  0.1809 -0.3809  0.0750
   95loPI   GL1 1509   9.930   0.677   9.564 -0.0624 -0.0361 -0.4012
   95loPI   GL2 1510  10.130   0.950   9.620 -0.0096  0.0434 -0.1841
   95loPI   C1A 1511  10.164   0.643   9.241  0.0763  0.3092 -0.2513
   95loPI   C2A 1512  10.244   0.668   8.839  0.0509  0.3625 -0.0928
   95loPI   C3A 1513  10.204   0.755   8.395  0.1937 -0.1131 -0.1669
   95loPI   C4A 1514  10.157   0.807   7.968 -0.1463  0.2767  0.2608
   95loPI   C5A 1515  10.096   0.950   7.570 -0.3131  0.2106  0.0217
   95loPI   C6A 1516   9.998   1.074   7.085  0.0962 -0.0255 -0.1144
   95loPI   C1B 1517  10.288   1.214   9.254  0.0944 -0.0635  0.0819
   95loPI   C2B 1518  10.326   1.180   8.829  0.0420  0.2763 -0.1126
   95loPI   C3B 1519  10.302   1.266   8.458 -0.1134  0.1573 -0.1092
   95loPI   C4B 1520  10.432   1.217   8.053  0.3824 -0.2510 -0.0843
   96loPI    C1 1521   3.366   9.762   9.908  0.0605 -0.0868  0.0517
   96loPI    C2 1522   3.731   9.851  10.046  0.0806 -0.1632  0.0481
   96loPI    C3 1523   3.508  10.135   9.873  0.2158 -0.1611 -0.1256
   96loPI   PO4 1524   3.424   9.412   9.808 -0.1676  0.0368 -0.3561
   96loPI   GL1 1525   3.292   9.161   9.486  0.0650  0.3481 -0.0620
   96loPI   GL2 1526   3.004   9.135   9.693  0.3033 -0.1152  0.0398
   96loPI   C1A 1527   3.314   9.371   9.118 -0.0782 -0.0132  0.5547
   96loPI   C2A 1528   3.573   9.658   8.774  0.0310 -0.0481  0.0798
   96loPI   C3A 1529   3.924   9.675   8.423  0.0951  0.3681  0.0937
   96loPI   C4A 1530   3.997   9.657   8.026 -0.0462 -0.0466  0.3852
   96loPI   C5A 1531   4.015   9.919   7.611 -0.0692  0.1398 -0.1954
   96loPI   C6A 1532   3.721   9.940   7.290 -0.0090 -0.1638 -0.0734
   96loPI   C1B 1533   2.906   9.004   9.186 -0.3119  0.2915 -0.1324
   96loPI   C2B 1534   3.025   9.011   8.779 -0.0760 -0.2605  0.0731
   96loPI   C3B 1535   3.186   8.831   8.384 -0.0649 -0.2540 -0.2938
   96loPI   C4B 1536   3.301   8.480   8.318 -0.2210  0.0010  0.0854
   97loPI    C1 1537  18.343  12.330   9.641  0.0299  0.1957 -0.0671
   97loPI    C2 1538  18.544  12.430   9.972 -0.0579  0.2038 -0.0158
   97loPI    C3 1539  18.207  12.216  10.000  0.0644 -0.0050 -0.1164
   97loPI   PO4 1540  18.537  12.246   9.514  0.1628 -0.0932  0.0033
   97loPI   GL1 1541  18.486  12.244   9.089 -0.0752  0.0337 -0.1334
   97loPI   GL2 1542  18.183  12.126   9.232 -0.2757  0.1275 -0.1541
   97loPI   C1A 1543  18.588  12.331   8.640  0.0386  0.0394  0.1713
   97loPI   C2A 1544  18.719  12.220   8.345  0.1754 -0.1469  0.0868
   97loPI   C3A 1545  18.558  12.077   7.990  0.2477 -0.1743 -0.1782
   97loPI   C4A 1546  18.438  11.933   7.519 -0.1515 -0.2262 -0.2088
   97loPI   C5A 1547  18.472  11.605   7.171  0.1400 -0.2125  0.0765
   97loPI   C6A 1548  18.384  11.159   7.109  0.0599  0.1284  0.1715
   97loPI   C1B 1549  18.090  12.003   8.801 -0.4230 -0.0142  0.0868
   97loPI   C2B 1550  18.207  11.972   8.320 -0.0022  0.0663  0.1373
   97loPI   C3B 1551  18.103  11.909   7.924 -0.0546 -0.2331  0.0568
   97loPI   C4B 1552  17.982  12.195   7.601  0.1133 -0.1129  0.1423
   98loPI    C1 1553   4.272   4.271  10.350 -0.0142 -0.0069  0.1445
   98loPI    C2 1554   4.205   4.064  10.685 -0.2504 -0.0355  0.0816
   98loPI    C3 1555   4.030   4.419  10.632 -0.2623 -0.0588 -0.0375
   98loPI   PO4 1556   4.332   4.036  10.198 -0.4843 -0.0758  0.0591
   98loPI   GL1 1557   4.707   4.050   9.963 -0.3592  0.2380  0.2348
   98loPI   GL2 1558   4.891   4.253   9.755  0.2669 -0.0194  0.0205
   98loPI   C1A 1559   4.549   4.036   9.542  0.1034  0.2630 -0.1832
   98loPI   C2A 1560   4.524   3.910   9.146 -0.0976  0.0939  0.0340
   98loPI   C3A 1561   4.796   3.982   8.830 -0.0360 -0.0576  0.0682
   98loPI   C4A 1562   4.777   4.023   8.432  0.5513  0.1471 -0.1430
   98loPI   C5A 1563   4.799   4.002   7.999  0.1171 -0.1989  0.0248
   98loPI   C6A 1564   4.731   4.219   7.719  0.0169 -0.1206  0.0613
   98loPI   C1B 1565   5.105   4.049   9.493 -0.2869 -0.2144 -0.3261
   98loPI   C2B 1566   5.225   4.029   9.064  0.2233  0.2616  0.1093
   98loPI   C3B 1567   5.388   4.121   8.722 -0.1199  0.0648  0.1324
   98loPI   C4B 1568   5.463   4.268   8.299 -0.1403  0.0356 -0.0073
   99loPI    C1 1569   0.511  13.087   9.905 -0.0743 -0.0081  0.1795
   99loPI    C2 1570   0.671  12.966  10.251 -0.0236 -0.2645  0.0691
   99loPI    C3 1571   0.384  13.245  10.250  0.1655 -0.0643  0.2957
   99loPI   PO4 1572   0.759  12.910   9.732  0.0807 -0.1035  0.4623
   99loPI   GL1 1573   0.903  13.162   9.308  0.0388 -0.1311 -0.1874
   99loPI   GL2 1574   1.160  12.918   9.139 -0.1304  0.0735 -0.0718
   99loPI   C1A 1575   0.698  13.135   8.898 -0.1884 -0.0722 -0.1502
   99loPI   C2A 1576   0.730  13.129   8.559 -0.1455  0.0907 -0.4274
   99loPI   C3A 1577   0.657  12.914   8.248  0.1386  0.1746 -0.1914
   99loPI   C4A 1578   0.307  12.643   8.053 -0.0754  0.1488 -0.0475
   99loPI   C5A 1579   0.341  12.532   7.561 -0.4944 -0.1461  0.1101
   99loPI   C6A 1580   0.047  12.451   7.276 -0.1390 -0.2605 -0.0640
   99loPI   C1B 1581   1.090  12.792   8.759 -0.0109 -0.1106 -0.1153
   99loPI   C2B 1582   1.011  12.557   8.377 -0.3488  0.0201  0.4782
   99loPI   C3B 1583   1.082  12.304   8.048 -0.1575  0.3213 -0.1181
   99loPI   C4B 1584   1.096  12.285   7.641  0.0232 -0.1549 -0.0224
  100loPI    C1 1585   2.251  17.493   9.913  0.0612  0.1352  0.1989
  100loPI    C2 1586   2.651  17.476   9.901  0.0389 -0.3718 -0.1555
  100loPI    C3 1587   2.454  17.326  10.215  0.1291  0.2189  0.2001
  100loPI   PO4 1588   2.163  17.692   9.801 -0.2082 -0.3043  0.1660
  100loPI   GL1 1589   2.330  17.990   9.591 -0.1303  0.0147 -0.4426
  100loPI   GL2 1590   2.735  17.863   9.523 -0.3021 -0.5059  0.2093
  100loPI   C1A 1591   2.327  17.929   9.163 -0.2945 -0.3564  0.4476
  100loPI   C2A 1592   2.151  17.777   8.768  0.1823  0.1268 -0.0461
  100loPI   C3A 1593   2.299  17.721   8.359  0.1780  0.1563  0.1865
  100loPI   C4A 1594   2.344  17.701   7.988  0.1164 -0.0603  0.0411
  100loPI   C5A 1595   2.371  17.540   7.611  0.1224 -0.1587  0.1099
  100loPI   C6A 1596   2.620  17.326   7.560  0.0453 -0.0156 -0.0486
  100loPI   C1B 1597   2.784  17.796   9.070  0.0160  0.0207  0.1931
  100loPI   C2B 1598   2.692  17.619   8.637 -0.3048  0.0965 -0.0562
  100loPI   C3B 1599   2.672  17.328   8.393 -0.2494 -0.4790  0.0323
  100loPI   C4B 1600   2.767  17.395   8.024  0.2811 -0.0496 -0.0064
  101loPI    C1 1601  18.147   3.534   9.841 -0.1203 -0.0455 -0.2998
  101loPI    C2 1602  18.142   3.560  10.240 -0.2063  0.2834 -0.3194
  101loPI    C3 1603  18.448   3.381  10.055 -0.1407  0.1753 -0.1096
  101loPI   PO4 1604  18.152   3.688   9.715  0.1009  0.0607 -0.1121
  101loPI   GL1 1605  18.168   3.660   9.246 -0.2976  0.2037 -0.0273
  101loPI   GL2 1606  17.843   3.615   9.257 -0.0242 -0.5020 -0.4111
  101loPI   C1A 1607  18.101   4.030   9.008 -0.2107  0.2333 -0.0181
  101loPI   C2A 1608  18.166   4.064   8.633 -0.0710 -0.1266 -0.0961
  101loPI   C3A 1609  18.049   4.019   8.147  0.1048 -0.0844 -0.1392
  101loPI   C4A 1610  18.070   4.056   7.650 -0.2409 -0.1254 -0.0055
  101loPI   C5A 1611  17.759   3.892   7.371 -0.0021 -0.0990  0.0293
  101loPI   C6A 1612  17.767   3.385   7.244  0.1365  0.0250 -0.1504
  101loPI   C1B 1613  17.898   3.568   8.852  0.0413 -0.0210  0.1230
  101loPI   C2B 1614  17.783   3.534   8.504  0.3301 -0.0465  0.1104
  101loPI   C3B 1615  17.842   3.579   8.136  0.2173  0.3085  0.0416
  101loPI   C4B 1616  17.759   3.485   7.766 -0.0236 -0.1828  0.1339
  102loPI    C1 1617   5.701   5.559  10.099 -0.0761  0.2174 -0.1269
  102loPI    C2 1618   5.338   5.442  10.220  0.0496  0.0360  0.0834
  102loPI    C3 1619   5.615   5.546  10.490  0.1773  0.1059 -0.0727
  102loPI   PO4 1620   5.802   5.468   9.870  0.3815  0.0009  0.0564
  102loPI   GL1 1621   5.819   5.592   9.552 -0.1167  0.1540  0.2711
  102loPI   GL2 1622   6.030   5.170   9.603 -0.1172 -0.2792 -0.1973
  102loPI   C1A 1623   5.872   5.449   9.147 -0.0732 -0.2857  0.0201
  102loPI   C2A 1624   5.599   5.267   8.835 -0.0119 -0.0594  0.1742
  102loPI   C3A 1625   5.562   5.201   8.430  0.0138  0.0541  0.0114
  102loPI   C4A 1626   5.818   5.177   8.082 -0.1014  0.0103  0.2912
  102loPI   C5A 1627   5.980   5.121   7.654  0.2849 -0.3299  0.1232
  102loPI   C6A 1628   6.273   4.929   7.435  0.0553  0.1527 -0.2278
  102loPI   C1B 1629   5.876   4.897   9.237 -0.1447 -0.0742 -0.1045
  102loPI   C2B 1630   5.905   4.870   8.889  0.0744  0.1303 -0.0061
  102loPI   C3B 1631   5.881   4.824   8.511 -0.3945 -0.4247 -0.1253
  102loPI   C4B 1632   5.696   4.714   8.140 -0.2986 -0.1284  0.1613
  103loPI    C1 1633  15.043   9.119   9.782  0.1407  0.1685 -0.2689
  103loPI    C2 1634  14.742   9.382   9.769  0.1089  0.1734  0.3192
  103loPI    C3 1635  15.086   9.480   9.949  0.3068  0.0107  0.0383
  103loPI   PO4 1636  15.049   9.019   9.578  0.2208  0.0254  0.2630
  103loPI   GL1 1637  15.016   9.119   9.200  0.3110 -0.1566  0.2070
  103loPI   GL2 1638  15.255   9.265   9.081 -0.0138 -0.1410  0.0612
  103loPI   C1A 1639  14.786   9.301   8.920 -0.3241  0.0100  0.3053
  103loPI   C2A 1640  14.702   9.362   8.630 -0.0216 -0.2921 -0.1604
  103loPI   C3A 1641  14.698   9.464   8.162 -0.3792  0.1287 -0.2858
  103loPI   C4A 1642  14.921   9.617   7.824 -0.0468 -0.0266 -0.2914
  103loPI   C5A 1643  14.767   9.873   7.486  0.3243  0.2366 -0.3983
  103loPI   C6A 1644  14.584  10.206   7.264  0.1539  0.2235  0.4369
  103loPI   C1B 1645  15.342   9.361   8.666  0.1815 -0.0960  0.1727
  103loPI   C2B 1646  15.198   9.379   8.252  0.2214 -0.0141 -0.2103
  103loPI   C3B 1647  15.391   9.577   7.905  0.1184 -0.0807 -0.1049
  103loPI   C4B 1648  15.292   9.800   7.517 -0.3265  0.4637 -0.1702
  104loPI    C1 1649   2.917  18.939   9.884 -0.1730  0.0593 -0.1883
  104loPI    C2 1650   2.878  19.302   9.721 -0.1058  0.1914  0.0832
  104loPI    C3 1651   3.183  19.225   9.968 -0.0734 -0.0758 -0.0359
  104loPI   PO4 1652   2.568  18.919   9.932 -0.0293 -0.2233  0.2688
  104loPI   GL1 1653   2.390  18.955   9.527 -0.3253  0.3456  0.2209
  104loPI   GL2 1654   2.136  19.189   9.602 -0.0686  0.1712  0.1483
  104loPI   C1A 1655   2.682  18.921   9.190  0.1442 -0.0396  0.1360
  104loPI   C2A 1656   2.659  18.788   8.753 -0.0498 -0.2183  0.0784
  104loPI   C3A 1657   2.419  18.784   8.373 -0.1179 -0.1198 -0.0653
  104loPI   C4A 1658   2.231  18.401   8.075 -0.0938  0.3234 -0.0733
  104loPI   C5A 1659   2.504  18.276   7.760 -0.2203  0.2149  0.1152
  104loPI   C6A 1660   2.312  18.073   7.463  0.1499  0.1195 -0.2130
  104loPI   C1B 1661   2.156  19.318   9.149  0.4225 -0.0202 -0.0182
  104loPI   C2B 1662   2.074  19.542   8.690  0.2141 -0.1193  0.2040
  104loPI   C3B 1663   1.911  19.786   8.282  0.1991 -0.3300 -0.0133
  104loPI   C4B 1664   1.769  19.660   7.940 -0.0777  0.3093 -0.1402
  105loPI    C1 1665   5.296  18.066  10.176 -0.1310  0.2594  0.0588
  105loPI    C2 1666   4.975  18.044  10.413  0.0389  0.0394  0.2732
  105loPI    C3 1667   5.325  18.168  10.562  0.1509 -0.1163  0.1425
  105loPI   PO4 1668   5.266  18.168   9.895  0.0181 -0.0615  0.3458
  105loPI   GL1 1669   5.177  18.236   9.507 -0.3237  0.2183 -0.1350
  105loPI   GL2 1670   5.541  18.299   9.380 -0.2562 -0.0635 -0.0296
  105loPI   C1A 1671   5.133  18.487   9.052 -0.0229  0.2017  0.2212
  105loPI   C2A 1672   5.217  18.641   8.700  0.2207  0.2426 -0.0478
  105loPI   C3A 1673   5.386  18.886   8.444  0.2307  0.6734 -0.0714
  105loPI   C4A 1674   5.232  19.172   8.210  0.5299 -0.0297 -0.0197
  105loPI   C5A 1675   5.029  19.171   7.783 -0.1826  0.1554  0.0915
  105loPI   C6A 1676   5.035  19.256   7.388 -0.1157  0.4231 -0.5711
  105loPI   C1B 1677   5.426  18.116   8.917 -0.0386 -0.1757  0.0093
  105loPI   C2B 1678   5.281  18.185   8.534 -0.1885  0.0178 -0.0538
  105loPI   C3B 1679   5.222  18.358   8.267 -0.1475 -0.0623 -0.3208
  105loPI   C4B 1680   4.935  18.595   8.103 -0.1303 -0.1733  0.1842
  106loPI    C1 1681  11.064   5.917   9.657 -0.3532  0.0100  0.0896
  106loPI    C2 1682  11.273   5.716   9.932  0.1030  0.0943 -0.1852
  106loPI    C3 1683  10.921   5.574   9.804 -0.0507 -0.0142  0.3362
  106loPI   PO4 1684  11.329   5.969   9.530  0.1317 -0.2027  0.1225
  106loPI   GL1 1685  11.581   5.654   9.257  0.1276 -0.2094 -0.0359
  106loPI   GL2 1686  11.523   5.327   9.319  0.0077  0.0053 -0.3087
  106loPI   C1A 1687  11.732   5.700   8.743  0.0717  0.4687 -0.3102
  106loPI   C2A 1688  11.628   5.739   8.291 -0.0764  0.0459  0.0329
  106loPI   C3A 1689  11.468   5.990   8.004  0.0721 -0.3229 -0.2078
  106loPI   C4A 1690  11.431   6.005   7.525 -0.0377 -0.0717  0.3152
  106loPI   C5A 1691  11.831   6.061   7.327 -0.0527 -0.1453 -0.0909
  106loPI   C6A 1692  12.085   6.142   7.008  0.3132  0.1278  0.0482
  106loPI   C1B 1693  11.818   5.294   8.963 -0.3403 -0.0154  0.0860
  106loPI   C2B 1694  11.741   5.283   8.527  0.3331  0.1801  0.0537
  106loPI   C3B 1695  11.637   5.204   8.016  0.2377  0.0967  0.0722
  106loPI   C4B 1696  11.513   5.100   7.625 -0.0279  0.0293  0.0246
  107loPI    C1 1697   8.023  14.552  10.568  0.1604  0.0694  0.1756
  107loPI    C2 1698   7.634  14.601  10.648  0.1334  0.1611 -0.0079
  107loPI    C3 1699   7.828  14.281  10.788 -0.0177  0.0948  0.0513
  107loPI   PO4 1700   7.963  14.743  10.269  0.3366 -0.1528 -0.2361
  107loPI   GL1 1701   7.827  14.823   9.877  0.3100 -0.1648  0.0364
  107loPI   GL2 1702   7.496  14.985   9.948 -0.1023 -0.2243 -0.0665
  107loPI   C1A 1703   7.749  15.154   9.510  0.1751  0.1230 -0.0587
  107loPI   C2A 1704   7.728  15.128   9.076 -0.1477 -0.0011  0.1314
  107loPI   C3A 1705   7.739  15.167   8.628  0.0296 -0.2929  0.0458
  107loPI   C4A 1706   7.421  15.207   8.291 -0.1773 -0.0143 -0.0443
  107loPI   C5A 1707   7.012  15.327   8.208  0.0687  0.0655 -0.0983
  107loPI   C6A 1708   6.668  15.643   8.331  0.0665 -0.2108  0.1920
  107loPI   C1B 1709   7.222  15.161   9.583 -0.4012 -0.1408  0.0442
  107loPI   C2B 1710   7.269  15.517   9.299 -0.2116 -0.3419 -0.3206
  107loPI   C3B 1711   7.256  15.901   9.139  0.1874 -0.1599  0.0021
  107loPI   C4B 1712   7.351  16.009   8.777 -0.1840 -0.0673 -0.0735
  108loPI    C1 1713  16.559  14.553   9.849  0.2427  0.2779 -0.0370
  108loPI    C2 1714  16.798  14.509  10.167  0.0126  0.0578  0.1079
  108loPI    C3 1715  16.558  14.827  10.140  0.1059  0.1281  0.1052
  108loPI   PO4 1716  16.674  14.534   9.685 -0.0802 -0.1461 -0.1495
  108loPI   GL1 1717  16.497  14.504   9.346 -0.0644  0.0956 -0.1265
  108loPI   GL2 1718  16.611  14.200   9.371 -0.1656  0.0071  0.2586
  108loPI   C1A 1719  16.385  14.739   8.954 -0.1110  0.2419  0.1324
  108loPI   C2A 1720  16.230  14.796   8.545 -0.0672  0.2908  0.2863
  108loPI   C3A 1721  16.258  14.743   8.045 -0.1424 -0.1189 -0.0257
  108loPI   C4A 1722  16.308  14.843   7.612  0.1893  0.0331 -0.2637
  108loPI   C5A 1723  16.425  15.112   7.356 -0.1992 -0.0691  0.4054
  108loPI   C6A 1724  16.714  15.183   6.902 -0.2276 -0.1817 -0.4614
  108loPI   C1B 1725  16.563  14.240   8.927  0.2739 -0.0540  0.0218
  108loPI   C2B 1726  16.520  14.367   8.461  0.1528 -0.1509 -0.0542
  108loPI   C3B 1727  16.469  14.237   7.939  0.1371  0.1207  0.0183
  108loPI   C4B 1728  16.456  14.313   7.530 -0.1086  0.3843  0.2569
  109loPI    C1 1729   9.266  11.187  10.125 -0.3842 -0.0671  0.0194
  109loPI    C2 1730   9.203  11.579  10.076 -0.1034 -0.0489 -0.2239
  109loPI    C3 1731   9.026  11.384  10.377 -0.1864  0.2785 -0.0561
  109loPI   PO4 1732   9.424  11.025   9.927  0.0691 -0.3380 -0.2831
  109loPI   GL1 1733   9.565  11.126   9.554 -0.0365  0.1424  0.1389
  109loPI   GL2 1734   9.954  11.174   9.585 -0.1577  0.1352  0.0564
  109loPI   C1A 1735   9.615  11.374   9.183 -0.1356 -0.1745  0.0054
  109loPI   C2A 1736   9.693  11.661   8.863 -0.1129  0.0359  0.1506
  109loPI   C3A 1737   9.609  11.918   8.560 -0.2230 -0.0967 -0.0680
  109loPI   C4A 1738   9.800  11.982   8.185  0.0436  0.0340 -0.1003
  109loPI   C5A 1739  10.144  12.202   8.028 -0.2364  0.2676  0.1666
  109loPI   C6A 1740  10.396  12.637   7.779  0.4429 -0.2246 -0.0504
  109loPI   C1B 1741   9.752  10.856   9.066  0.1775  0.0232 -0.0678
  109loPI   C2B 1742   9.869  10.471   8.893  0.1148  0.3864  0.1519
  109loPI   C3B 1743  10.066  10.233   8.545 -0.4227 -0.0743 -0.1104
  109loPI   C4B 1744   9.860  10.214   8.148 -0.2239 -0.0245 -0.0192
  110loPI    C1 1745   3.804  16.094  10.012  0.0809  0.0690  0.3296
  110loPI    C2 1746   3.415  16.028  10.081  0.0599 -0.0649  0.0936
  110loPI    C3 1747   3.644  15.736   9.932  0.1746  0.1158 -0.0895
  110loPI   PO4 1748   3.737  16.422   9.800  0.1678  0.1087  0.3784
  110loPI   GL1 1749   4.031  16.340   9.499 -0.4465  0.2849 -0.2764
  110loPI   GL2 1750   3.872  15.990   9.532  0.3172  0.0982  0.1450
  110loPI   C1A 1751   4.054  16.484   9.097  0.3713 -0.2737  0.0747
  110loPI   C2A 1752   3.935  16.484   8.599 -0.1404  0.0379  0.0257
  110loPI   C3A 1753   3.962  16.407   8.152 -0.1357 -0.0531  0.1963
  110loPI   C4A 1754   4.108  16.497   7.773  0.0009  0.1768 -0.1233
  110loPI   C5A 1755   4.211  16.783   7.454 -0.0130  0.0324  0.4189
  110loPI   C6A 1756   4.618  16.706   7.043 -0.0565 -0.1452  0.3802
  110loPI   C1B 1757   3.986  15.895   9.080  0.0149  0.1311 -0.1111
  110loPI   C2B 1758   3.936  15.911   8.715 -0.0877  0.0079 -0.2379
  110loPI   C3B 1759   4.225  16.037   8.385  0.2112 -0.1013 -0.4258
  110loPI   C4B 1760   4.422  16.407   8.395 -0.0903  0.1171 -0.1311
  111loPI    C1 1761  15.112   7.927   9.670  0.1292 -0.2787  0.0954
  111loPI    C2 1762  14.811   8.005   9.921  0.1159  0.1545 -0.0460
  111loPI    C3 1763  14.734   7.868   9.554  0.1038  0.0721 -0.0130
  111loPI   PO4 1764  15.304   8.159   9.676 -0.3915 -0.1643 -0.1529
  111loPI   GL1 1765  15.373   8.566   9.433  0.1600  0.0819  0.3272
  111loPI   GL2 1766  15.457   8.833   9.370  0.0984 -0.1959 -0.1574
  111loPI   C1A 1767  15.110   8.589   8.980  0.1047  0.0469  0.5229
  111loPI   C2A 1768  15.047   8.882   8.592 -0.0398  0.4180  0.1151
  111loPI   C3A 1769  14.838   8.965   8.169 -0.4084  0.0516 -0.0367
  111loPI   C4A 1770  15.104   8.956   7.798  0.2322  0.1679  0.1493
  111loPI   C5A 1771  15.297   8.632   7.541  0.2708 -0.0494  0.0951
  111loPI   C6A 1772  15.691   8.368   7.401  0.1724 -0.0803  0.0181
  111loPI   C1B 1773  15.510   8.813   8.945 -0.2369  0.0049  0.1495
  111loPI   C2B 1774  15.584   8.706   8.542 -0.0456  0.0938 -0.1252
  111loPI   C3B 1775  15.712   8.963   8.210  0.0101 -0.1566 -0.3010
  111loPI   C4B 1776  15.684   8.913   7.791  0.5142  0.0581 -0.0786
  112loPI    C1 1777   8.884   0.748   9.947  0.0659 -0.5017  0.3318
  112loPI    C2 1778   8.490   0.683   9.932 -0.0535  0.1981 -0.0500
  112loPI    C3 1779   8.655   0.837  10.262 -0.1100 -0.0033  0.0747
  112loPI   PO4 1780   8.877   0.834   9.689  0.1596 -0.0312 -0.2908
  112loPI   GL1 1781   9.175   0.790   9.326  0.1565 -0.0424  0.0185
  112loPI   GL2 1782   9.208   1.074   9.370  0.0664  0.1251 -0.1124
  112loPI   C1A 1783   9.355   0.830   8.970 -0.0026 -0.0291  0.0903
  112loPI   C2A 1784   9.385   0.806   8.450 -0.0458 -0.2552  0.3313
  112loPI   C3A 1785   9.661   0.823   8.108 -0.0520 -0.0094  0.0803
  112loPI   C4A 1786   9.718   0.581   7.811 -0.0691  0.2593  0.1056
  112loPI   C5A 1787   9.922   0.295   7.506 -0.1854 -0.4822  0.6029
  112loPI   C6A 1788   9.976   0.246   7.010  0.0780 -0.0096 -0.0317
  112loPI   C1B 1789   9.352   1.274   9.084 -0.2114 -0.1473 -0.3232
  112loPI   C2B 1790   9.321   1.338   8.685  0.1585  0.1606 -0.0173
  112loPI   C3B 1791   9.365   1.330   8.265 -0.1350  0.1121  0.1475
  112loPI   C4B 1792   9.288   1.037   7.801  0.1934  0.0019  0.2382
  113loPI    C1 1793   1.664  11.546   9.611  0.2589  0.0923 -0.0920
  113loPI    C2 1794   1.875  11.635   9.939  0.0799 -0.3611  0.1558
  113loPI    C3 1795   1.479  11.581   9.964  0.0337 -0.2055 -0.1760
  113loPI   PO4 1796   1.761  11.674   9.425  0.1440 -0.3600  0.4044
  113loPI   GL1 1797   1.697  11.864   9.068 -0.2019  0.0670 -0.1461
  113loPI   GL2 1798   1.898  12.185   9.188 -0.2179 -0.4767  0.0959
  113loPI   C1A 1799   1.518  11.843   8.751  0.0140  0.2836  0.3369
  113loPI   C2A 1800   1.492  11.932   8.315 -0.0520 -0.0022  0.1618
  113loPI   C3A 1801   1.495  11.977   7.876 -0.1669 -0.0475 -0.1939
  113loPI   C4A 1802   1.261  11.694   7.653  0.3021 -0.5902 -0.0203
  113loPI   C5A 1803   1.211  11.215   7.644 -0.1586 -0.2982  0.0493
  113loPI   C6A 1804   1.322  10.772   7.649 -0.1544 -0.1388 -0.3354
  113loPI   C1B 1805   1.940  12.176   8.762  0.2364  0.0217 -0.2758
  113loPI   C2B 1806   1.992  12.118   8.316 -0.1367 -0.0094  0.0049
  113loPI   C3B 1807   2.101  12.025   7.903 -0.0265  0.2220  0.4018
  113loPI   C4B 1808   2.350  12.002   7.494  0.2360  0.0091 -0.1300
  114loPI    C1 1809   6.988   5.670   9.825 -0.1111 -0.0965  0.0678
  114loPI    C2 1810   7.170   6.012   9.724 -0.1256 -0.0754  0.1130
  114loPI    C3 1811   7.336   5.660   9.629 -0.0544 -0.0563  0.1658
  114loPI   PO4 1812   6.670   5.795   9.728  0.2936  0.1399 -0.1611
  114loPI   GL1 1813   6.575   5.990   9.318 -0.4250 -0.1669  0.1261
  114loPI   GL2 1814   6.875   5.975   9.318 -0.0720 -0.0263 -0.2060
  114loPI   C1A 1815   6.516   6.048   8.966  0.0012 -0.1653  0.0365
  114loPI   C2A 1816   6.440   6.022   8.491  0.2525  0.1820  0.2032
  114loPI   C3A 1817   6.516   6.162   8.099 -0.0716 -0.0057  0.0408
  114loPI   C4A 1818   6.291   6.382   7.759 -0.0024  0.0638  0.0030
  114loPI   C5A 1819   6.266   6.716   7.562 -0.2239  0.0264  0.0735
  114loPI   C6A 1820   6.047   7.053   7.409  0.0770 -0.1801 -0.0109
  114loPI   C1B 1821   7.034   6.156   8.835  0.2955  0.1944  0.2140
  114loPI   C2B 1822   6.911   5.886   8.529  0.1298  0.0215 -0.0290
  114loPI   C3B 1823   6.788   5.605   8.166 -0.3690 -0.0420 -0.0519
  114loPI   C4B 1824   6.612   5.773   7.780 -0.0273 -0.1061  0.0186
  115loPI    C1 1825   4.458   1.628  10.332  0.2060  0.0756 -0.0491
  115loPI    C2 1826   4.348   1.987  10.469  0.0199 -0.0317  0.0882
  115loPI    C3 1827   4.578   1.750  10.694  0.0242 -0.0569  0.0573
  115loPI   PO4 1828   4.561   1.642  10.135  0.1291 -0.0292  0.2188
  115loPI   GL1 1829   4.587   1.442   9.722  0.2847  0.0947  0.4404
  115loPI   GL2 1830   4.619   1.750   9.494 -0.0692 -0.0445  0.0963
  115loPI   C1A 1831   4.801   1.295   9.304  0.0964  0.1085 -0.3371
  115loPI   C2A 1832   4.913   0.951   8.945 -0.1901  0.3163 -0.1577
  115loPI   C3A 1833   4.749   0.840   8.588  0.1113  0.0093  0.0920
  115loPI   C4A 1834   4.754   1.079   8.172 -0.1212  0.4691  0.1767
  115loPI   C5A 1835   4.872   1.018   7.696 -0.0286 -0.2103 -0.0410
  115loPI   C6A 1836   4.698   0.940   7.336 -0.1536 -0.3052  0.0733
  115loPI   C1B 1837   4.618   1.650   9.044  0.1590 -0.0718  0.4063
  115loPI   C2B 1838   4.566   1.850   8.663  0.0953  0.1596 -0.0244
  115loPI   C3B 1839   4.552   2.119   8.333 -0.0285  0.2761  0.1283
  115loPI   C4B 1840   4.374   1.893   7.950  0.0463  0.0254 -0.1966
  116loPI    C1 1841  16.296  15.851   9.952  0.1815 -0.0012 -0.2010
  116loPI    C2 1842  16.455  15.657  10.264 -0.0900 -0.1595 -0.1583
  116loPI    C3 1843  16.201  15.960  10.325  0.0697 -0.0102 -0.2266
  116loPI   PO4 1844  16.474  15.882   9.786  0.0702  0.1164  0.1883
  116loPI   GL1 1845  16.390  16.187   9.411  0.0038  0.0089 -0.1519
  116loPI   GL2 1846  16.245  16.442   9.260  0.0372 -0.2502 -0.0886
  116loPI   C1A 1847  16.311  15.978   9.023  0.1122  0.3765 -0.0968
  116loPI   C2A 1848  16.371  15.707   8.881 -0.2914 -0.1342  0.0117
  116loPI   C3A 1849  16.264  15.745   8.450 -0.3098 -0.3378 -0.0821
  116loPI   C4A 1850  16.206  16.007   8.135  0.3512 -0.2633  0.0134
  116loPI   C5A 1851  16.147  16.018   7.729 -0.0426 -0.1236  0.1153
  116loPI   C6A 1852  15.818  15.745   7.582 -0.2148  0.1711  0.0150
  116loPI   C1B 1853  16.146  16.769   9.057 -0.1262  0.3603  0.1587
  116loPI   C2B 1854  16.169  16.823   8.540  0.3616 -0.2615 -0.0906
  116loPI   C3B 1855  16.194  16.768   8.144 -0.0118 -0.0955 -0.1362
  116loPI   C4B 1856  16.445  17.026   7.895  0.0865 -0.2987 -0.1717
  117loPI    C1 1857  14.824   0.281   9.710  0.0058 -0.0984  0.0132
  117loPI    C2 1858  15.150   0.424   9.893 -0.1403  0.4495 -0.1345
  117loPI    C3 1859  14.873   0.224  10.103  0.2676  0.0039 -0.0029
  117loPI   PO4 1860  14.791   0.050   9.515  0.0087 -0.1253 -0.1174
  117loPI   GL1 1861  14.423   0.020   9.331 -0.3117  0.2536  0.1196
  117loPI   GL2 1862  14.480   0.330   9.213 -0.0408 -0.2553 -0.0367
  117loPI   C1A 1863  14.174  -0.063   9.029 -0.1187  0.2984  0.0056
  117loPI   C2A 1864  14.020  -0.150   8.572 -0.1401 -0.0089 -0.0400
  117loPI   C3A 1865  13.973  -0.247   8.186  0.3042 -0.2490 -0.1891
  117loPI   C4A 1866  13.982  -0.236   7.666 -0.1427  0.2973  0.1183
  117loPI   C5A 1867  13.623  -0.388   7.518  0.0863  0.3235 -0.1751
  117loPI   C6A 1868  13.248  -0.565   7.527 -0.0927 -0.1232 -0.3479
  117loPI   C1B 1869  14.303   0.453   8.842 -0.0483 -0.0303 -0.0324
  117loPI   C2B 1870  14.211   0.666   8.508  0.0250  0.4937  0.2095
  117loPI   C3B 1871  14.206   0.748   8.093 -0.3418 -0.3063 -0.0816
  117loPI   C4B 1872  14.426   0.664   7.801  0.1354  0.0993  0.1670
  118loPI    C1 1873  17.418  12.773   9.727  0.0904 -0.1236  0.1125
  118loPI    C2 1874  17.348  12.469   9.977 -0.0883  0.1067  0.3473
  118loPI    C3 1875  17.631  12.738  10.063  0.0021  0.0636  0.1892
  118loPI   PO4 1876  17.402  12.626   9.421  0.0447  0.3107  0.3394
  118loPI   GL1 1877  17.111  12.572   9.099 -0.3270 -0.1229  0.0131
  118loPI   GL2 1878  17.335  12.228   9.099  0.2282 -0.1003  0.0785
  118loPI   C1A 1879  17.089  12.664   8.654 -0.0577  0.0504 -0.1732
  118loPI   C2A 1880  17.034  12.801   8.283  0.1241  0.1856 -0.1642
  118loPI   C3A 1881  16.834  12.666   7.979  0.0963 -0.1807  0.0002
  118loPI   C4A 1882  16.821  12.716   7.538 -0.0181  0.1910  0.1652
  118loPI   C5A 1883  17.021  12.913   7.238  0.3649 -0.0117 -0.0674
  118loPI   C6A 1884  17.393  12.783   7.032  0.3024  0.2217  0.0134
  118loPI   C1B 1885  17.411  12.332   8.745  0.1069 -0.0090 -0.1968
  118loPI   C2B 1886  17.233  12.315   8.262  0.1261  0.3307  0.0917
  118loPI   C3B 1887  17.158  12.367   7.735 -0.2960  0.3861  0.0925
  118loPI   C4B 1888  17.496  12.410   7.403 -0.1506 -0.0040 -0.2946
  119loPI    C1 1889   3.026  17.076  10.094 -0.0212  0.0461 -0.1188
  119loPI    C2 1890   3.208  17.093  10.450  0.0577  0.1037 -0.1617
  119loPI    C3 1891   2.922  17.358  10.359  0.1619  0.2007 -0.2093
  119loPI   PO4 1892   3.238  17.005   9.958 -0.1155  0.1455  0.1423
  119loPI   GL1 1893   3.299  16.956   9.594  0.4500 -0.1420  0.0653
  119loPI   GL2 1894   3.600  16.858   9.633  0.0362  0.3493 -0.3298
  119loPI   C1A 1895   3.116  16.705   9.240 -0.0312 -0.0486 -0.0077
  119loPI   C2A 1896   3.021  16.634   8.735  0.2621 -0.4623 -0.2355
  119loPI   C3A 1897   3.088  16.739   8.333 -0.2205  0.5186 -0.2424
  119loPI   C4A 1898   3.099  16.773   7.852  0.1502 -0.0925  0.1629
  119loPI   C5A 1899   3.209  16.638   7.416  0.0659  0.0362  0.2071
  119loPI   C6A 1900   2.945  16.383   7.036  0.0720 -0.2416 -0.2787
  119loPI   C1B 1901   3.585  16.831   9.207  0.0995 -0.1399  0.1541
  119loPI   C2B 1902   3.793  16.877   8.855  0.3905 -0.0127  0.1319
  119loPI   C3B 1903   4.109  16.981   8.517  0.0934 -0.0662  0.3000
  119loPI   C4B 1904   4.197  16.832   8.160  0.1481  0.2131  0.1272
  120loPI    C1 1905   1.519  13.596  10.010 -0.1080 -0.1305  0.0582
  120loPI    C2 1906   1.417  13.975   9.935  0.1440 -0.0647  0.0390
  120loPI    C3 1907   1.359  13.821  10.299  0.0461 -0.0065  0.0482
  120loPI   PO4 1908   1.501  13.550   9.674  0.1538 -0.0950 -0.1786
  120loPI   GL1 1909   1.705  13.410   9.318 -0.1525  0.0099 -0.0604
  120loPI   GL2 1910   1.845  13.637   9.193  0.0566 -0.2180  0.1503
  120loPI   C1A 1911   1.567  13.427   8.811  0.0569  0.2326  0.0674
  120loPI   C2A 1912   1.710  13.177   8.399  0.0807  0.0150 -0.1192
  120loPI   C3A 1913   1.655  13.088   7.964  0.2878 -0.4137  0.0077
  120loPI   C4A 1914   1.766  13.127   7.610 -0.0105  0.1278 -0.2922
  120loPI   C5A 1915   1.695  13.116   7.146  0.1284  0.2855  0.0822
  120loPI   C6A 1916   1.916  12.848   6.863  0.2269  0.1659 -0.1655
  120loPI   C1B 1917   1.900  13.854   8.704  0.1958 -0.1547  0.0045
  120loPI   C2B 1918   1.601  13.969   8.310  0.1256 -0.1699 -0.0373
  120loPI   C3B 1919   1.256  13.989   8.161 -0.2055 -0.1244 -0.1587
  120loPI   C4B 1920   1.147  13.910   7.790  0.1488 -0.3173  0.0106
  121loPI    C1 1921   5.545  13.877   9.772  0.3617  0.0220 -0.0015
  121loPI    C2 1922   5.514  14.096  10.105  0.3309  0.0333 -0.0118
  121loPI    C3 1923   5.759  13.781  10.096 -0.1301 -0.3450  0.2291
  121loPI   PO4 1924   5.300  13.830   9.761  0.0722  0.0098  0.0026
  121loPI   GL1 1925   5.126  13.719   9.400 -0.1609 -0.1265 -0.1858
  121loPI   GL2 1926   4.883  13.847   9.206  0.5305  0.3992 -0.2649
  121loPI   C1A 1927   5.282  14.086   9.097  0.1194  0.1618  0.1524
  121loPI   C2A 1928   5.453  14.068   8.683 -0.0108 -0.2252  0.2807
  121loPI   C3A 1929   5.532  14.051   8.197  0.1106  0.3098 -0.0684
  121loPI   C4A 1930   5.780  14.093   7.848  0.2700  0.1248 -0.1962
  121loPI   C5A 1931   5.851  14.089   7.392  0.1226  0.3218  0.1169
  121loPI   C6A 1932   6.045  14.393   7.232 -0.0184  0.0967  0.0766
  121loPI   C1B 1933   4.857  13.893   8.826 -0.4557 -0.0906 -0.0495
  121loPI   C2B 1934   5.087  13.868   8.356  0.0212  0.1312  0.3094
  121loPI   C3B 1935   5.067  13.648   7.949  0.2615 -0.1955 -0.0761
  121loPI   C4B 1936   5.032  13.227   7.838 -0.4230 -0.0980 -0.1389
  122loPI    C1 1937   3.590  17.900  10.400  0.1365  0.2127  0.3186
  122loPI    C2 1938   3.254  17.702  10.491  0.0946  0.1076 -0.0464
  122loPI    C3 1939   3.597  17.612  10.677  0.0346 -0.1731 -0.0674
  122loPI   PO4 1940   3.464  17.975  10.091 -0.2569  0.1562  0.0135
  122loPI   GL1 1941   3.313  17.965   9.690  0.1835 -0.0798  0.2410
  122loPI   GL2 1942   3.547  17.702   9.630  0.2316  0.1281  0.0632
  122loPI   C1A 1943   3.025  18.203   9.252 -0.1733  0.5233  0.1518
  122loPI   C2A 1944   2.905  18.190   8.762  0.2212  0.2597  0.4935
  122loPI   C3A 1945   2.871  18.513   8.404  0.0161  0.0049  0.0914
  122loPI   C4A 1946   2.776  18.672   8.036  0.2819  0.0783 -0.4001
  122loPI   C5A 1947   3.032  18.919   7.725  0.1206  0.0198 -0.6064
  122loPI   C6A 1948   3.157  19.127   7.490 -0.1245 -0.1936  0.2406
  122loPI   C1B 1949   3.325  17.701   9.220 -0.0902 -0.0021 -0.1807
  122loPI   C2B 1950   3.215  17.808   8.765  0.1387  0.1145  0.3381
  122loPI   C3B 1951   3.212  17.680   8.265  0.0620 -0.0797  0.2761
  122loPI   C4B 1952   3.148  17.651   7.814 -0.2568 -0.0882  0.0883
  123loPI    C1 1953  12.972  18.404  10.113 -0.2595  0.3582  0.3366
  123loPI    C2 1954  12.868  18.327  10.491 -0.1041 -0.2422  0.2665
  123loPI    C3 1955  12.622  18.226  10.192 -0.0717 -0.0923  0.1885
  123loPI   PO4 1956  13.302  18.351  10.064  0.0884 -0.1198  0.1399
  123loPI   GL1 1957  13.347  18.111   9.693 -0.1206 -0.2936 -0.0728
  123loPI   GL2 1958  13.005  18.251   9.651 -0.2197 -0.1682  0.2069
  123loPI   C1A 1959  13.605  18.121   9.228  0.1321  0.0300 -0.0336
  123loPI   C2A 1960  13.971  18.113   8.997 -0.1907  0.0915 -0.3229
  123loPI   C3A 1961  14.212  18.531   8.803  0.0881 -0.3710  0.0559
  123loPI   C4A 1962  14.450  18.721   8.504 -0.1974 -0.1291 -0.3779
  123loPI   C5A 1963  14.717  18.900   8.113 -0.1062 -0.0482 -0.1093
  123loPI   C6A 1964  14.618  18.843   7.670  0.3602  0.1148  0.1992
  123loPI   C1B 1965  13.151  18.286   9.256 -0.1207  0.1428  0.1832
  123loPI   C2B 1966  13.329  18.169   8.814 -0.1411  0.2035 -0.0685
  123loPI   C3B 1967  13.172  18.166   8.400  0.0901  0.1266 -0.1647
  123loPI   C4B 1968  13.169  18.328   7.993  0.2527  0.1441 -0.1257
  124loPI    C1 1969  15.933   5.939   9.747 -0.1261  0.0998 -0.0673
  124loPI    C2 1970  15.644   5.694   9.874  0.0635 -0.1344 -0.0812
  124loPI    C3 1971  15.811   5.953  10.128  0.1336 -0.2932  0.0365
  124loPI   PO4 1972  15.856   6.084   9.553  0.0393  0.2871 -0.1775
  124loPI   GL1 1973  15.704   6.083   9.127  0.0798 -0.3276 -0.0267
  124loPI   GL2 1974  15.495   6.350   8.964 -0.1433  0.2205 -0.0306
  124loPI   C1A 1975  15.701   6.013   8.650  0.3044  0.1732  0.1343
  124loPI   C2A 1976  15.389   5.828   8.292 -0.0782 -0.0878  0.2909
  124loPI   C3A 1977  15.329   5.837   7.887 -0.0385 -0.2147 -0.1454
  124loPI   C4A 1978  15.185   5.818   7.517 -0.3237  0.2145 -0.0628
  124loPI   C5A 1979  14.783   6.016   7.362 -0.0576  0.1050  0.1861
  124loPI   C6A 1980  14.409   5.897   7.216 -0.1653 -0.0566  0.1153
  124loPI   C1B 1981  15.280   6.257   8.597  0.1218  0.0894 -0.0411
  124loPI   C2B 1982  15.198   6.266   8.260 -0.1467 -0.2863 -0.2753
  124loPI   C3B 1983  15.191   6.334   7.843  0.1332  0.3171  0.2487
  124loPI   C4B 1984  15.046   6.738   7.657 -0.0491  0.2668 -0.0517
  125loPI    C1 1985  14.206   0.808  10.000 -0.0546  0.0980 -0.0293
  125loPI    C2 1986  14.102   1.139  10.199  0.0312  0.0465  0.1023
  125loPI    C3 1987  14.380   0.894  10.350 -0.0205 -0.0773 -0.0026
  125loPI   PO4 1988  13.990   0.792   9.768  0.2027  0.0979  0.2823
  125loPI   GL1 1989  14.124   0.625   9.323  0.2555  0.1589 -0.0179
  125loPI   GL2 1990  13.867   0.438   9.043 -0.1018 -0.1224  0.0801
  125loPI   C1A 1991  14.384   0.884   9.133  0.4581 -0.2391  0.1377
  125loPI   C2A 1992  14.516   0.968   8.788 -0.3071  0.0861 -0.2151
  125loPI   C3A 1993  14.530   0.961   8.342 -0.3027  0.1251 -0.3136
  125loPI   C4A 1994  14.617   1.082   7.938 -0.1173 -0.1704  0.3255
  125loPI   C5A 1995  14.861   1.018   7.604 -0.1686  0.1436 -0.0631
  125loPI   C6A 1996  15.201   0.830   7.246  0.0481 -0.1622 -0.2312
  125loPI   C1B 1997  13.800   0.319   8.619 -0.1704  0.1581 -0.4935
  125loPI   C2B 1998  14.025   0.260   8.252  0.1049  0.0037  0.0500
  125loPI   C3B 1999  14.158   0.234   7.811 -0.2529  0.0538 -0.0761
  125loPI   C4B 2000  14.217   0.338   7.428  0.0320 -0.2082  0.1566
  126loPI    C1 2001   4.763  13.833   9.914  0.0721  0.0990 -0.0006
  126loPI    C2 2002   4.749  14.127   9.643 -0.0560  0.0175 -0.0836
  126loPI    C3 2003   4.960  14.175   9.980  0.0358  0.1513 -0.1591
  126loPI   PO4 2004   4.484  13.626   9.754  0.4609  0.1831  0.0942
  126loPI   GL1 2005   4.582  13.404   9.345  0.1380  0.2170  0.0876
  126loPI   GL2 2006   4.878  13.200   9.200 -0.3202 -0.0512 -0.1526
  126loPI   C1A 2007   4.507  13.560   8.888  0.0955  0.2274 -0.1144
  126loPI   C2A 2008   4.573  13.639   8.456 -0.0691 -0.7050  0.1012
  126loPI   C3A 2009   4.583  13.408   8.064  0.1181 -0.0660  0.1236
  126loPI   C4A 2010   4.475  13.207   7.679 -0.0157 -0.0732  0.1334
  126loPI   C5A 2011   4.289  13.294   7.327  0.3503 -0.0899 -0.0961
  126loPI   C6A 2012   4.215  13.317   6.907 -0.0409 -0.0745  0.2179
  126loPI   C1B 2013   4.888  13.286   8.736  0.0600  0.4205 -0.1545
  126loPI   C2B 2014   5.139  13.236   8.371 -0.0574  0.0838 -0.0427
  126loPI   C3B 2015   5.500  13.208   8.059  0.0832 -0.0660 -0.3345
  126loPI   C4B 2016   5.642  13.374   7.713 -0.3301 -0.1181  0.1056
  127loPI    C1 2017   5.425   0.116  10.423 -0.1209  0.1669 -0.4062
  127loPI    C2 2018   5.807   0.174  10.525 -0.1082  0.0267 -0.3726
  127loPI    C3 2019   5.520   0.394  10.695 -0.0667 -0.0540 -0.1957
  127loPI   PO4 2020   5.400  -0.173  10.189 -0.2164  0.1016 -0.3734
  127loPI   GL1 2021   5.379  -0.426   9.802  0.1527 -0.1162  0.3470
  127loPI   GL2 2022   5.740  -0.479   9.714  0.0793  0.0121  0.2139
  127loPI   C1A 2023   5.253  -0.262   9.381  0.0129 -0.0522  0.4308
  127loPI   C2A 2024   5.528  -0.246   8.999  0.0553  0.0039 -0.2139
  127loPI   C3A 2025   5.824  -0.085   8.719 -0.3203  0.0893  0.0751
  127loPI   C4A 2026   6.197  -0.222   8.421 -0.3555 -0.0792 -0.0775
  127loPI   C5A 2027   6.466  -0.081   8.097 -0.0964  0.0029 -0.1911
  127loPI   C6A 2028   6.804   0.202   8.030 -0.2568 -0.1710  0.4053
  127loPI   C1B 2029   5.831  -0.166   9.361  0.1994 -0.2381 -0.0557
  127loPI   C2B 2030   5.895   0.164   9.150 -0.0250 -0.0834  0.0437
  127loPI   C3B 2031   6.208   0.315   8.889  0.0568 -0.1239  0.0268
  127loPI   C4B 2032   6.528   0.286   8.592  0.3725 -0.3643  0.0400
  128loPI    C1 2033  17.107  15.017  10.244  0.0566 -0.2057 -0.1065
  128loPI    C2 2034  17.458  14.869  10.368 -0.0583 -0.0024  0.4908
  128loPI    C3 2035  17.405  15.265  10.342 -0.1263 -0.0366  0.0306
  128loPI   PO4 2036  16.994  15.017   9.992  0.0296 -0.0920  0.1328
  128loPI   GL1 2037  17.045  14.804   9.609  0.0903  0.1171 -0.1095
  128loPI   GL2 2038  17.257  14.952   9.391 -0.4677 -0.0906  0.2264
  128loPI   C1A 2039  16.798  14.968   9.245 -0.0460 -0.0847 -0.2672
  128loPI   C2A 2040  16.567  15.241   8.979 -0.1276 -0.0576  0.0633
  128loPI   C3A 2041  16.560  15.231   8.507 -0.3125 -0.3115 -0.1183
  128loPI   C4A 2042  16.585  15.228   8.132  0.0308  0.0057 -0.0813
  128loPI   C5A 2043  16.689  15.181   7.767 -0.0256 -0.0137 -0.0514
  128loPI   C6A 2044  16.942  15.191   7.461  0.1666 -0.0638  0.1652
  128loPI   C1B 2045  17.406  14.965   9.058 -0.0046  0.1012  0.1067
  128loPI   C2B 2046  17.631  14.879   8.634 -0.3685 -0.2318 -0.0914
  128loPI   C3B 2047  17.552  14.788   8.243  0.0021  0.0996  0.2074
  128loPI   C4B 2048  17.720  14.817   7.816 -0.2083  0.1494 -0.1482
  129loPI    C1 2049   6.235  14.258  10.543  0.0514 -0.0021 -0.0709
  129loPI    C2 2050   6.016  14.273  10.878  0.4451 -0.1926  0.2035
  129loPI    C3 2051   6.322  14.526  10.827  0.2470 -0.0115 -0.1202
  129loPI   PO4 2052   6.026  14.229  10.294  0.1556 -0.0373 -0.0051
  129loPI   GL1 2053   6.078  14.029   9.833 -0.0378 -0.0431 -0.1575
  129loPI   GL2 2054   5.868  14.299   9.697 -0.1309  0.0596  0.2227
  129loPI   C1A 2055   6.141  14.003   9.434  0.0682 -0.1670 -0.1506
  129loPI   C2A 2056   6.249  14.082   8.911  0.0613 -0.2352  0.4166
  129loPI   C3A 2057   6.427  14.000   8.602  0.1429 -0.0200  0.2088
  129loPI   C4A 2058   6.730  13.748   8.204  0.1961  0.0882  0.0343
  129loPI   C5A 2059   6.407  13.567   7.870  0.0734  0.0756 -0.0350
  129loPI   C6A 2060   6.080  13.623   7.495 -0.0797  0.0449 -0.0020
  129loPI   C1B 2061   5.679  14.247   9.335  0.0317 -0.1175 -0.0767
  129loPI   C2B 2062   5.799  14.292   8.999  0.0354 -0.1930  0.2373
  129loPI   C3B 2063   5.789  14.516   8.743 -0.0764 -0.0480  0.3189
  129loPI   C4B 2064   5.873  14.541   8.279  0.1277  0.0349 -0.0256
  130loPI    C1 2065   7.929  11.806  10.413 -0.2221 -0.3047  0.2730
  130loPI    C2 2066   8.101  11.946  10.746 -0.2032 -0.1895  0.2157
  130loPI    C3 2067   8.060  11.551  10.692  0.0692 -0.2204  0.2172
  130loPI   PO4 2068   8.038  11.860  10.089  0.3146 -0.0544  0.0288
  130loPI   GL1 2069   8.007  12.002   9.706 -0.2698  0.3521 -0.1238
  130loPI   GL2 2070   8.071  12.257   9.708  0.1071 -0.2255  0.0299
  130loPI   C1A 2071   7.846  12.016   9.278 -0.5412  0.1996 -0.0211
  130loPI   C2A 2072   7.688  11.945   8.938 -0.1812 -0.3816 -0.0043
  130loPI   C3A 2073   7.770  11.767   8.536  0.1290 -0.2666 -0.0520
  130loPI   C4A 2074   7.712  11.784   8.076  0.1941  0.1187 -0.1516
  130loPI   C5A 2075   7.732  11.759   7.636  0.0583 -0.2680 -0.1011
  130loPI   C6A 2076   7.720  11.473   7.223  0.1720 -0.0400 -0.1021
  130loPI   C1B 2077   8.091  12.404   9.311 -0.2609 -0.2254 -0.1928
  130loPI   C2B 2078   8.118  12.368   8.860 -0.2042 -0.4376 -0.0459
  130loPI   C3B 2079   8.087  12.234   8.525 -0.0354 -0.0327 -0.2404
  130loPI   C4B 2080   8.025  12.188   8.123 -0.1079 -0.1450 -0.0905
  131loPI    C1 2081  12.157   1.839   9.951  0.1449  0.0189 -0.0621
  131loPI    C2 2082  11.902   1.832  10.258 -0.0049  0.1366 -0.1823
  131loPI    C3 2083  12.275   1.696  10.305 -0.0608  0.0492  0.0198
  131loPI   PO4 2084  12.012   1.726   9.680  0.1048  0.3120 -0.0757
  131loPI   GL1 2085  12.219   1.816   9.259  0.4435 -0.3711  0.0126
  131loPI   GL2 2086  12.069   2.104   9.107 -0.1415  0.1799  0.1462
  131loPI   C1A 2087  12.180   1.591   8.936 -0.1369 -0.1469  0.1259
  131loPI   C2A 2088  12.060   1.603   8.537  0.0302 -0.0864 -0.3010
  131loPI   C3A 2089  12.064   1.542   8.092  0.4084 -0.0593  0.3005
  131loPI   C4A 2090  12.102   1.424   7.701 -0.1611 -0.1346  0.1671
  131loPI   C5A 2091  12.335   1.467   7.291  0.1490  0.2208 -0.0592
  131loPI   C6A 2092  12.459   1.707   6.934 -0.0301  0.2702  0.1411
  131loPI   C1B 2093  12.261   2.136   8.776 -0.0828  0.3009 -0.0419
  131loPI   C2B 2094  12.134   2.201   8.353  0.1009  0.1618  0.0607
  131loPI   C3B 2095  11.998   2.026   8.043 -0.0961  0.2032  0.0671
  131loPI   C4B 2096  11.604   2.195   7.760  0.0454  0.0427  0.3898
  132loPI    C1 2097   1.387  18.044   9.370  0.2100 -0.0854  0.0672
  132loPI    C2 2098   1.061  17.978   9.593  0.1513 -0.0180  0.0023
  132loPI    C3 2099   1.414  18.046   9.769  0.1076  0.0233  0.0744
  132loPI   PO4 2100   1.458  17.896   9.194 -0.0684  0.0028 -0.0442
  132loPI   GL1 2101   1.566  17.879   8.789  0.0921  0.2167  0.0952
  132loPI   GL2 2102   1.285  17.706   8.708  0.0878 -0.1789  0.0830
  132loPI   C1A 2103   1.764  18.127   8.511  0.0738 -0.1731  0.1522
  132loPI   C2A 2104   1.691  18.415   8.085  0.0175 -0.1323 -0.0644
  132loPI   C3A 2105   1.312  18.518   7.923 -0.0111 -0.1378 -0.2527
  132loPI   C4A 2106   0.990  18.224   7.796  0.1268  0.1486 -0.1340
  132loPI   C5A 2107   0.606  18.358   7.873 -0.3040  0.2176 -0.3172
  132loPI   C6A 2108   0.262  18.499   7.562 -0.2079  0.2258 -0.4236
  132loPI   C1B 2109   1.355  17.929   8.310  0.1171  0.1158 -0.1602
  132loPI   C2B 2110   1.430  18.061   7.901  0.0165  0.1141  0.0849
  132loPI   C3B 2111   1.653  18.183   7.572  0.1053  0.2882 -0.1181
  132loPI   C4B 2112   1.847  18.139   7.237  0.0242 -0.2249  0.2543
  133loPI    C1 2113   0.292   1.552  10.098  0.2481 -0.2705 -0.2233
  133loPI    C2 2114   0.485   1.744  10.391 -0.0045  0.0549 -0.2650
  133loPI    C3 2115   0.162   1.523  10.475  0.0295  0.0017 -0.2744
  133loPI   PO4 2116   0.396   1.727   9.838  0.1195 -0.0330  0.0050
  133loPI   GL1 2117   0.141   2.026   9.598 -0.0581  0.4113  0.1297
  133loPI   GL2 2118   0.391   2.193   9.683  0.0149 -0.2415 -0.2257
  133loPI   C1A 2119   0.168   2.356   9.173  0.4836  0.0626 -0.1763
  133loPI   C2A 2120   0.110   2.342   8.714  0.1955  0.2616 -0.0848
  133loPI   C3A 2121   0.209   2.364   8.350  0.0752  0.0904  0.0037
  133loPI   C4A 2122   0.417   2.627   8.090  0.0562  0.0399 -0.1380
  133loPI   C5A 2123   0.780   2.685   7.857 -0.1148 -0.2233 -0.1676
  133loPI   C6A 2124   1.152   2.721   7.781  0.0721  0.0202  0.4366
  133loPI   C1B 2125   0.617   2.088   9.327 -0.5090  0.2023 -0.1657
  133loPI   C2B 2126   0.510   2.067   8.880  0.4223  0.0150  0.1470
  133loPI   C3B 2127   0.819   2.127   8.536  0.3828 -0.0165 -0.0563
  133loPI   C4B 2128   1.226   2.045   8.554 -0.1263  0.0515  0.2223
  134loPI    C1 2129   7.331  10.456  10.025 -0.3235 -0.1580 -0.1316
  134loPI    C2 2130   7.039  10.320  10.262 -0.1453 -0.0240  0.1709
  134loPI    C3 2131   7.421  10.289  10.377 -0.0707  0.2584  0.0088
  134loPI   PO4 2132   7.206  10.733   9.974  0.0358 -0.2716 -0.1435
  134loPI   GL1 2133   6.951  10.787   9.512 -0.1842  0.1770  0.2261
  134loPI   GL2 2134   7.199  10.909   9.404  0.1046 -0.2119  0.2992
  134loPI   C1A 2135   6.835  10.752   9.100  0.1309  0.2157 -0.0494
  134loPI   C2A 2136   6.956  10.759   8.621  0.0729 -0.2200 -0.2939
  134loPI   C3A 2137   6.826  10.655   8.216 -0.0393 -0.1380  0.1952
  134loPI   C4A 2138   6.820  10.487   7.759  0.0124 -0.0625  0.2242
  134loPI   C5A 2139   6.747  10.308   7.380 -0.0706 -0.2289  0.1031
  134loPI   C6A 2140   6.781  10.076   6.901  0.2330 -0.0493  0.0794
  134loPI   C1B 2141   7.240  11.045   8.997 -0.0549 -0.0883 -0.3695
  134loPI   C2B 2142   7.406  11.010   8.593  0.0945  0.2236  0.1303
  134loPI   C3B 2143   7.372  10.850   8.235 -0.2846  0.3691 -0.2417
  134loPI   C4B 2144   7.555  10.764   7.867  0.0488 -0.1568 -0.2345
  135loPI    C1 2145   4.552   8.692   9.976  0.0154 -0.0612 -0.0566
  135loPI    C2 2146   4.840   8.922   9.820  0.0936 -0.2647 -0.2175
  135loPI    C3 2147   4.836   8.844  10.212  0.2789 -0.2898 -0.2199
  135loPI   PO4 2148   4.613   8.433   9.786  0.0849  0.2121 -0.1704
  135loPI   GL1 2149   4.561   8.261   9.423 -0.2807  0.1833 -0.2828
  135loPI   GL2 2150   4.817   8.469   9.347 -0.2478 -0.1078  0.0515
  135loPI   C1A 2151   4.576   8.070   9.065 -0.0111 -0.0110  0.0431
  135loPI   C2A 2152   4.550   8.237   8.642  0.0320  0.0073  0.1101
  135loPI   C3A 2153   4.678   8.318   8.190  0.0819  0.0263  0.2833
  135loPI   C4A 2154   4.899   8.306   7.846 -0.0923 -0.0788 -0.1048
  135loPI   C5A 2155   5.155   8.579   7.607  0.1921 -0.0876  0.1433
  135loPI   C6A 2156   5.051   8.936   7.454  0.1564 -0.0623  0.2073
  135loPI   C1B 2157   4.963   8.429   8.967 -0.2154 -0.0058  0.0241
  135loPI   C2B 2158   5.043   8.502   8.628 -0.2835 -0.1965 -0.2239
  135loPI   C3B 2159   5.215   8.480   8.175  0.1216  0.0141 -0.1188
  135loPI   C4B 2160   5.441   8.296   7.865 -0.0424 -0.2356  0.0812
  136loPI    C1 2161  11.462  16.278  10.123  0.0338 -0.1452  0.3252
  136loPI    C2 2162  11.214  16.098   9.864 -0.0335  0.1467  0.1823
  136loPI    C3 2163  11.150  16.066  10.258 -0.0980 -0.0624  0.1562
  136loPI   PO4 2164  11.563  16.474   9.954  0.2280  0.2248  0.1406
  136loPI   GL1 2165  11.383  16.481   9.524 -0.0214  0.0036 -0.1644
  136loPI   GL2 2166  11.764  16.449   9.461  0.3822 -0.1439  0.3759
  136loPI   C1A 2167  11.212  16.659   9.238  0.0874 -0.1505  0.1149
  136loPI   C2A 2168  11.265  16.706   8.894 -0.0804  0.1396  0.1221
  136loPI   C3A 2169  11.249  16.810   8.450  0.1016  0.0916 -0.1060
  136loPI   C4A 2170  11.260  16.665   7.910  0.1349 -0.1096  0.0310
  136loPI   C5A 2171  11.456  16.413   7.609 -0.0912  0.2626 -0.3137
  136loPI   C6A 2172  11.753  16.150   7.425  0.0174 -0.1457  0.0714
  136loPI   C1B 2173  11.826  16.608   8.988  0.1234  0.0679 -0.1782
  136loPI   C2B 2174  11.735  16.647   8.605  0.3079 -0.0070 -0.1611
  136loPI   C3B 2175  11.726  16.606   8.161 -0.3630 -0.1741 -0.0241
  136loPI   C4B 2176  12.039  16.557   7.757 -0.0956 -0.0392  0.1243
  137loPI    C1 2177  15.955   0.143   9.831  0.0826  0.0638 -0.0778
  137loPI    C2 2178  15.617  -0.071   9.854  0.0698  0.0874 -0.0478
  137loPI    C3 2179  15.654   0.269  10.063  0.2648 -0.1221  0.2663
  137loPI   PO4 2180  15.984   0.124   9.602  0.2174  0.0793 -0.2079
  137loPI   GL1 2181  15.725  -0.023   9.270 -0.1054 -0.0182  0.1669
  137loPI   GL2 2182  15.826  -0.335   9.109 -0.1475 -0.1039 -0.1798
  137loPI   C1A 2183  15.917   0.190   8.926 -0.3729 -0.2707 -0.2688
  137loPI   C2A 2184  15.900   0.359   8.447  0.2471 -0.1873  0.1464
  137loPI   C3A 2185  16.142   0.268   8.132  0.0249  0.1963  0.1953
  137loPI   C4A 2186  16.346   0.275   7.839  0.3253 -0.2092  0.2274
  137loPI   C5A 2187  16.681   0.339   7.481 -0.1488  0.3241 -0.3899
  137loPI   C6A 2188  16.740   0.433   7.083 -0.2316  0.5722 -0.2738
  137loPI   C1B 2189  15.772  -0.245   8.673  0.2617 -0.0973  0.2301
  137loPI   C2B 2190  15.650  -0.068   8.176 -0.2210  0.1879  0.0810
  137loPI   C3B 2191  15.754   0.150   7.756 -0.5599 -0.0707  0.0426
  137loPI   C4B 2192  15.923   0.613   7.830  0.2578 -0.3540  0.0553
  138loPI    C1 2193   5.760  17.927   9.983 -0.1105 -0.1520  0.2115
  138loPI    C2 2194   5.772  17.914  10.383  0.3588 -0.2755  0.1993
  138loPI    C3 2195   6.045  17.715  10.168  0.2567 -0.0157 -0.1815
  138loPI   PO4 2196   5.924  18.164   9.840  0.3432  0.2447  0.1610
  138loPI   GL1 2197   6.025  18.244   9.380 -0.1443  0.3221  0.1828
  138loPI   GL2 2198   6.201  18.571   9.412  0.3016 -0.1613  0.0162
  138loPI   C1A 2199   5.840  18.434   8.911  0.0165  0.0499 -0.3133
  138loPI   C2A 2200   5.679  18.552   8.582 -0.2420  0.0503 -0.1365
  138loPI   C3A 2201   5.785  18.578   8.216  0.1316 -0.0905 -0.3392
  138loPI   C4A 2202   5.404  18.644   7.913 -0.4459 -0.0977 -0.3207
  138loPI   C5A 2203   5.010  18.733   7.496 -0.1233 -0.0662 -0.3157
  138loPI   C6A 2204   4.709  18.515   7.627  0.1881 -0.3683 -0.1035
  138loPI   C1B 2205   6.170  18.767   8.938 -0.2795 -0.2411 -0.2261
  138loPI   C2B 2206   6.521  18.847   8.823  0.1075  0.1925 -0.2187
  138loPI   C3B 2207   6.824  18.570   8.757  0.1765 -0.1690  0.1779
  138loPI   C4B 2208   7.197  18.424   8.529 -0.0331 -0.1011 -0.1427
  139loPI    C1 2209  16.986   7.620   9.921 -0.0820  0.2078 -0.0147
  139loPI    C2 2210  16.918   7.319  10.177 -0.3737  0.1473 -0.1584
  139loPI    C3 2211  17.046   7.673  10.313 -0.0520 -0.0313  0.0148
  139loPI   PO4 2212  16.976   7.460   9.749  0.2042  0.1332  0.0189
  139loPI   GL1 2213  16.947   7.497   9.323  0.0216  0.2708  0.5014
  139loPI   GL2 2214  17.003   7.379   9.031  0.0685 -0.0901  0.1363
  139loPI   C1A 2215  17.055   7.817   8.884 -0.1676  0.1072  0.1017
  139loPI   C2A 2216  17.220   8.079   8.627 -0.2004  0.3106  0.0743
  139loPI   C3A 2217  17.262   8.245   8.130  0.2606 -0.0493 -0.1841
  139loPI   C4A 2218  17.362   8.244   7.767  0.1445 -0.2130 -0.2308
  139loPI   C5A 2219  17.511   8.230   7.387 -0.1478 -0.0661  0.0171
  139loPI   C6A 2220  17.487   8.183   6.996 -0.3552 -0.2280 -0.0716
  139loPI   C1B 2221  16.977   7.394   8.580 -0.1849 -0.3075 -0.3307
  139loPI   C2B 2222  16.849   7.550   8.238 -0.2247 -0.1973  0.3769
  139loPI   C3B 2223  16.966   7.380   7.860  0.6075 -0.1463 -0.2516
  139loPI   C4B 2224  17.248   7.098   7.605 -0.0515 -0.0044  0.2962
  140loPI    C1 2225   7.655   4.603   9.637  0.1665  0.1656  0.0566
  140loPI    C2 2226   7.315   4.749   9.788 -0.1030 -0.0583 -0.3147
  140loPI    C3 2227   7.562   4.535  10.020 -0.1872  0.1475 -0.0296
  140loPI   PO4 2228   7.602   4.584   9.437  0.3848  0.1168 -0.2717
  140loPI   GL1 2229   7.970   4.737   8.977  0.2744 -0.4627 -0.0841
  140loPI   GL2 2230   7.762   4.985   9.135 -0.1014 -0.0588  0.2587
  140loPI   C1A 2231   7.792   4.611   8.609 -0.0048  0.0727 -0.2402
  140loPI   C2A 2232   7.887   4.634   8.244  0.0378 -0.2152 -0.4139
  140loPI   C3A 2233   7.749   4.683   7.808 -0.0703  0.0856 -0.0945
  140loPI   C4A 2234   7.600   4.275   7.525  0.2860 -0.1046  0.4355
  140loPI   C5A 2235   7.553   3.938   7.292  0.1356 -0.1399  0.0345
  140loPI   C6A 2236   7.379   3.500   7.241  0.0733  0.0967 -0.1124
  140loPI   C1B 2237   7.589   5.022   8.797 -0.0664  0.1735 -0.0499
  140loPI   C2B 2238   7.637   5.044   8.407 -0.4059 -0.1151  0.1883
  140loPI   C3B 2239   7.731   5.117   8.001 -0.1077 -0.0570  0.1126
  140loPI   C4B 2240   7.754   5.502   8.202 -0.0788 -0.0937  0.0419
  141loPI    C1 2241  11.335  13.870  10.132  0.0388 -0.1667 -0.2234
  141loPI    C2 2242  11.068  13.600  10.258  0.0675 -0.1491 -0.1235
  141loPI    C3 2243  11.240  13.848  10.520  0.0520 -0.0430 -0.2127
  141loPI   PO4 2244  11.561  13.789   9.990 -0.1121  0.2524  0.1062
  141loPI   GL1 2245  11.826  13.669   9.671 -0.2060  0.3405 -0.0593
  141loPI   GL2 2246  11.629  13.871   9.478  0.0301 -0.0250 -0.1271
  141loPI   C1A 2247  11.944  13.484   9.349 -0.0838 -0.0073  0.0030
  141loPI   C2A 2248  12.226  13.326   8.952  0.1426 -0.3138 -0.1338
  141loPI   C3A 2249  12.091  13.135   8.630 -0.3880 -0.1159  0.2571
  141loPI   C4A 2250  11.855  13.035   8.191  0.0676  0.1893  0.2904
  141loPI   C5A 2251  11.994  12.876   7.864  0.2423 -0.0211  0.1747
  141loPI   C6A 2252  11.821  12.670   7.548  0.2936 -0.1670  0.1936
  141loPI   C1B 2253  11.400  13.807   9.097  0.0167  0.0329 -0.0313
  141loPI   C2B 2254  11.492  13.914   8.655 -0.1851  0.1157 -0.2368
  141loPI   C3B 2255  11.532  13.770   8.180  0.3942 -0.2399 -0.0202
  141loPI   C4B 2256  11.575  13.409   7.826 -0.4088 -0.0764 -0.1088
  142loPI    C1 2257  16.616   0.812   9.735 -0.2251  0.0048  0.1106
  142loPI    C2 2258  16.459   0.769  10.100  0.0137  0.1829  0.2370
  142loPI    C3 2259  16.850   0.843  10.058  0.0811 -0.3068 -0.0739
  142loPI   PO4 2260  16.420   0.899   9.560  0.0802  0.0797 -0.1118
  142loPI   GL1 2261  16.554   0.995   9.193 -0.0799  0.0954 -0.0997
  142loPI   GL2 2262  16.842   0.810   9.214 -0.1081 -0.1528  0.2119
  142loPI   C1A 2263  16.358   1.098   8.802  0.2022  0.0854  0.0636
  142loPI   C2A 2264  16.068   1.302   8.403  0.4071  0.0130  0.1559
  142loPI   C3A 2265  15.654   1.232   8.186  0.0785  0.0435  0.2107
  142loPI   C4A 2266  15.521   1.011   7.822 -0.1124  0.0317  0.0236
  142loPI   C5A 2267  15.559   1.148   7.449  0.0560 -0.2590  0.2634
  142loPI   C6A 2268  15.566   1.358   7.030 -0.1416  0.2232 -0.2595
  142loPI   C1B 2269  16.807   0.705   8.745 -0.1351  0.1045 -0.0673
  142loPI   C2B 2270  16.742   0.844   8.335 -0.3568  0.0452 -0.1148
  142loPI   C3B 2271  16.814   0.993   7.904  0.0591  0.0880 -0.0163
  142loPI   C4B 2272  16.989   0.777   7.532  0.2303 -0.3802  0.2712
  143loPI    C1 2273   9.675  16.779   9.998 -0.3083 -0.1052  0.0429
  143loPI    C2 2274   9.691  16.782  10.398  0.1182 -0.3031  0.0329
  143loPI    C3 2275   9.354  16.889  10.210 -0.0919 -0.2248  0.4429
  143loPI   PO4 2276   9.811  16.563   9.945 -0.1204  0.1657 -0.2722
  143loPI   GL1 2277  10.048  16.408   9.517 -0.1985 -0.3977  0.1217
  143loPI   GL2 2278   9.865  16.130   9.461 -0.3037  0.3373 -0.0796
  143loPI   C1A 2279   9.887  16.586   9.124  0.2677  0.0679  0.0191
  143loPI   C2A 2280   9.996  16.868   8.833  0.1083  0.0654 -0.1728
  143loPI   C3A 2281  10.216  16.920   8.395  0.0115  0.6990 -0.0903
  143loPI   C4A 2282  10.552  16.862   8.127 -0.2464  0.1295 -0.1477
  143loPI   C5A 2283  10.871  16.983   7.992  0.1210 -0.3418 -0.0668
  143loPI   C6A 2284  11.264  17.423   7.932  0.2683 -0.0763 -0.0995
  143loPI   C1B 2285   9.866  16.082   9.032  0.0149  0.1800  0.0703
  143loPI   C2B 2286  10.024  15.995   8.643  0.0325  0.1239 -0.0369
  143loPI   C3B 2287  10.154  15.821   8.240 -0.0581 -0.1047 -0.2395
  143loPI   C4B 2288  10.300  15.499   8.433 -0.0155  0.1695  0.1250
  144loPI    C1 2289   5.589   9.605  10.117  0.3799 -0.0822 -0.0812
  144loPI    C2 2290   5.520   9.346  10.413  0.2398 -0.1869 -0.2037
  144loPI    C3 2291   5.640   9.718  10.497  0.0909 -0.1809 -0.0111
  144loPI   PO4 2292   5.711   9.434   9.867  0.0893  0.1608 -0.0513
  144loPI   GL1 2293   5.526   9.162   9.485  0.1317 -0.0745 -0.1205
  144loPI   GL2 2294   5.715   8.907   9.515  0.1035  0.0534  0.0664
  144loPI   C1A 2295   5.636   9.303   9.133 -0.0589  0.0305  0.0463
  144loPI   C2A 2296   5.644   9.374   8.729  0.2188  0.0787  0.2865
  144loPI   C3A 2297   5.579   9.354   8.287 -0.0020  0.0301 -0.1669
  144loPI   C4A 2298   5.567   9.401   7.829  0.0021  0.0049 -0.1089
  144loPI   C5A 2299   5.654   9.602   7.555  0.1215  0.0870  0.1131
  144loPI   C6A 2300   5.630   9.623   7.040  0.0439 -0.0008 -0.2892
  144loPI   C1B 2301   5.685   8.627   9.171  0.0236 -0.3144 -0.0956
  144loPI   C2B 2302   5.641   8.643   8.698 -0.1557  0.0936 -0.0854
  144loPI   C3B 2303   5.586   8.511   8.480 -0.1815 -0.3211 -0.0539
  144loPI   C4B 2304   5.375   8.157   8.514 -0.1512  0.1777  0.3299
  145loPI    C1 2305  11.601   2.688   9.981  0.4606 -0.2653  0.1931
  145loPI    C2 2306  11.528   3.050  10.134 -0.0712 -0.3051  0.0555
  145loPI    C3 2307  11.905   2.921  10.094  0.1228  0.2095  0.1504
  145loPI   PO4 2308  11.306   2.625   9.843 -0.0481 -0.2553 -0.0720
  145loPI   GL1 2309  11.204   2.818   9.452 -0.0500  0.1594 -0.0021
  145loPI   GL2 2310  11.344   3.106   9.580 -0.2608  0.0258 -0.1197
  145loPI   C1A 2311  11.073   2.941   9.009  0.1983 -0.1270  0.1363
  145loPI   C2A 2312  10.987   3.248   8.780 -0.1036 -0.2213 -0.0238
  145loPI   C3A 2313  10.712   3.604   8.808  0.3249 -0.0845 -0.5780
  145loPI   C4A 2314  10.410   3.720   8.427  0.0226 -0.0696 -0.1020
  145loPI   C5A 2315  10.232   4.056   8.118  0.1084  0.3289  0.1125
  145loPI   C6A 2316  10.171   4.091   7.667  0.1017 -0.0874 -0.0068
  145loPI   C1B 2317  11.459   3.156   9.154  0.0935 -0.0857 -0.0313
  145loPI   C2B 2318  11.485   3.071   8.740 -0.0721  0.2496  0.1885
  145loPI   C3B 2319  11.241   3.057   8.329 -0.0156  0.0174 -0.2288
  145loPI   C4B 2320  10.804   3.145   8.371  0.2023 -0.6270 -0.2397
  146loPI    C1 2321   8.998   2.071   9.815  0.0983 -0.0936  0.0524
  146loPI    C2 2322   8.601   2.119   9.837  0.1040 -0.0075 -0.0271
  146loPI    C3 2323   8.755   1.758   9.757  0.0572 -0.1436  0.4666
  146loPI   PO4 2324   9.095   2.409   9.709  0.4221 -0.4376 -0.2590
  146loPI   GL1 2325   9.154   2.749   9.443 -0.0917  0.2289  0.1776
  146loPI   GL2 2326   8.986   2.672   9.228  0.1653  0.2137 -0.0633
  146loPI   C1A 2327   9.339   3.011   9.082  0.2986  0.1543  0.0803
  146loPI   C2A 2328   9.609   3.033   8.730  0.1860  0.0416  0.1495
  146loPI   C3A 2329   9.726   3.116   8.386  0.2190 -0.0195  0.3024
  146loPI   C4A 2330   9.957   3.156   8.099 -0.1033 -0.1927  0.1885
  146loPI   C5A 2331  10.094   3.073   7.631  0.1032 -0.0120 -0.1321
  146loPI   C6A 2332  10.515   2.820   7.448 -0.4905  0.0629  0.4854
  146loPI   C1B 2333   8.777   2.550   8.915  0.2012  0.0444  0.1247
  146loPI   C2B 2334   8.681   2.519   8.473  0.3364 -0.2431 -0.1934
  146loPI   C3B 2335   8.962   2.642   8.244 -0.0553  0.1428  0.0629
  146loPI   C4B 2336   9.071   2.684   7.774 -0.0919 -0.4381 -0.0357
  147loPI    C1 2337   5.259   7.616  10.311  0.0880 -0.0516 -0.2855
  147loPI    C2 2338   4.907   7.480  10.441  0.1731  0.1095  0.1281
  147loPI    C3 2339   5.175   7.621  10.702  0.4005  0.3281 -0.2168
  147loPI   PO4 2340   5.245   7.508  10.033 -0.3688 -0.1581 -0.2091
  147loPI   GL1 2341   5.302   7.320   9.604 -0.0192 -0.6156 -0.2997
  147loPI   GL2 2342   5.166   6.950   9.633 -0.3346 -0.1823 -0.2142
  147loPI   C1A 2343   5.226   7.438   9.096 -0.2290  0.2110 -0.0975
  147loPI   C2A 2344   5.449   7.652   8.709  0.1965 -0.1901 -0.1686
  147loPI   C3A 2345   5.331   7.653   8.304  0.3674 -0.0341 -0.1583
  147loPI   C4A 2346   5.208   7.552   7.870 -0.1758  0.2931  0.2660
  147loPI   C5A 2347   5.430   7.808   7.620  0.0752  0.0184  0.0325
  147loPI   C6A 2348   5.617   7.854   7.269 -0.0220 -0.1857 -0.2990
  147loPI   C1B 2349   5.301   6.786   9.244 -0.0612 -0.0733 -0.1144
  147loPI   C2B 2350   5.425   6.930   8.947  0.0560  0.5426 -0.1698
  147loPI   C3B 2351   5.812   6.774   8.597 -0.1481 -0.0383 -0.1674
  147loPI   C4B 2352   5.974   6.676   8.115  0.1820 -0.0700  0.1413
  148loPI    C1 2353   5.555   0.622  10.300 -0.1325  0.0519 -0.0803
  148loPI    C2 2354   5.942   0.695  10.229 -0.0908 -0.1148 -0.0298
  148loPI    C3 2355   5.787   0.770  10.590 -0.1270  0.0338 -0.0754
  148loPI   PO4 2356   5.426   0.722  10.031 -0.1436  0.1087  0.2628
  148loPI   GL1 2357   5.680   0.870   9.646  0.5324 -0.0508 -0.0718
  148loPI   GL2 2358   5.444   0.626   9.517 -0.0335  0.1549 -0.1624
  148loPI   C1A 2359   5.821   0.775   9.185 -0.1181  0.1236  0.4856
  148loPI   C2A 2360   6.102   0.781   8.774  0.1034 -0.2102 -0.0674
  148loPI   C3A 2361   6.209   0.649   8.394  0.1453 -0.0216 -0.1350
  148loPI   C4A 2362   6.118   0.271   8.240  0.1300 -0.1671 -0.3612
  148loPI   C5A 2363   5.901  -0.079   8.000  0.2148 -0.1447 -0.0986
  148loPI   C6A 2364   5.898  -0.377   7.656  0.2609 -0.2836 -0.0815
  148loPI   C1B 2365   5.439   0.396   9.123 -0.1293 -0.0411  0.2328
  148loPI   C2B 2366   5.670   0.384   8.744  0.1004 -0.0335 -0.0344
  148loPI   C3B 2367   5.609   0.473   8.246  0.3082  0.0738  0.0045
  148loPI   C4B 2368   5.719   0.564   7.782  0.2370  0.1881  0.2722
  149loPI    C1 2369  12.836  14.728  10.176  0.1040 -0.1159 -0.3181
  149loPI    C2 2370  13.034  14.960   9.916  0.2354 -0.0428 -0.1548
  149loPI    C3 2371  13.150  14.943  10.298  0.1129 -0.2371 -0.1244
  149loPI   PO4 2372  12.760  14.590  10.085  0.2552 -0.0814  0.1746
  149loPI   GL1 2373  12.813  14.454   9.676 -0.0273 -0.1181 -0.1968
  149loPI   GL2 2374  12.806  14.135   9.514  0.0050  0.3095 -0.1797
  149loPI   C1A 2375  12.811  14.765   9.324  0.1521 -0.2331 -0.0892
  149loPI   C2A 2376  12.684  14.797   8.847  0.3586  0.3525  0.1213
  149loPI   C3A 2377  12.481  14.873   8.585  0.1887 -0.3086  0.0583
  149loPI   C4A 2378  12.342  14.825   8.087 -0.3267  0.1034  0.1284
  149loPI   C5A 2379  12.136  14.722   7.688  0.0720  0.1949 -0.0053
  149loPI   C6A 2380  11.867  14.657   7.538 -0.1911  0.0367 -0.0551
  149loPI   C1B 2381  12.695  14.332   9.154 -0.1587 -0.0822  0.1306
  149loPI   C2B 2382  12.601  14.290   8.735 -0.1804  0.1877  0.0323
  149loPI   C3B 2383  12.700  14.281   8.325  0.0042  0.0815  0.1121
  149loPI   C4B 2384  12.742  14.356   7.891 -0.1721  0.1280  0.1155
  150loPI    C1 2385   2.050  15.270   9.737 -0.3481 -0.1527 -0.1008
  150loPI    C2 2386   1.849  15.475  10.016  0.1758  0.0205  0.1622
  150loPI    C3 2387   1.921  15.085  10.068 -0.1190 -0.0515  0.0478
  150loPI   PO4 2388   2.077  15.285   9.514  0.0636  0.0280 -0.1339
  150loPI   GL1 2389   2.247  15.327   9.066 -0.1683 -0.2917  0.1561
  150loPI   GL2 2390   2.646  15.349   9.045  0.5637  0.1757  0.1307
  150loPI   C1A 2391   2.332  15.639   8.787  0.2696  0.0375 -0.0663
  150loPI   C2A 2392   2.161  16.018   8.587 -0.0833 -0.1388 -0.0564
  150loPI   C3A 2393   2.219  16.190   8.221  0.2354 -0.3747  0.2044
  150loPI   C4A 2394   2.353  16.342   7.821  0.0297 -0.1899  0.1595
  150loPI   C5A 2395   2.417  16.338   7.321 -0.1522 -0.0972 -0.3907
  150loPI   C6A 2396   2.446  16.332   6.936  0.1685 -0.2664  0.2219
  150loPI   C1B 2397   2.576  15.193   8.670 -0.1985  0.0668 -0.4527
  150loPI   C2B 2398   2.548  15.011   8.307 -0.4209 -0.0654 -0.3306
  150loPI   C3B 2399   2.579  14.881   8.020  0.1230 -0.2485 -0.2528
  150loPI   C4B 2400   2.729  14.980   7.711  0.0371  0.1071 -0.2646
  151loPI    C1 2401  18.046  17.254   9.434 -0.1202 -0.1630 -0.0040
  151loPI    C2 2402  17.817  17.483   9.670 -0.0243 -0.0409 -0.0285
  151loPI    C3 2403  18.144  17.306   9.818  0.0519  0.0586 -0.0756
  151loPI   PO4 2404  18.144  17.436   9.231  0.3090 -0.0937  0.1674
  151loPI   GL1 2405  18.058  17.567   8.888 -0.1011  0.2570  0.1134
  151loPI   GL2 2406  18.045  17.902   8.874  0.0397  0.0114  0.1026
  151loPI   C1A 2407  18.073  17.275   8.500  0.0399 -0.1599 -0.3174
  151loPI   C2A 2408  18.165  17.122   8.098 -0.2234 -0.1859  0.0060
  151loPI   C3A 2409  18.345  17.186   7.693 -0.1273  0.0116  0.0557
  151loPI   C4A 2410  18.159  17.381   7.329 -0.2635 -0.0927  0.2669
  151loPI   C5A 2411  17.753  17.650   7.042 -0.1324  0.0720  0.0313
  151loPI   C6A 2412  17.786  18.014   6.869 -0.2337  0.4740 -0.2353
  151loPI   C1B 2413  17.993  17.865   8.396  0.2667  0.1581  0.2505
  151loPI   C2B 2414  18.015  17.648   8.024 -0.0347  0.1221 -0.0902
  151loPI   C3B 2415  17.782  17.537   7.554  0.0664 -0.0792 -0.3131
  151loPI   C4B 2416  17.559  17.151   7.310 -0.5360  0.0411 -0.0181
  152loPI    C1 2417   3.378   1.124  10.312 -0.0115  0.2264 -0.0477
  152loPI    C2 2418   3.694   1.366  10.358  0.2211 -0.0687 -0.0603
  152loPI    C3 2419   3.399   1.369  10.628  0.3531  0.0326  0.0844
  152loPI   PO4 2420   3.437   0.999  10.004 -0.1005  0.1593 -0.2244
  152loPI   GL1 2421   3.093   1.192   9.760 -0.0515 -0.0399  0.0130
  152loPI   GL2 2422   3.189   1.029   9.569 -0.0247 -0.0950  0.3401
  152loPI   C1A 2423   3.284   1.495   9.445 -0.2103 -0.3098  0.2523
  152loPI   C2A 2424   3.543   1.827   9.218 -0.3521 -0.0910  0.2414
  152loPI   C3A 2425   3.723   1.844   8.823 -0.0342 -0.1324 -0.3447
  152loPI   C4A 2426   3.644   1.710   8.400  0.0355 -0.1013 -0.0476
  152loPI   C5A 2427   3.924   1.715   8.063  0.1067  0.4162  0.1462
  152loPI   C6A 2428   4.144   1.507   7.645  0.0346 -0.1395  0.0399
  152loPI   C1B 2429   3.103   1.107   9.145  0.0411  0.2296 -0.1135
  152loPI   C2B 2430   3.038   1.270   8.709  0.1141  0.0225  0.2724
  152loPI   C3B 2431   3.221   1.391   8.285 -0.2612 -0.2501  0.3016
  152loPI   C4B 2432   3.193   1.701   8.012 -0.0104  0.1142  0.0060
  153loPI    C1 2433   7.433   6.556  10.038 -0.1291 -0.2197 -0.0452
  153loPI    C2 2434   7.544   6.268  10.293 -0.0702  0.1287  0.3322
  153loPI    C3 2435   7.789   6.576  10.220 -0.0368 -0.0231 -0.2429
  153loPI   PO4 2436   7.297   6.518   9.837  0.1699 -0.2763  0.1101
  153loPI   GL1 2437   7.160   6.430   9.457  0.1432  0.2358 -0.1975
  153loPI   GL2 2438   7.241   6.870   9.473  0.0369  0.0986 -0.1978
  153loPI   C1A 2439   7.291   6.529   9.062  0.1557  0.2429 -0.1236
  153loPI   C2A 2440   7.295   6.797   8.722 -0.0207 -0.0253 -0.0801
  153loPI   C3A 2441   7.048   6.876   8.388 -0.1000  0.1040  0.1342
  153loPI   C4A 2442   7.007   7.072   7.982  0.1468 -0.2639  0.0661
  153loPI   C5A 2443   6.690   7.378   7.799 -0.1720  0.0103 -0.1665
  153loPI   C6A 2444   6.459   7.376   7.494 -0.0636 -0.1399 -0.0587
  153loPI   C1B 2445   7.386   7.084   9.195 -0.0888  0.2984  0.1455
  153loPI   C2B 2446   7.387   7.299   8.848 -0.1845 -0.0421  0.4751
  153loPI   C3B 2447   7.348   7.392   8.403 -0.1566 -0.0289 -0.1420
  153loPI   C4B 2448   7.569   7.500   8.298 -0.1908 -0.1879 -0.0044
  154loPI    C1 2449   5.726   3.026  10.376 -0.1719 -0.0477  0.1157
  154loPI    C2 2450   5.512   3.297  10.578  0.1052  0.3741 -0.1399
  154loPI    C3 2451   5.834   3.130  10.747 -0.3086 -0.1346  0.1809
  154loPI   PO4 2452   5.597   2.842  10.212  0.2031 -0.2874 -0.2040
  154loPI   GL1 2453   5.574   2.701   9.835 -0.6175  0.1684  0.1182
  154loPI   GL2 2454   5.888   2.590   9.723 -0.0095 -0.0790 -0.0538
  154loPI   C1A 2455   5.276   2.533   9.580 -0.0042  0.4333  0.1098
  154loPI   C2A 2456   5.328   2.334   9.227  0.4175  0.3332  0.5378
  154loPI   C3A 2457   5.381   2.020   8.874 -0.2114 -0.1145 -0.4112
  154loPI   C4A 2458   5.460   2.355   8.648 -0.0910 -0.0653  0.1782
  154loPI   C5A 2459   5.724   2.396   8.229 -0.0767 -0.0375 -0.0424
  154loPI   C6A 2460   6.076   2.555   8.024  0.1374 -0.0465 -0.0835
  154loPI   C1B 2461   5.699   2.646   9.302  0.3403  0.1098 -0.1729
  154loPI   C2B 2462   5.822   2.584   8.811 -0.2257  0.0503 -0.3013
  154loPI   C3B 2463   6.043   2.841   8.542 -0.1775  0.3269 -0.2066
  154loPI   C4B 2464   5.974   3.046   8.178 -0.0767  0.2696  0.0251
  155loPI    C1 2465   0.689  16.041   8.963  0.1803  0.0496 -0.0849
  155loPI    C2 2466   0.726  16.153   9.345  0.4637 -0.1305 -0.0567
  155loPI    C3 2467   0.537  16.391   9.084  0.1385 -0.0728  0.2242
  155loPI   PO4 2468   0.920  15.944   8.958  0.4828 -0.0976 -0.0043
  155loPI   GL1 2469   1.280  16.031   8.510 -0.1169  0.0746  0.1982
  155loPI   GL2 2470   1.102  15.767   8.463  0.4105 -0.1137  0.4772
  155loPI   C1A 2471   1.353  16.077   8.080  0.1180 -0.0078  0.1350
  155loPI   C2A 2472   1.489  15.932   7.728  0.2896 -0.1927 -0.4333
  155loPI   C3A 2473   1.529  15.730   7.401  0.2021  0.1455  0.0453
  155loPI   C4A 2474   1.720  15.618   7.068 -0.2243 -0.0566  0.2331
  155loPI   C5A 2475   1.632  15.613   6.634  0.0028  0.1247 -0.3033
  155loPI   C6A 2476   1.696  15.972   6.327 -0.0502  0.1930  0.1337
  155loPI   C1B 2477   1.081  15.655   8.031  0.0168  0.1569  0.2577
  155loPI   C2B 2478   1.282  15.376   7.714  0.3097  0.2270  0.2511
  155loPI   C3B 2479   1.269  15.208   7.412  0.0990  0.2714  0.1625
  155loPI   C4B 2480   1.041  14.942   7.051 -0.4095  0.2551 -0.0296
  156loPI    C1 2481   2.909  14.753   9.588  0.0176  0.0375 -0.0516
  156loPI    C2 2482   3.204  14.725   9.857  0.1264 -0.0213 -0.1764
  156loPI    C3 2483   2.835  14.826   9.975  0.2304  0.2075 -0.0413
  156loPI   PO4 2484   3.050  14.622   9.366  0.3350  0.1042  0.0655
  156loPI   GL1 2485   3.302  14.790   9.076  0.1018 -0.5166 -0.0625
  156loPI   GL2 2486   3.494  15.012   8.983  0.1990  0.0554 -0.1728
  156loPI   C1A 2487   3.300  14.523   8.763  0.0363 -0.2865  0.0747
  156loPI   C2A 2488   3.204  14.192   8.600  0.1899  0.4272  0.0600
  156loPI   C3A 2489   3.104  13.891   8.215  0.1112 -0.1354 -0.3432
  156loPI   C4A 2490   2.981  13.951   7.859  0.0286 -0.1879  0.1129
  156loPI   C5A 2491   2.898  14.108   7.421  0.1822 -0.0562  0.1226
  156loPI   C6A 2492   2.672  14.380   7.005  0.1494  0.0657  0.0630
  156loPI   C1B 2493   3.525  14.941   8.634 -0.2805  0.2667  0.1113
  156loPI   C2B 2494   3.507  14.745   8.218 -0.1513 -0.1348  0.4003
  156loPI   C3B 2495   3.403  14.284   8.091 -0.1181  0.3057 -0.2961
  156loPI   C4B 2496   3.283  14.328   7.688 -0.0921  0.2313  0.0738
  157loPI    C1 2497  10.084  15.447  10.217  0.2811 -0.2722  0.3430
  157loPI    C2 2498   9.863  15.696  10.439 -0.0995 -0.1586 -0.1459
  157loPI    C3 2499  10.231  15.804  10.324 -0.1112  0.0103 -0.0293
  157loPI   PO4 2500   9.905  15.437  10.005 -0.0130  0.1950  0.0348
  157loPI   GL1 2501   9.641  15.515   9.743  0.1885 -0.2834  0.1218
  157loPI   GL2 2502   9.719  15.288   9.555 -0.1579 -0.1536  0.2086
  157loPI   C1A 2503   9.646  15.692   9.275  0.0934 -0.2283 -0.0423
  157loPI   C2A 2504   9.373  15.864   8.945  0.1281 -0.1529  0.0881
  157loPI   C3A 2505   9.355  15.894   8.466  0.3187  0.0088 -0.2642
  157loPI   C4A 2506   9.180  16.083   8.067 -0.2272 -0.1045 -0.1302
  157loPI   C5A 2507   9.424  16.283   7.738  0.3340 -0.0288  0.1561
  157loPI   C6A 2508   9.834  16.416   7.555 -0.3016 -0.1404  0.2057
  157loPI   C1B 2509   9.785  15.304   9.097  0.0474  0.0216  0.2733
  157loPI   C2B 2510   9.778  15.594   8.712 -0.1798 -0.0062  0.0679
  157loPI   C3B 2511   9.729  15.638   8.267  0.0661  0.0154 -0.1558
  157loPI   C4B 2512   9.468  15.674   7.917  0.0029  0.2717  0.1023
  158loPI    C1 2513   9.126  15.537   9.947 -0.3226 -0.0155  0.0640
  158loPI    C2 2514   9.130  15.615  10.339 -0.0067 -0.0832  0.0766
  158loPI    C3 2515   9.338  15.305  10.194  0.1673  0.1513 -0.1865
  158loPI   PO4 2516   9.078  15.737   9.815  0.1146  0.0643 -0.2234
  158loPI   GL1 2517   9.169  15.845   9.431  0.1495 -0.2264 -0.2441
  158loPI   GL2 2518   8.938  15.752   9.240  0.0207 -0.1709  0.0593
  158loPI   C1A 2519   8.959  16.244   9.115 -0.3595 -0.0025 -0.2637
  158loPI   C2A 2520   9.015  16.414   8.682  0.0087  0.0622  0.0161
  158loPI   C3A 2521   9.035  16.467   8.365  0.0452  0.1637  0.1717
  158loPI   C4A 2522   9.103  16.668   8.012 -0.0134 -0.3215  0.1417
  158loPI   C5A 2523   9.447  16.803   7.732 -0.2403  0.0421 -0.1169
  158loPI   C6A 2524   9.592  16.870   7.277 -0.3027  0.3689 -0.3073
  158loPI   C1B 2525   8.925  15.626   8.797 -0.3626 -0.1209  0.2487
  158loPI   C2B 2526   8.874  16.003   8.477  0.1890 -0.1805  0.0253
  158loPI   C3B 2527   8.550  16.212   8.320  0.3142  0.0362  0.0811
  158loPI   C4B 2528   8.188  16.412   8.066 -0.1359 -0.0226  0.0844
  159loPI    C1 2529   8.860  16.008  10.139 -0.2337  0.0700 -0.0564
  159loPI    C2 2530   8.844  16.388  10.264  0.1614  0.1203 -0.1474
  159loPI    C3 2531   9.026  16.110  10.488 -0.1100 -0.0145 -0.0897
  159loPI   PO4 2532   8.694  15.958  10.076  0.1176  0.4375 -0.8166
  159loPI   GL1 2533   8.562  15.789   9.656 -0.1878 -0.2839  0.0760
  159loPI   GL2 2534   8.633  15.479   9.693 -0.1326 -0.4208  0.2095
  159loPI   C1A 2535   8.499  15.958   9.304  0.0912 -0.0474 -0.0560
  159loPI   C2A 2536   8.422  15.788   8.875  0.0229 -0.0166 -0.2037
  159loPI   C3A 2537   8.276  15.835   8.491 -0.1604 -0.1758  0.2595
  159loPI   C4A 2538   8.339  15.858   8.019 -0.5151 -0.2934 -0.1283
  159loPI   C5A 2539   8.442  15.660   7.583 -0.2030 -0.1753  0.1822
  159loPI   C6A 2540   8.482  15.338   7.273  0.3160 -0.0120  0.2129
  159loPI   C1B 2541   8.565  15.359   9.301  0.0913  0.0657 -0.1880
  159loPI   C2B 2542   8.495  15.266   8.932  0.1973  0.1683  0.1652
  159loPI   C3B 2543   8.537  15.351   8.512 -0.0778  0.0265 -0.1455
  159loPI   C4B 2544   8.648  15.415   8.125  0.2876 -0.0139  0.0326
  160loPI    C1 2545   9.640   1.972   9.909  0.0239  0.1519 -0.0409
  160loPI    C2 2546   9.391   2.220  10.100  0.0825  0.1701  0.0122
  160loPI    C3 2547   9.660   2.008  10.307  0.0256  0.0540 -0.0319
  160loPI   PO4 2548   9.505   1.840   9.788 -0.2515  0.3598 -0.1763
  160loPI   GL1 2549   9.510   1.834   9.466  0.1615 -0.0860  0.2264
  160loPI   GL2 2550   9.456   2.118   9.391 -0.1068 -0.0286  0.0862
  160loPI   C1A 2551   9.472   1.768   8.971 -0.1503  0.0439 -0.0633
  160loPI   C2A 2552   9.402   1.795   8.548 -0.0345 -0.0166 -0.1618
  160loPI   C3A 2553   9.131   1.887   8.157  0.1318  0.0547  0.4512
  160loPI   C4A 2554   8.976   1.776   7.702 -0.2043  0.0011 -0.0997
  160loPI   C5A 2555   8.769   1.593   7.275 -0.0240 -0.2938  0.0309
  160loPI   C6A 2556   8.722   1.504   6.873 -0.3263  0.3887  0.0463
  160loPI   C1B 2557   9.250   2.263   8.967 -0.3237 -0.2648 -0.4146
  160loPI   C2B 2558   9.045   2.212   8.537  0.1909  0.0776  0.1064
  160loPI   C3B 2559   8.692   2.013   8.414 -0.2971  0.0874  0.0622
  160loPI   C4B 2560   8.506   1.709   8.235 -0.0653 -0.0595  0.0788
  161loPI    C1 2561   1.052   8.102  10.294  0.1289  0.2282 -0.1823
  161loPI    C2 2562   0.886   8.460  10.361  0.0130  0.1467 -0.0284
  161loPI    C3 2563   0.671   8.127  10.411  0.2040  0.0423  0.1112
  161loPI   PO4 2564   1.162   8.107  10.030  0.0010 -0.2284 -0.0346
  161loPI   GL1 2565   1.168   7.896   9.602  0.0858 -0.0174 -0.2308
  161loPI   GL2 2566   1.347   7.592   9.605  0.0248  0.2918  0.1634
  161loPI   C1A 2567   1.391   8.074   9.169  0.1006  0.1226  0.0556
  161loPI   C2A 2568   1.630   8.045   8.815  0.1920 -0.0935  0.2546
  161loPI   C3A 2569   2.039   8.276   8.576  0.2993 -0.2016  0.0201
  161loPI   C4A 2570   2.376   8.453   8.771 -0.0540 -0.0091  0.2433
  161loPI   C5A 2571   2.796   8.503   8.835  0.3093  0.0026 -0.1431
  161loPI   C6A 2572   3.231   8.534   8.782  0.1626  0.0045  0.0598
  161loPI   C1B 2573   1.394   7.590   9.156 -0.2927 -0.1555 -0.0459
  161loPI   C2B 2574   1.469   7.507   8.632  0.2150 -0.0869 -0.2426
  161loPI   C3B 2575   1.630   7.347   8.188 -0.0531 -0.2645  0.1409
  161loPI   C4B 2576   1.977   7.226   7.990 -0.0631 -0.2826  0.0620
  162loPI    C1 2577   5.855  11.605  10.152 -0.0776 -0.1957  0.0594
  162loPI    C2 2578   6.253  11.569  10.167 -0.0324  0.1347 -0.2023
  162loPI    C3 2579   6.049  11.682  10.493  0.0995  0.0746 -0.0981
  162loPI   PO4 2580   5.787  11.636   9.877  0.2177  0.3074  0.1241
  162loPI   GL1 2581   5.833  11.506   9.492 -0.1492 -0.0544  0.3633
  162loPI   GL2 2582   5.561  11.407   9.449  0.1403 -0.0530 -0.1392
  162loPI   C1A 2583   5.886  11.613   9.055 -0.1831 -0.2004 -0.1387
  162loPI   C2A 2584   5.934  11.712   8.653 -0.4086 -0.2181 -0.3611
  162loPI   C3A 2585   5.843  11.712   8.192  0.0143 -0.1894  0.6927
  162loPI   C4A 2586   5.889  11.779   7.808  0.0552 -0.0455  0.0535
  162loPI   C5A 2587   5.683  11.807   7.429 -0.2427  0.0625  0.3286
  162loPI   C6A 2588   5.448  11.551   7.239 -0.0030 -0.0665 -0.1126
  162loPI   C1B 2589   5.373  11.478   8.943 -0.0220  0.0805  0.2377
  162loPI   C2B 2590   5.387  11.491   8.566 -0.4240  0.0958 -0.1260
  162loPI   C3B 2591   5.562  11.246   8.120  0.1343  0.2207  0.1950
  162loPI   C4B 2592   5.570  11.373   7.701 -0.2686 -0.0373 -0.1637
  163loPI    C1 2593   0.782   0.681  10.317  0.1486 -0.1150  0.1497
  163loPI    C2 2594   0.608   1.024  10.427 -0.2185 -0.3234  0.2350
  163loPI    C3 2595   0.921   0.884  10.633  0.0041  0.0116  0.1331
  163loPI   PO4 2596   0.874   0.668  10.029 -0.0616  0.2432 -0.2395
  163loPI   GL1 2597   1.078   0.608   9.599  0.1682  0.0762 -0.2346
  163loPI   GL2 2598   1.152   1.001   9.615 -0.4520 -0.1763  0.3217
  163loPI   C1A 2599   1.272   0.825   9.165 -0.2387 -0.0908 -0.0451
  163loPI   C2A 2600   1.401   0.854   8.764  0.5387 -0.1260 -0.2196
  163loPI   C3A 2601   1.512   1.012   8.400  0.3778 -0.3811  0.1256
  163loPI   C4A 2602   1.293   0.982   8.043  0.3171  0.1054 -0.0544
  163loPI   C5A 2603   1.561   0.901   7.602  0.3009 -0.5264  0.2336
  163loPI   C6A 2604   1.732   0.485   7.463  0.1373 -0.5537  0.1555
  163loPI   C1B 2605   0.766   1.030   9.392 -0.0603 -0.3473  0.1823
  163loPI   C2B 2606   0.598   1.096   9.042  0.0658 -0.0469  0.2044
  163loPI   C3B 2607   0.496   1.207   8.616 -0.2311 -0.2686 -0.0742
  163loPI   C4B 2608   0.424   1.414   8.175  0.1162  0.1128  0.4666
  164loPI    C1 2609  12.896  17.296  10.240 -0.0558  0.0177  0.1023
  164loPI    C2 2610  12.737  16.984  10.432 -0.1805  0.0476  0.0484
  164loPI    C3 2611  12.835  17.314  10.635 -0.3974  0.1135  0.0487
  164loPI   PO4 2612  13.092  17.210  10.118 -0.0871  0.0776 -0.0085
  164loPI   GL1 2613  13.020  17.007   9.754 -0.1167 -0.1667  0.2600
  164loPI   GL2 2614  12.735  16.900   9.799 -0.0581 -0.2099  0.1919
  164loPI   C1A 2615  13.164  16.894   9.358 -0.1678 -0.4837 -0.0833
  164loPI   C2A 2616  12.999  16.688   9.017 -0.0750 -0.1147 -0.0921
  164loPI   C3A 2617  12.752  16.453   8.684 -0.0586  0.1588 -0.0119
  164loPI   C4A 2618  12.621  16.622   8.230 -0.0892 -0.0448  0.0160
  164loPI   C5A 2619  12.550  16.766   7.791 -0.1979 -0.0308  0.2270
  164loPI   C6A 2620  12.858  16.916   7.545  0.0591  0.0292  0.0894
  164loPI   C1B 2621  12.645  17.042   9.399 -0.2949  0.0207 -0.0734
  164loPI   C2B 2622  12.568  16.891   9.033  0.2701  0.1348 -0.2943
  164loPI   C3B 2623  12.305  16.687   8.742  0.2478 -0.1327 -0.0631
  164loPI   C4B 2624  12.162  16.408   8.431 -0.0515  0.1315 -0.0950
  165loPI    C1 2625  14.790   5.147   9.920  0.0108  0.1564 -0.2831
  165loPI    C2 2626  14.830   5.448  10.180  0.0007  0.0172 -0.1186
  165loPI    C3 2627  15.154   5.290  10.005  0.0664 -0.2682  0.2479
  165loPI   PO4 2628  14.698   5.207   9.687 -0.3208  0.3867 -0.0447
  165loPI   GL1 2629  14.492   5.092   9.275  0.0207 -0.2610  0.0733
  165loPI   GL2 2630  14.273   5.131   9.091 -0.0861 -0.2473 -0.1343
  165loPI   C1A 2631  14.661   4.886   8.875 -0.1664 -0.1737  0.0636
  165loPI   C2A 2632  14.486   4.807   8.602 -0.0661 -0.4061  0.3805
  165loPI   C3A 2633  14.608   4.615   8.262 -0.0167  0.0787  0.1851
  165loPI   C4A 2634  14.671   4.534   7.863  0.0561 -0.2087 -0.1162
  165loPI   C5A 2635  14.772   4.604   7.390  0.1316 -0.2319  0.2251
  165loPI   C6A 2636  14.968   4.916   7.232 -0.1130  0.1194  0.2111
  165loPI   C1B 2637  14.271   5.217   8.669 -0.0754  0.0410 -0.0340
  165loPI   C2B 2638  14.310   5.200   8.299  0.1705  0.3219  0.2749
  165loPI   C3B 2639  14.372   5.028   7.912 -0.4979 -0.0810  0.0065
  165loPI   C4B 2640  14.474   5.002   7.434  0.1166  0.2570 -0.1078
  166loPI    C1 2641  14.520   8.428  10.176 -0.2190  0.1134  0.2572
  166loPI    C2 2642  14.816   8.689  10.244 -0.0071  0.0113 -0.2355
  166loPI    C3 2643  14.864   8.303  10.339 -0.0853  0.0407 -0.0733
  166loPI   PO4 2644  14.461   8.399   9.881 -0.4691 -0.2275  0.2050
  166loPI   GL1 2645  14.733   8.382   9.559  0.1052  0.2215  0.0826
  166loPI   GL2 2646  14.819   8.642   9.397  0.0215  0.0798  0.0873
  166loPI   C1A 2647  14.574   8.278   9.106  0.0816 -0.1615  0.3040
  166loPI   C2A 2648  14.785   8.334   8.760 -0.1292 -0.0483 -0.1133
  166loPI   C3A 2649  14.723   8.504   8.364 -0.0650 -0.3417  0.0453
  166loPI   C4A 2650  14.738   8.483   7.987  0.0615 -0.0516  0.0290
  166loPI   C5A 2651  14.789   8.551   7.570 -0.1817 -0.0966 -0.1643
  166loPI   C6A 2652  14.563   8.376   7.149  0.0748  0.2289 -0.1164
  166loPI   C1B 2653  14.648   8.801   8.889 -0.2974 -0.1220  0.2842
  166loPI   C2B 2654  14.450   8.902   8.476  0.4292 -0.2150 -0.1029
  166loPI   C3B 2655  14.311   8.963   8.037 -0.1796 -0.1762  0.0209
  166loPI   C4B 2656  14.561   9.218   7.750 -0.2030 -0.1002 -0.1243
  167loPI    C1 2657   8.773  17.587  10.245 -0.1651  0.2929  0.1667
  167loPI    C2 2658   8.561  17.311  10.443 -0.0365  0.0735  0.0036
  167loPI    C3 2659   8.954  17.349  10.512  0.0265 -0.0634 -0.2669
  167loPI   PO4 2660   8.683  17.526   9.965  0.1929  0.0330  0.2127
  167loPI   GL1 2661   8.464  17.491   9.671  0.1390 -0.4008 -0.3457
  167loPI   GL2 2662   8.372  17.803   9.588 -0.0363  0.1361 -0.1181
  167loPI   C1A 2663   8.522  17.372   9.351  0.0495  0.0393  0.0863
  167loPI   C2A 2664   8.391  17.477   8.941 -0.1498 -0.0783 -0.1632
  167loPI   C3A 2665   8.639  17.432   8.447  0.1534 -0.2021  0.2447
  167loPI   C4A 2666   8.683  17.414   8.032  0.1551 -0.1095 -0.0223
  167loPI   C5A 2667   8.944  17.146   7.860  0.5901  0.1457  0.0898
  167loPI   C6A 2668   9.073  16.978   7.475  0.0835 -0.2684 -0.0638
  167loPI   C1B 2669   8.624  17.832   9.179  0.1040 -0.1154  0.2719
  167loPI   C2B 2670   8.704  17.834   8.743 -0.0681 -0.0630 -0.1172
  167loPI   C3B 2671   8.759  17.951   8.288  0.0923  0.2176 -0.2057
  167loPI   C4B 2672   8.866  18.047   7.868 -0.3275  0.1467  0.2121
  168loPI    C1 2673  16.240  11.606   9.637  0.0810  0.2641 -0.0448
  168loPI    C2 2674  16.450  11.408   9.914 -0.0499  0.3656  0.1289
  168loPI    C3 2675  16.602  11.462   9.548 -0.0210 -0.0741  0.0711
  168loPI   PO4 2676  16.081  11.551   9.524  0.2211  0.0253 -0.3020
  168loPI   GL1 2677  16.349  11.177   9.257 -0.1003 -0.1248  0.0662
  168loPI   GL2 2678  16.272  11.415   9.023 -0.0163 -0.0638  0.2069
  168loPI   C1A 2679  16.624  11.065   8.916 -0.1480 -0.0793  0.1447
  168loPI   C2A 2680  16.748  11.003   8.440 -0.1183  0.4399  0.2311
  168loPI   C3A 2681  16.754  10.681   8.082 -0.2987  0.2193  0.1157
  168loPI   C4A 2682  16.689  10.837   7.647  0.2677  0.2380  0.0071
  168loPI   C5A 2683  16.818  10.811   7.316 -0.2255 -0.2294 -0.1624
  168loPI   C6A 2684  17.113  10.743   7.106  0.2812 -0.1865 -0.0535
  168loPI   C1B 2685  16.337  11.410   8.584  0.0274  0.1591  0.1601
  168loPI   C2B 2686  16.363  11.273   8.176 -0.2533  0.1022  0.2435
  168loPI   C3B 2687  16.277  11.201   7.796 -0.2847  0.3246 -0.0460
  168loPI   C4B 2688  16.342  11.018   7.345  0.1053 -0.1434  0.1280
  169loPI    C1 2689  14.746  16.875  10.055  0.0107 -0.1018  0.0812
  169loPI    C2 2690  14.792  17.110  10.375 -0.1702 -0.3259  0.2754
  169loPI    C3 2691  15.016  16.781  10.335  0.0458 -0.1529  0.0304
  169loPI   PO4 2692  14.571  16.998   9.908 -0.2715 -0.0670 -0.1130
  169loPI   GL1 2693  14.501  17.159   9.486 -0.0219  0.0079 -0.2667
  169loPI   GL2 2694  14.746  16.835   9.469 -0.1182  0.0981  0.1023
  169loPI   C1A 2695  14.445  17.300   9.151 -0.1406 -0.1049 -0.0276
  169loPI   C2A 2696  14.333  17.371   8.646  0.1847 -0.2308  0.0502
  169loPI   C3A 2697  14.266  17.365   8.163  0.0487  0.0388 -0.3925
  169loPI   C4A 2698  14.159  17.161   7.769  0.1430  0.1657 -0.2929
  169loPI   C5A 2699  13.775  16.839   7.709 -0.0613  0.0578  0.1824
  169loPI   C6A 2700  13.501  17.043   7.458 -0.2556  0.0001 -0.0957
  169loPI   C1B 2701  14.617  16.858   9.067 -0.1475 -0.2094 -0.1497
  169loPI   C2B 2702  14.526  16.883   8.574  0.0113 -0.2877  0.0554
  169loPI   C3B 2703  14.639  16.879   8.155 -0.2702 -0.3897 -0.0928
  169loPI   C4B 2704  14.661  16.827   7.825 -0.5128  0.1251 -0.0600
  170loPI    C1 2705   7.679  17.454  10.174  0.0039 -0.0134  0.1689
  170loPI    C2 2706   7.335  17.308  10.317 -0.1105  0.0776 -0.0093
  170loPI    C3 2707   7.454  17.676  10.420 -0.1942  0.1442 -0.1466
  170loPI   PO4 2708   7.753  17.406   9.826  0.0118 -0.2526  0.0746
  170loPI   GL1 2709   7.975  17.247   9.444  0.0612 -0.0675 -0.0377
  170loPI   GL2 2710   7.972  17.522   9.365 -0.0087  0.5092 -0.1568
  170loPI   C1A 2711   8.085  17.124   9.017  0.2986  0.1550 -0.2900
  170loPI   C2A 2712   8.347  16.960   8.870  0.0653 -0.3453  0.4438
  170loPI   C3A 2713   8.723  16.997   8.661 -0.1190 -0.4070  0.1022
  170loPI   C4A 2714   8.960  17.068   8.367 -0.2577 -0.1516  0.1176
  170loPI   C5A 2715   9.308  17.112   8.182 -0.1008  0.6392 -0.0057
  170loPI   C6A 2716   9.782  17.096   8.176 -0.3755 -0.0027 -0.1368
  170loPI   C1B 2717   7.749  17.551   8.907 -0.0572 -0.1154 -0.0699
  170loPI   C2B 2718   7.590  17.495   8.539 -0.1771 -0.1241 -0.3273
  170loPI   C3B 2719   7.546  17.554   8.046 -0.0277 -0.1507  0.0148
  170loPI   C4B 2720   7.688  17.505   7.654 -0.1929  0.1017  0.0929
  171loPI    C1 2721  17.412  17.746   9.662 -0.0585  0.2220 -0.1227
  171loPI    C2 2722  17.092  17.815   9.892 -0.0792 -0.1053 -0.0470
  171loPI    C3 2723  17.459  17.818  10.053 -0.0651  0.0006 -0.0798
  171loPI   PO4 2724  17.375  17.831   9.489  0.1272 -0.0405 -0.2255
  171loPI   GL1 2725  17.155  17.763   9.038  0.1799  0.4027 -0.0625
  171loPI   GL2 2726  16.967  18.025   9.243 -0.0444  0.3397  0.0352
  171loPI   C1A 2727  16.935  17.880   8.720  0.4007  0.0470  0.2519
  171loPI   C2A 2728  16.846  18.163   8.363  0.2278 -0.2524  0.0121
  171loPI   C3A 2729  16.973  18.085   8.003 -0.0376  0.0085  0.0318
  171loPI   C4A 2730  17.208  17.955   7.571  0.1105 -0.1599 -0.0846
  171loPI   C5A 2731  17.208  17.788   7.192  0.0590 -0.1078 -0.0574
  171loPI   C6A 2732  17.222  17.788   6.780 -0.0756  0.3415 -0.0943
  171loPI   C1B 2733  16.972  18.306   8.854  0.1734 -0.1591  0.0280
  171loPI   C2B 2734  17.166  18.528   8.586 -0.2141 -0.1486  0.0556
  171loPI   C3B 2735  17.038  18.627   8.176  0.0263 -0.3423 -0.1014
  171loPI   C4B 2736  17.185  18.906   7.804 -0.3466  0.3149  0.1603
  172loPI    C1 2737   6.615   5.427  10.109 -0.1215  0.0619  0.0995
  172loPI    C2 2738   6.508   5.473  10.492 -0.1152  0.2329  0.0814
  172loPI    C3 2739   6.591   5.793  10.267  0.2600  0.1146  0.0447
  172loPI   PO4 2740   6.500   5.268   9.863  0.2445 -0.3193  0.0416
  172loPI   GL1 2741   6.547   5.359   9.465 -0.0739 -0.0197 -0.1353
  172loPI   GL2 2742   6.935   5.485   9.372  0.0409  0.1630 -0.0173
  172loPI   C1A 2743   6.309   5.215   9.130  0.2660  0.0993  0.0173
  172loPI   C2A 2744   6.298   5.095   8.680 -0.0496 -0.2778 -0.0954
  172loPI   C3A 2745   6.213   5.251   8.364 -0.3053  0.2867  0.0936
  172loPI   C4A 2746   6.285   5.460   8.035  0.2169 -0.0491 -0.1680
  172loPI   C5A 2747   6.120   5.711   7.720  0.0875 -0.0824  0.0173
  172loPI   C6A 2748   5.759   6.024   7.600  0.0659  0.3000 -0.1648
  172loPI   C1B 2749   6.705   5.597   9.015  0.0838 -0.0232 -0.0511
  172loPI   C2B 2750   6.384   5.564   8.718  0.0503 -0.0072  0.3558
  172loPI   C3B 2751   5.921   5.582   8.666  0.0288 -0.2014 -0.2403
  172loPI   C4B 2752   5.916   5.716   8.258 -0.4916 -0.2639 -0.2110
  173loPI    C1 2753  16.894  18.760   9.830 -0.1336  0.0684 -0.1728
  173loPI    C2 2754  16.697  18.723  10.176  0.0446 -0.2301 -0.0998
  173loPI    C3 2755  16.749  19.084  10.013 -0.3685 -0.1248 -0.0092
  173loPI   PO4 2756  16.763  18.457   9.689  0.0160 -0.2600 -0.0713
  173loPI   GL1 2757  16.543  18.422   9.343  0.1616  0.0952 -0.0512
  173loPI   GL2 2758  16.234  18.488   9.267  0.1321 -0.1499  0.0977
  173loPI   C1A 2759  16.483  18.177   8.870  0.1059  0.0255 -0.0461
  173loPI   C2A 2760  16.380  18.236   8.494  0.0944 -0.2230 -0.1540
  173loPI   C3A 2761  16.146  18.248   8.123 -0.2466 -0.1158 -0.1310
  173loPI   C4A 2762  16.036  18.162   7.793 -0.0974 -0.4506  0.1944
  173loPI   C5A 2763  16.273  18.268   7.341 -0.0114 -0.0672  0.1465
  173loPI   C6A 2764  16.454  18.583   7.291 -0.3052  0.1067 -0.2755
  173loPI   C1B 2765  16.249  18.606   8.799  0.1325 -0.1818  0.2524
  173loPI   C2B 2766  16.149  18.687   8.345 -0.4096  0.0046  0.1040
  173loPI   C3B 2767  16.047  18.728   7.829  0.1942  0.1003  0.2666
  173loPI   C4B 2768  16.171  18.943   7.503 -0.1370 -0.1235  0.0647
  174loPI    C1 2769   2.203   9.768   9.829 -0.0379 -0.0805  0.0195
  174loPI    C2 2770   2.489  10.047   9.849  0.1660 -0.2960  0.1802
  174loPI    C3 2771   2.205  10.031  10.131 -0.0042 -0.0861  0.0241
  174loPI   PO4 2772   2.083   9.688   9.516  0.0928  0.1403  0.0255
  174loPI   GL1 2773   1.645   9.722   9.412  0.0642 -0.0016  0.0517
  174loPI   GL2 2774   1.750   9.956   9.210  0.3084  0.2959 -0.3195
  174loPI   C1A 2775   1.730   9.494   9.011 -0.2843  0.1188 -0.0472
  174loPI   C2A 2776   1.763   9.449   8.550 -0.0573 -0.1380 -0.1807
  174loPI   C3A 2777   2.018   9.168   8.304  0.2367 -0.0427 -0.0869
  174loPI   C4A 2778   2.151   8.976   7.926  0.2744  0.2749 -0.2510
  174loPI   C5A 2779   2.119   8.739   7.670 -0.2359 -0.0249 -0.0722
  174loPI   C6A 2780   2.449   8.524   7.471 -0.0740 -0.1554 -0.0077
  174loPI   C1B 2781   1.951   9.935   8.895 -0.1968  0.1187  0.0235
  174loPI   C2B 2782   1.945   9.935   8.546 -0.1889 -0.1579 -0.1780
  174loPI   C3B 2783   1.878   9.728   8.131  0.0716 -0.3050  0.1350
  174loPI   C4B 2784   1.995   9.480   7.891 -0.1498 -0.0759 -0.5026
  175loPI    C1 2785  17.335   1.968   9.625  0.0310 -0.2132  0.0456
  175loPI    C2 2786  16.992   2.160   9.552  0.2098  0.0601 -0.0965
  175loPI    C3 2787  17.122   2.119   9.928  0.0795  0.0559 -0.0515
  175loPI   PO4 2788  17.415   2.037   9.353 -0.1028  0.1120  0.2741
  175loPI   GL1 2789  17.201   2.366   9.149 -0.3430 -0.1559 -0.1635
  175loPI   GL2 2790  17.636   2.406   9.065 -0.0344  0.4199  0.0960
  175loPI   C1A 2791  17.133   2.148   8.787  0.2683 -0.2205  0.1704
  175loPI   C2A 2792  17.164   2.192   8.428 -0.1458 -0.0593  0.1481
  175loPI   C3A 2793  17.118   2.307   7.981  0.0643  0.0768 -0.0823
  175loPI   C4A 2794  17.261   2.534   7.620 -0.3334  0.1831  0.1447
  175loPI   C5A 2795  17.428   2.461   7.343 -0.0765  0.2944  0.1605
  175loPI   C6A 2796  17.858   2.193   7.342  0.0096  0.0389 -0.2382
  175loPI   C1B 2797  17.645   2.397   8.604  0.1170 -0.0208 -0.5405
  175loPI   C2B 2798  17.611   2.488   8.170  0.0419  0.0444  0.0946
  175loPI   C3B 2799  17.681   2.690   7.712  0.0282 -0.1917 -0.2123
  175loPI   C4B 2800  17.644   3.032   7.522  0.1782  0.0318 -0.0833
  176loPI    C1 2801   0.130  16.628   9.389  0.1447  0.0048 -0.2903
  176loPI    C2 2802   0.341  16.460   9.684  0.0402  0.1217 -0.1466
  176loPI    C3 2803  -0.020  16.316   9.589  0.0682  0.0921 -0.2094
  176loPI   PO4 2804   0.261  16.786   9.227 -0.0356 -0.3311  0.2139
  176loPI   GL1 2805   0.441  17.130   8.819  0.2767 -0.0317  0.2679
  176loPI   GL2 2806   0.705  17.117   8.540 -0.1842 -0.0409 -0.1813
  176loPI   C1A 2807   0.255  17.016   8.365  0.2097  0.1836  0.2168
  176loPI   C2A 2808   0.276  16.926   8.029 -0.0157 -0.3338  0.0170
  176loPI   C3A 2809   0.482  16.689   7.796  0.0376  0.0724  0.1132
  176loPI   C4A 2810   0.393  16.384   7.445  0.1852 -0.0293 -0.2157
  176loPI   C5A 2811   0.476  15.951   7.184 -0.1352  0.2010 -0.2195
  176loPI   C6A 2812   0.676  15.592   7.055 -0.1470  0.2229 -0.0519
  176loPI   C1B 2813   0.741  17.193   8.181  0.2949 -0.2208 -0.0754
  176loPI   C2B 2814   0.683  17.174   7.799  0.1019  0.0559  0.3013
  176loPI   C3B 2815   0.700  17.342   7.392  0.1252  0.2074 -0.2452
  176loPI   C4B 2816   0.582  17.571   6.932  0.1454 -0.0350  0.0964
  177loPI    C1 2817  15.194  15.237  10.075 -0.1450 -0.1948 -0.2977
  177loPI    C2 2818  14.823  15.381  10.041 -0.1208 -0.0505  0.0123
  177loPI    C3 2819  14.884  15.023  10.208 -0.1206 -0.0807 -0.0519
  177loPI   PO4 2820  15.313  15.262   9.848  0.0232  0.1405  0.1619
  177loPI   GL1 2821  15.370  15.301   9.484  0.4773 -0.0356 -0.1199
  177loPI   GL2 2822  15.590  15.401   9.225  0.0009 -0.0033 -0.0489
  177loPI   C1A 2823  15.098  15.456   9.084  0.0352 -0.0749  0.0822
  177loPI   C2A 2824  14.985  15.392   8.737 -0.0728 -0.1414 -0.0561
  177loPI   C3A 2825  14.945  15.436   8.414  0.0832 -0.2135  0.3975
  177loPI   C4A 2826  15.038  15.293   8.094 -0.0584 -0.1380 -0.0236
  177loPI   C5A 2827  15.046  15.525   7.735  0.0074  0.1804 -0.1695
  177loPI   C6A 2828  15.309  15.722   7.468 -0.4186  0.4261 -0.0999
  177loPI   C1B 2829  15.565  15.287   8.770  0.1519 -0.1449  0.3444
  177loPI   C2B 2830  15.479  15.287   8.333 -0.0747  0.1703  0.1258
  177loPI   C3B 2831  15.552  15.455   7.908  0.1380 -0.1811  0.1467
  177loPI   C4B 2832  15.549  15.309   7.466 -0.0519 -0.0325  0.0417
  178loPI    C1 2833   3.577   0.167  10.596  0.1038 -0.2503  0.1215
  178loPI    C2 2834   3.733   0.524  10.689 -0.0567 -0.0863 -0.2193
  178loPI    C3 2835   3.386   0.409  10.851  0.1591 -0.2352  0.1486
  178loPI   PO4 2836   3.755   0.171  10.282  0.1700  0.2953 -0.0323
  178loPI   GL1 2837   3.888   0.026   9.808 -0.1072 -0.2193  0.1474
  178loPI   GL2 2838   3.823  -0.266   9.668  0.1415 -0.1800  0.0051
  178loPI   C1A 2839   3.724   0.074   9.361  0.2389 -0.0245 -0.0018
  178loPI   C2A 2840   4.022  -0.055   9.049  0.1991  0.0534 -0.2821
  178loPI   C3A 2841   4.157   0.195   8.729 -0.1885 -0.0914  0.0580
  178loPI   C4A 2842   4.133   0.331   8.409  0.1303 -0.2543  0.2857
  178loPI   C5A 2843   4.322   0.701   8.154 -0.0500  0.1096 -0.0053
  178loPI   C6A 2844   4.325   0.916   7.765 -0.0935  0.0186  0.2190
  178loPI   C1B 2845   3.934  -0.520   9.213 -0.4157  0.0091  0.1400
  178loPI   C2B 2846   3.837  -0.451   8.740  0.1274  0.1890 -0.0571
  178loPI   C3B 2847   3.898  -0.172   8.324 -0.1003  0.1242 -0.0765
  178loPI   C4B 2848   3.971   0.161   7.985 -0.2127 -0.0717  0.0030
  179loPI    C1 2849   9.625   6.109   9.837  0.0628 -0.1079  0.0943
  179loPI    C2 2850   9.586   5.868  10.154 -0.1173 -0.0577  0.1107
  179loPI    C3 2851   9.721   6.242  10.202  0.1568 -0.1519  0.0859
  179loPI   PO4 2852   9.689   5.931   9.675  0.0257 -0.1647  0.0703
  179loPI   GL1 2853   9.818   5.914   9.243  0.1837 -0.0375  0.0687
  179loPI   GL2 2854   9.535   5.903   9.058  0.2866 -0.1048 -0.4816
  179loPI   C1A 2855  10.063   5.885   8.816  0.0760  0.1742  0.1203
  179loPI   C2A 2856   9.854   5.688   8.743 -0.1569  0.1066  0.0805
  179loPI   C3A 2857   9.649   5.516   8.465 -0.2477 -0.0697 -0.0213
  179loPI   C4A 2858   9.741   5.374   8.080  0.1913  0.0625  0.0477
  179loPI   C5A 2859   9.585   5.219   7.928  0.4728 -0.1318  0.1050
  179loPI   C6A 2860   9.555   5.140   7.542  0.2882  0.1005 -0.0802
  179loPI   C1B 2861   9.398   6.020   8.651 -0.2905  0.0061  0.0542
  179loPI   C2B 2862   9.148   6.086   8.300 -0.2024 -0.0526 -0.0956
  179loPI   C3B 2863   8.901   6.096   7.843  0.2368  0.0703  0.0783
  179loPI   C4B 2864   8.796   6.542   7.716  0.2212  0.0029  0.1555
  180loPI    C1 2865  15.993   4.353   9.792  0.0926  0.0315 -0.2915
  180loPI    C2 2866  16.118   4.624  10.058 -0.0904 -0.0666 -0.1030
  180loPI    C3 2867  16.161   4.233  10.135 -0.2133 -0.0962 -0.1830
  180loPI   PO4 2868  16.017   4.385   9.539  0.1035 -0.0234  0.0751
  180loPI   GL1 2869  15.919   4.616   9.202 -0.0721 -0.2799  0.1458
  180loPI   GL2 2870  16.289   4.654   9.246 -0.4007  0.1140 -0.1590
  180loPI   C1A 2871  15.903   4.598   8.739  0.2668  0.0287 -0.2277
  180loPI   C2A 2872  16.091   4.582   8.222  0.0806 -0.0351  0.0904
  180loPI   C3A 2873  16.124   4.613   7.791  0.3149  0.0724 -0.0701
  180loPI   C4A 2874  16.355   4.707   7.284 -0.0501  0.2591  0.0375
  180loPI   C5A 2875  16.472   4.789   6.797  0.0713  0.0765  0.0137
  180loPI   C6A 2876  16.245   5.124   6.540  0.1332 -0.0245 -0.2356
  180loPI   C1B 2877  16.365   4.806   8.803 -0.1224  0.1741 -0.1551
  180loPI   C2B 2878  16.506   4.850   8.342 -0.1439 -0.0051 -0.2531
  180loPI   C3B 2879  16.451   5.059   7.865 -0.0198  0.4366  0.4523
  180loPI   C4B 2880  16.190   5.248   7.516 -0.4033 -0.1792 -0.1499
  181loPI    C1 2881   1.675   2.325  10.278  0.0028  0.4265 -0.1025
  181loPI    C2 2882   1.514   2.260  10.639  0.1057 -0.0174 -0.1299
  181loPI    C3 2883   1.791   2.546  10.591  0.1218  0.0171  0.1510
  181loPI   PO4 2884   1.406   2.284  10.099  0.0608  0.0604  0.0361
  181loPI   GL1 2885   1.385   2.146   9.752 -0.1426 -0.0199  0.1271
  181loPI   GL2 2886   1.039   1.952   9.701 -0.0569 -0.3591  0.3289
  181loPI   C1A 2887   1.197   2.363   9.412 -0.0252  0.0993 -0.1937
  181loPI   C2A 2888   0.983   2.323   9.026 -0.1746  0.1827  0.3468
  181loPI   C3A 2889   0.980   1.938   9.042  0.5301 -0.1858  0.4834
  181loPI   C4A 2890   1.245   1.648   8.839  0.1295  0.1289 -0.1233
  181loPI   C5A 2891   1.343   1.495   8.499  0.0806 -0.0673  0.3492
  181loPI   C6A 2892   1.506   1.485   8.098  0.2975 -0.2695 -0.3549
  181loPI   C1B 2893   1.349   1.887   9.323  0.2531  0.0750 -0.0836
  181loPI   C2B 2894   1.682   1.771   9.075 -0.2259  0.1710 -0.0304
  181loPI   C3B 2895   1.682   1.798   8.666 -0.3517  0.2702  0.0863
  181loPI   C4B 2896   1.628   2.018   8.177 -0.3493 -0.3194 -0.1741
  182loPI    C1 2897   0.550  14.667   9.945 -0.2359 -0.1173  0.3972
  182loPI    C2 2898   0.234  14.909   9.978  0.0425  0.2867  0.1892
  182loPI    C3 2899   0.477  14.853  10.291 -0.0748  0.1988  0.2654
  182loPI   PO4 2900   0.541  14.737   9.647 -0.2100  0.1261 -0.0024
  182loPI   GL1 2901   0.601  14.624   9.225 -0.1084  0.2177 -0.1345
  182loPI   GL2 2902   0.449  14.481   9.105  0.0503 -0.1666  0.1073
  182loPI   C1A 2903   0.870  14.581   8.899 -0.0299  0.0395  0.0639
  182loPI   C2A 2904   0.928  14.663   8.469  0.3809 -0.0080 -0.5087
  182loPI   C3A 2905   0.701  14.617   8.000  0.3584 -0.0254 -0.2088
  182loPI   C4A 2906   0.346  14.621   7.643 -0.2079 -0.0202  0.0621
  182loPI   C5A 2907   0.158  14.559   7.188 -0.1745  0.2820 -0.0480
  182loPI   C6A 2908   0.237  14.126   6.854 -0.0795 -0.0731 -0.1365
  182loPI   C1B 2909   0.728  14.131   9.000  0.0238 -0.2032  0.2597
  182loPI   C2B 2910   0.845  14.134   8.574 -0.1020  0.0713  0.1449
  182loPI   C3B 2911   0.780  14.198   8.126  0.3222 -0.1167 -0.1941
  182loPI   C4B 2912   0.672  14.163   7.661 -0.3169 -0.0050  0.1007
  183loPI    C1 2913   1.889  18.162   9.958 -0.0701  0.0207 -0.0031
  183loPI    C2 2914   2.002  18.337  10.300 -0.1729  0.1576 -0.0380
  183loPI    C3 2915   1.775  18.008  10.309  0.0168  0.0270  0.0280
  183loPI   PO4 2916   1.752  18.419   9.863 -0.4134  0.0571  0.1118
  183loPI   GL1 2917   1.616  18.578   9.498 -0.2157  0.1966 -0.1571
  183loPI   GL2 2918   1.531  18.602   9.251  0.0911 -0.4912 -0.2244
  183loPI   C1A 2919   1.998  18.727   9.149 -0.3424 -0.1192 -0.0178
  183loPI   C2A 2920   2.183  18.929   8.881 -0.0189 -0.1074  0.5123
  183loPI   C3A 2921   2.060  19.090   8.503  0.1516  0.0458  0.1533
  183loPI   C4A 2922   2.068  19.348   8.174  0.0447 -0.5336  0.1460
  183loPI   C5A 2923   2.317  19.516   7.748 -0.0790  0.1188  0.0795
  183loPI   C6A 2924   2.191  19.526   7.433 -0.1360  0.3057  0.2528
  183loPI   C1B 2925   1.630  18.517   8.873 -0.0613  0.2000  0.2314
  183loPI   C2B 2926   1.838  18.643   8.502  0.0440 -0.3741 -0.1801
  183loPI   C3B 2927   1.943  18.822   8.100 -0.1052 -0.2983 -0.0006
  183loPI   C4B 2928   2.048  19.113   7.691  0.2344  0.0440 -0.0830
  184loPI    C1 2929   2.938   0.552  10.211 -0.0842  0.1681 -0.1294
  184loPI    C2 2930   2.719   0.218  10.232 -0.0970  0.1872  0.0534
  184loPI    C3 2931   3.048   0.256  10.456  0.2177  0.0707 -0.3764
  184loPI   PO4 2932   2.993   0.636  10.005  0.1019  0.0017  0.3653
  184loPI   GL1 2933   2.737   0.768   9.762  0.0410 -0.3182 -0.0302
  184loPI   GL2 2934   2.644   1.027   9.540  0.0572 -0.0465 -0.0194
  184loPI   C1A 2935   2.468   0.531   9.490  0.4774  0.2136 -0.1512
  184loPI   C2A 2936   2.612   0.293   9.251  0.1729 -0.3496 -0.3759
  184loPI   C3A 2937   2.487   0.236   8.798 -0.1318 -0.0883 -0.1415
  184loPI   C4A 2938   2.509   0.206   8.384 -0.1611 -0.4555  0.3000
  184loPI   C5A 2939   2.500   0.008   7.964  0.2363 -0.0958  0.5751
  184loPI   C6A 2940   2.599   0.138   7.471 -0.1537  0.1492 -0.0413
  184loPI   C1B 2941   2.807   1.453   9.319 -0.0789  0.5359  0.1371
  184loPI   C2B 2942   2.667   1.644   8.893  0.2039 -0.0899  0.1653
  184loPI   C3B 2943   2.591   1.961   8.635 -0.1848 -0.4415 -0.3200
  184loPI   C4B 2944   2.530   2.263   8.357  0.2494 -0.0378 -0.4141
  185loPI    C1 2945   7.755  16.178  10.123  0.1092  0.0455 -0.0803
  185loPI    C2 2946   7.849  15.796  10.198  0.1593  0.0376 -0.1831
  185loPI    C3 2947   8.013  16.089  10.415  0.0332 -0.0055 -0.0285
  185loPI   PO4 2948   7.540  16.079   9.957  0.1342  0.1044  0.0967
  185loPI   GL1 2949   7.254  16.236   9.659 -0.3119  0.0244  0.2440
  185loPI   GL2 2950   6.896  16.371   9.549  0.0881  0.3606 -0.1662
  185loPI   C1A 2951   7.580  16.174   9.264  0.0252  0.3932  0.1407
  185loPI   C2A 2952   7.839  16.028   8.968 -0.0729 -0.0927  0.0080
  185loPI   C3A 2953   7.874  16.117   8.602  0.1423 -0.0325  0.1384
  185loPI   C4A 2954   7.753  16.422   8.206 -0.1086 -0.1439 -0.0058
  185loPI   C5A 2955   7.760  16.684   7.839 -0.1808 -0.4663  0.0097
  185loPI   C6A 2956   7.941  17.050   7.639 -0.2251 -0.0757 -0.0245
  185loPI   C1B 2957   7.099  16.381   9.172 -0.1967 -0.0792 -0.4464
  185loPI   C2B 2958   7.089  16.446   8.726 -0.0376  0.4906  0.0872
  185loPI   C3B 2959   7.311  16.289   8.337  0.0244 -0.2180 -0.0120
  185loPI   C4B 2960   7.412  16.285   7.846 -0.0087  0.1601 -0.0156
  186loPI    C1 2961  12.547   1.040   9.824  0.0008  0.1683 -0.1583
  186loPI    C2 2962  12.411   1.415   9.843  0.2538  0.2558 -0.0256
  186loPI    C3 2963  12.346   1.164  10.147 -0.1087  0.1212 -0.2076
  186loPI   PO4 2964  12.747   1.034   9.614  0.0077  0.1784 -0.2232
  186loPI   GL1 2965  12.998   1.233   9.301 -0.2460 -0.0814 -0.0498
  186loPI   GL2 2966  13.126   0.978   9.266 -0.1622  0.0784 -0.1328
  186loPI   C1A 2967  13.031   1.487   8.838  0.1728  0.1420 -0.0221
  186loPI   C2A 2968  12.991   1.519   8.450 -0.2222  0.0812 -0.1698
  186loPI   C3A 2969  12.972   1.610   8.063  0.1400 -0.1296  0.3032
  186loPI   C4A 2970  13.043   1.382   7.711 -0.0584  0.0689  0.0932
  186loPI   C5A 2971  13.358   1.174   7.467 -0.2635 -0.0705  0.0191
  186loPI   C6A 2972  13.343   0.894   7.097  0.0418  0.2676  0.0732
  186loPI   C1B 2973  13.115   1.004   8.830 -0.1841 -0.0379  0.3005
  186loPI   C2B 2974  13.175   0.969   8.368  0.0249 -0.0387  0.2839
  186loPI   C3B 2975  13.026   0.942   7.946  0.1727  0.1018 -0.0727
  186loPI   C4B 2976  12.965   0.749   7.607  0.0139  0.1441 -0.1104
  187loPI    C1 2977   6.199   9.009  10.038 -0.1424  0.1903 -0.2800
  187loPI    C2 2978   6.091   9.359  10.199  0.0865  0.2246 -0.1972
  187loPI    C3 2979   6.121   9.034  10.430 -0.2866  0.1099 -0.3026
  187loPI   PO4 2980   6.176   9.047   9.790 -0.1798  0.0764  0.3589
  187loPI   GL1 2981   6.366   8.855   9.458 -0.3212 -0.2086 -0.1611
  187loPI   GL2 2982   6.129   9.169   9.317  0.0811 -0.0445  0.1698
  187loPI   C1A 2983   6.172   8.679   9.213 -0.3362  0.1131  0.1623
  187loPI   C2A 2984   5.910   8.983   8.914 -0.0939  0.0368  0.0346
  187loPI   C3A 2985   5.903   9.005   8.510  0.1855 -0.2031 -0.2526
  187loPI   C4A 2986   5.962   9.103   8.124 -0.1159  0.0373 -0.0664
  187loPI   C5A 2987   6.342   8.925   7.807 -0.3587 -0.0100  0.2252
  187loPI   C6A 2988   6.656   8.696   7.561  0.2744 -0.2256  0.2544
  187loPI   C1B 2989   6.211   9.374   8.927 -0.1471 -0.1947 -0.0338
  187loPI   C2B 2990   6.287   9.313   8.508  0.0522  0.1332 -0.0335
  187loPI   C3B 2991   6.618   9.180   8.190  0.0985  0.0264  0.2634
  187loPI   C4B 2992   6.965   9.054   7.889  0.1436  0.1211 -0.1550
  188loPI    C1 2993   1.464   0.044  10.308  0.1169  0.1170  0.0707
  188loPI    C2 2994   1.552   0.170  10.678 -0.0156  0.0920  0.1113
  188loPI    C3 2995   1.430  -0.206  10.618  0.2208  0.0293  0.0118
  188loPI   PO4 2996   1.643   0.183  10.153  0.2004  0.2719 -0.2567
  188loPI   GL1 2997   1.652   0.252   9.699  0.0256  0.3432  0.0727
  188loPI   GL2 2998   1.735   0.436   9.483 -0.0874 -0.0717  0.2680
  188loPI   C1A 2999   1.602  -0.027   9.427  0.1428 -0.1436 -0.1066
  188loPI   C2A 3000   1.683  -0.092   8.913 -0.0062 -0.0960 -0.3710
  188loPI   C3A 3001   1.566  -0.014   8.427  0.1750  0.2422  0.3493
  188loPI   C4A 3002   1.461   0.002   7.937  0.1055  0.0927 -0.1252
  188loPI   C5A 3003   1.647  -0.328   7.693 -0.0184  0.0083  0.2700
  188loPI   C6A 3004   2.056  -0.601   7.626 -0.1979  0.0309 -0.1175
  188loPI   C1B 3005   1.634   0.395   9.119 -0.4603  0.0662  0.3239
  188loPI   C2B 3006   1.593   0.430   8.699  0.1273 -0.0948 -0.1083
  188loPI   C3B 3007   1.435   0.537   8.395  0.0600  0.2298 -0.1814
  188loPI   C4B 3008   1.262   0.480   7.899 -0.1769 -0.2657  0.0903
  189loPI    C1 3009   7.775   5.603   9.899 -0.0983 -0.0677  0.3007
  189loPI    C2 3010   7.903   5.830  10.202 -0.0670  0.0722  0.1840
  189loPI    C3 3011   7.524   5.857  10.079 -0.1074 -0.0599  0.2771
  189loPI   PO4 3012   7.885   5.682   9.687 -0.0450 -0.1870  0.0092
  189loPI   GL1 3013   7.953   5.635   9.337  0.2336  0.0610  0.1997
  189loPI   GL2 3014   7.701   5.474   9.283 -0.4627 -0.1376  0.0791
  189loPI   C1A 3015   7.858   5.917   9.057 -0.1805  0.0121 -0.2270
  189loPI   C2A 3016   7.708   5.915   8.614  0.1901  0.1599 -0.1993
  189loPI   C3A 3017   7.362   5.956   8.328  0.0232  0.1280  0.0233
  189loPI   C4A 3018   7.082   6.003   7.963 -0.0183  0.0134 -0.5302
  189loPI   C5A 3019   6.795   6.227   7.687  0.0900  0.2073 -0.2283
  189loPI   C6A 3020   6.585   6.408   7.306 -0.0712 -0.0647 -0.1509
  189loPI   C1B 3021   7.831   5.429   8.881 -0.0596  0.0937 -0.1228
  189loPI   C2B 3022   8.062   5.174   8.626 -0.1229  0.6902  0.0003
  189loPI   C3B 3023   8.257   5.323   8.193 -0.0919 -0.1615 -0.3029
  189loPI   C4B 3024   8.165   5.615   7.848  0.2220  0.0491  0.0807
  190loPI    C1 3025   6.468  12.541  10.438  0.1492 -0.0218  0.1434
  190loPI    C2 3026   6.761  12.575  10.168  0.0129 -0.1017 -0.0167
  190loPI    C3 3027   6.800  12.745  10.528  0.0630  0.2797 -0.1971
  190loPI   PO4 3028   6.213  12.499  10.177 -0.2467 -0.4203 -0.2705
  190loPI   GL1 3029   6.367  12.419   9.689 -0.2037  0.0540  0.2111
  190loPI   GL2 3030   6.114  12.484   9.680  0.2874  0.0619  0.4300
  190loPI   C1A 3031   6.320  12.539   9.227 -0.2488 -0.1755 -0.1940
  190loPI   C2A 3032   6.349  12.697   8.780 -0.1323 -0.1421  0.0340
  190loPI   C3A 3033   6.263  12.752   8.370  0.1385 -0.0162 -0.1196
  190loPI   C4A 3034   6.072  12.642   7.958 -0.1693 -0.1011 -0.1570
  190loPI   C5A 3035   6.086  12.269   7.699 -0.0002  0.0077  0.1695
  190loPI   C6A 3036   6.339  11.967   7.570 -0.0150 -0.0601 -0.0065
  190loPI   C1B 3037   5.802  12.518   9.316  0.1039  0.0886  0.5012
  190loPI   C2B 3038   5.788  12.454   8.918 -0.1066 -0.0708 -0.0090
  190loPI   C3B 3039   5.795  12.480   8.489 -0.3592 -0.1167  0.1586
  190loPI   C4B 3040   5.801  12.223   8.080 -0.2331  0.1969  0.3741
  191loPI    C1 3041   1.133  15.839   9.669  0.0624 -0.0041 -0.1910
  191loPI    C2 3042   0.800  15.649   9.784 -0.0417  0.4471  0.2922
  191loPI    C3 3043   1.158  15.497   9.875 -0.1038 -0.0123 -0.1832
  191loPI   PO4 3044   1.175  15.914   9.447  0.2499 -0.3487  0.0060
  191loPI   GL1 3045   1.363  15.739   8.966  0.1807 -0.1725 -0.0137
  191loPI   GL2 3046   1.623  15.823   9.210 -0.1560  0.4559  0.0493
  191loPI   C1A 3047   1.387  15.411   8.621 -0.4818  0.2861  0.0771
  191loPI   C2A 3048   1.532  15.404   8.206 -0.1068  0.4247  0.1185
  191loPI   C3A 3049   1.735  15.457   7.752 -0.4627 -0.0726 -0.0877
  191loPI   C4A 3050   2.024  15.446   7.487 -0.2960  0.2050  0.1983
  191loPI   C5A 3051   2.478  15.439   7.372 -0.1557 -0.2078  0.5623
  191loPI   C6A 3052   2.774  15.798   7.164 -0.1860  0.3638 -0.1759
  191loPI   C1B 3053   1.815  15.666   8.892 -0.3309 -0.1333  0.0879
  191loPI   C2B 3054   1.770  15.769   8.509 -0.0101 -0.0498 -0.1101
  191loPI   C3B 3055   1.770  15.784   8.111  0.2564 -0.2280  0.0163
  191loPI   C4B 3056   2.117  15.857   7.790  0.3366 -0.0413 -0.0255
  192loPI    C1 3057   8.472   2.870   9.968  0.2037  0.0530  0.0323
  192loPI    C2 3058   8.751   2.597  10.057  0.1738 -0.0157 -0.0823
  192loPI    C3 3059   8.860   2.958   9.926  0.2147  0.0445  0.1154
  192loPI   PO4 3060   8.253   2.695   9.908 -0.2001 -0.1432  0.2670
  192loPI   GL1 3061   8.141   2.525   9.514  0.0936  0.0061 -0.1004
  192loPI   GL2 3062   7.824   2.628   9.458 -0.0059  0.1347 -0.2743
  192loPI   C1A 3063   8.227   2.471   9.101 -0.1236  0.4023 -0.4021
  192loPI   C2A 3064   8.220   2.672   8.741 -0.0851  0.0479  0.2702
  192loPI   C3A 3065   8.223   2.762   8.235  0.2478 -0.0041  0.0282
  192loPI   C4A 3066   8.116   2.753   7.789  0.2244  0.1157 -0.0929
  192loPI   C5A 3067   8.156   2.335   7.603  0.1493 -0.2278 -0.1138
  192loPI   C6A 3068   8.562   2.181   7.385  0.1162  0.1170 -0.1625
  192loPI   C1B 3069   7.730   2.718   9.102  0.2134  0.0423 -0.0198
  192loPI   C2B 3070   7.776   2.792   8.700  0.3057 -0.0526 -0.0943
  192loPI   C3B 3071   7.780   2.921   8.245 -0.3443 -0.0318  0.1388
  192loPI   C4B 3072   7.543   2.983   7.962 -0.1455  0.3341  0.1377
  193loPI    C1 3073  10.390   9.025  10.131 -0.0730  0.0170  0.2296
  193loPI    C2 3074  10.677   9.293  10.206 -0.0565  0.0334  0.1094
  193loPI    C3 3075  10.489   9.111  10.509  0.2947 -0.2074  0.1889
  193loPI   PO4 3076  10.392   9.012   9.845 -0.1314 -0.1895  0.1450
  193loPI   GL1 3077  10.493   8.764   9.441  0.0541  0.1467  0.1520
  193loPI   GL2 3078  10.778   8.941   9.441 -0.1630  0.3604  0.1351
  193loPI   C1A 3079  10.607   8.828   8.957  0.0510 -0.2468 -0.4646
  193loPI   C2A 3080  10.829   8.866   8.708 -0.1141  0.2202  0.2671
  193loPI   C3A 3081  11.189   8.853   8.385 -0.1713  0.0681  0.1596
  193loPI   C4A 3082  11.383   8.945   8.016 -0.0347  0.0857  0.0872
  193loPI   C5A 3083  11.496   8.913   7.533 -0.1157 -0.1202  0.1470
  193loPI   C6A 3084  11.357   9.250   7.342 -0.0121 -0.1789  0.0782
  193loPI   C1B 3085  10.999   9.040   9.179  0.1211 -0.1942 -0.0269
  193loPI   C2B 3086  11.237   9.056   8.887  0.1069  0.3655  0.3183
  193loPI   C3B 3087  11.579   9.090   8.725 -0.3246 -0.0887  0.3270
  193loPI   C4B 3088  11.706   9.130   8.391  0.1004  0.0369 -0.2050
  194loPI    C1 3089  16.837  10.522   9.719 -0.0771 -0.0895 -0.0443
  194loPI    C2 3090  17.059  10.380  10.020  0.0869  0.1337 -0.0572
  194loPI    C3 3091  16.728  10.185   9.906  0.1322 -0.0600  0.1347
  194loPI   PO4 3092  17.023  10.614   9.571  0.2866 -0.1160  0.0688
  194loPI   GL1 3093  17.005  10.863   9.244  0.3717  0.0100 -0.2359
  194loPI   GL2 3094  16.821  10.635   9.087  0.1136 -0.2358 -0.1410
  194loPI   C1A 3095  17.172  10.970   8.899  0.0223 -0.2573 -0.2029
  194loPI   C2A 3096  17.117  10.723   8.525 -0.0470  0.2820  0.2557
  194loPI   C3A 3097  17.212  10.452   8.181 -0.0859 -0.2644 -0.2139
  194loPI   C4A 3098  17.027  10.329   7.842 -0.1698  0.1647 -0.0870
  194loPI   C5A 3099  17.002  10.336   7.450 -0.3491 -0.1919 -0.1429
  194loPI   C6A 3100  16.834  10.335   7.074 -0.0537 -0.0140  0.0165
  194loPI   C1B 3101  16.674  10.512   8.642 -0.0852  0.3566  0.0177
  194loPI   C2B 3102  16.366  10.350   8.282 -0.1466  0.1579 -0.1818
  194loPI   C3B 3103  16.502  10.339   7.798 -0.0149  0.1580 -0.1265
  194loPI   C4B 3104  16.433  10.484   7.377 -0.1231 -0.3222  0.0258
  195loPI    C1 3105   8.831  16.589   9.755  0.0776 -0.3203 -0.1710
  195loPI    C2 3106   8.945  16.210   9.696 -0.0434 -0.3715 -0.0787
  195loPI    C3 3107   8.556  16.299   9.732 -0.0076 -0.2574  0.0346
  195loPI   PO4 3108   8.998  16.684   9.903 -0.0307  0.0852  0.3690
  195loPI   GL1 3109   9.361  16.838   9.554 -0.0086  0.0693 -0.0734
  195loPI   GL2 3110   9.563  16.646   9.486  0.1645 -0.0320  0.2252
  195loPI   C1A 3111   9.528  17.015   9.112  0.3670  0.2728 -0.1363
  195loPI   C2A 3112   9.571  17.228   8.628  0.0560  0.0099 -0.2485
  195loPI   C3A 3113  10.017  17.342   8.593 -0.0097  0.0907  0.0342
  195loPI   C4A 3114  10.221  17.699   8.415  0.1122 -0.0974  0.5141
  195loPI   C5A 3115   9.991  17.979   8.105  0.1843 -0.1031 -0.0167
  195loPI   C6A 3116   9.833  18.079   7.627  0.0688  0.0315 -0.1014
  195loPI   C1B 3117   9.416  16.417   9.046  0.1422 -0.0890 -0.0655
  195loPI   C2B 3118   9.479  16.304   8.684 -0.2024  0.0029  0.2905
  195loPI   C3B 3119   9.612  16.304   8.261  0.1527  0.1964  0.2207
  195loPI   C4B 3120   9.755  16.602   8.011 -0.0939  0.4400  0.1031
  196loPI    C1 3121   0.571  18.008   9.319  0.1239 -0.0789 -0.1961
  196loPI    C2 3122   0.544  17.957   9.715  0.1872 -0.0330 -0.1856
  196loPI    C3 3123   0.274  17.788   9.473  0.1199 -0.0209 -0.1197
  196loPI   PO4 3124   0.753  18.293   9.322  0.1163 -0.0234 -0.2367
  196loPI   GL1 3125   0.684  18.741   8.994  0.2226  0.1761  0.1246
  196loPI   GL2 3126   0.682  18.454   8.850  0.0196 -0.3563 -0.2843
  196loPI   C1A 3127   0.645  19.205   8.918 -0.0461 -0.1164  0.0618
  196loPI   C2A 3128   0.586  19.444   8.437 -0.3421  0.0053  0.0387
  196loPI   C3A 3129   0.719  19.490   8.022 -0.1760  0.2891  0.0332
  196loPI   C4A 3130   0.936  19.824   7.564  0.0123 -0.3230 -0.0955
  196loPI   C5A 3131   1.280  19.896   7.224  0.0987  0.0625 -0.3667
  196loPI   C6A 3132   1.623  19.961   6.968  0.0730 -0.5769  0.1304
  196loPI   C1B 3133   0.824  18.887   8.547 -0.1017 -0.1397 -0.0288
  196loPI   C2B 3134   0.901  18.750   8.127  0.0012  0.0101 -0.1882
  196loPI   C3B 3135   0.923  18.711   7.664 -0.1020 -0.1045  0.0257
  196loPI   C4B 3136   0.790  19.010   7.297  0.3920 -0.1021  0.1152
  197loPI    C1 3137   8.125  18.904   9.808  0.0601  0.1085  0.2116
  197loPI    C2 3138   7.978  19.217   9.609 -0.2228 -0.1738 -0.0342
  197loPI    C3 3139   7.822  19.114   9.962  0.0129  0.0858  0.1500
  197loPI   PO4 3140   8.282  18.779   9.637 -0.2069  0.1658 -0.0806
  197loPI   GL1 3141   8.259  18.630   9.289  0.0375 -0.0803  0.3000
  197loPI   GL2 3142   8.427  18.304   9.244 -0.0914 -0.1114 -0.2259
  197loPI   C1A 3143   8.286  18.771   8.868 -0.1311 -0.0114 -0.2450
  197loPI   C2A 3144   8.053  18.720   8.593 -0.1569  0.3869 -0.0331
  197loPI   C3A 3145   8.013  18.663   8.229  0.1493  0.1582  0.0015
  197loPI   C4A 3146   7.677  18.645   8.092 -0.1100  0.2089  0.4062
  197loPI   C5A 3147   7.379  18.477   7.782  0.0584  0.6009 -0.4884
  197loPI   C6A 3148   7.312  18.200   7.377 -0.2029  0.0219 -0.1373
  197loPI   C1B 3149   8.359  18.253   8.799 -0.1769 -0.1754  0.0830
  197loPI   C2B 3150   8.422  18.442   8.416  0.4856  0.0418 -0.0888
  197loPI   C3B 3151   8.473  18.313   8.088 -0.2743  0.0451  0.2474
  197loPI   C4B 3152   8.496  18.266   7.642  0.0529 -0.1062  0.0677
  198loPI    C1 3153   4.995  12.980  10.041  0.0921  0.0571 -0.0140
  198loPI    C2 3154   5.245  12.853  10.327 -0.2211 -0.1392  0.1780
  198loPI    C3 3155   4.861  12.926  10.414 -0.3457 -0.2970 -0.2132
  198loPI   PO4 3156   5.140  12.819   9.859  0.2835 -0.0416  0.0506
  198loPI   GL1 3157   5.291  12.804   9.535 -0.0361  0.0878  0.2612
  198loPI   GL2 3158   5.370  13.170   9.452  0.0705  0.0043 -0.0163
  198loPI   C1A 3159   5.329  12.779   9.035  0.1212 -0.1493  0.0500
  198loPI   C2A 3160   5.414  12.900   8.621 -0.3012 -0.2281  0.2405
  198loPI   C3A 3161   5.761  12.902   8.333 -0.0055  0.1552  0.2144
  198loPI   C4A 3162   6.045  13.104   7.998  0.2705 -0.2400 -0.3495
  198loPI   C5A 3163   6.445  12.957   7.882 -0.2008 -0.0507 -0.1399
  198loPI   C6A 3164   6.551  13.120   7.587 -0.2902 -0.3520 -0.0067
  198loPI   C1B 3165   5.348  13.396   9.051  0.1681  0.1672 -0.1229
  198loPI   C2B 3166   5.376  13.572   8.722 -0.2179 -0.0234  0.1305
  198loPI   C3B 3167   5.528  13.541   8.412 -0.2098  0.0314 -0.1434
  198loPI   C4B 3168   5.894  13.682   8.144 -0.3890  0.1043  0.1428
  199loPI    C1 3169   4.946   0.625  10.291  0.0783 -0.2113  0.1519
  199loPI    C2 3170   4.661   0.367  10.401 -0.2003  0.1337  0.2601
  199loPI    C3 3171   4.980   0.426  10.636 -0.0253 -0.2659  0.1309
  199loPI   PO4 3172   4.849   0.733  10.050 -0.0262  0.3418 -0.0550
  199loPI   GL1 3173   4.670   0.743   9.697  0.0643  0.1729  0.2222
  199loPI   GL2 3174   4.515   0.547   9.512 -0.1019 -0.0190 -0.3766
  199loPI   C1A 3175   5.032   0.788   9.393 -0.0022  0.2576  0.3839
  199loPI   C2A 3176   5.392   1.052   9.206 -0.2079  0.1117  0.1417
  199loPI   C3A 3177   5.606   1.016   8.734 -0.0112  0.4759 -0.0242
  199loPI   C4A 3178   5.649   0.955   8.321  0.2521 -0.2215  0.3847
  199loPI   C5A 3179   5.288   0.811   8.127 -0.0639 -0.1035  0.0929
  199loPI   C6A 3180   5.167   0.593   7.740  0.1992 -0.1269  0.0101
  199loPI   C1B 3181   4.449   0.748   9.142 -0.1439 -0.2430  0.4569
  199loPI   C2B 3182   4.289   0.722   8.763  0.3577  0.2068  0.1518
  199loPI   C3B 3183   4.236   1.101   8.462 -0.0731 -0.0879 -0.0273
  199loPI   C4B 3184   4.343   1.433   8.163 -0.1131  0.3268  0.3637
  200loPI    C1 3185  12.727   3.790   9.840 -0.2368 -0.0981  0.1791
  200loPI    C2 3186  12.893   3.436   9.751 -0.0616  0.0634 -0.1536
  200loPI    C3 3187  12.963   3.606  10.107  0.1886 -0.0450 -0.1491
  200loPI   PO4 3188  12.801   3.939   9.642  0.2068 -0.0353 -0.2045
  200loPI   GL1 3189  12.557   3.977   9.198 -0.2863 -0.0868 -0.1383
  200loPI   GL2 3190  12.301   4.088   9.070  0.0322 -0.1964  0.1369
  200loPI   C1A 3191  12.679   4.233   8.767 -0.0118  0.1357  0.0705
  200loPI   C2A 3192  12.768   4.411   8.363 -0.1394  0.0615  0.1378
  200loPI   C3A 3193  12.636   4.420   7.910  0.2243  0.1189 -0.2433
  200loPI   C4A 3194  12.746   4.312   7.453 -0.2416 -0.0599  0.1838
  200loPI   C5A 3195  12.996   4.081   7.186 -0.1078  0.1007  0.0925
  200loPI   C6A 3196  12.940   3.679   7.012  0.2843 -0.4206 -0.1066
  200loPI   C1B 3197  12.034   4.213   8.730 -0.2426 -0.0283  0.0508
  200loPI   C2B 3198  11.897   3.959   8.427  0.2641 -0.1392  0.1889
  200loPI   C3B 3199  11.813   4.026   7.987 -0.2937  0.1739 -0.2463
  200loPI   C4B 3200  11.621   4.087   7.604  0.0426 -0.2318 -0.0578
  201loPI    C1 3201   0.862   3.767  10.033  0.0449 -0.0865  0.3939
  201loPI    C2 3202   0.769   3.453  10.263  0.2312 -0.2343  0.2705
  201loPI    C3 3203   0.604   3.810  10.336  0.1281 -0.3271  0.5017
  201loPI   PO4 3204   0.793   3.636   9.807  0.2422 -0.2816 -0.1808
  201loPI   GL1 3205   0.458   3.507   9.405  0.3889  0.0196 -0.0018
  201loPI   GL2 3206   0.940   3.412   9.287 -0.3178 -0.1847  0.0721
  201loPI   C1A 3207   0.224   3.386   9.081 -0.1743  0.2343  0.4645
  201loPI   C2A 3208   0.051   3.236   8.680 -0.0593 -0.3851  0.0875
  201loPI   C3A 3209   0.002   3.387   8.241  0.0971  0.0366  0.3352
  201loPI   C4A 3210  -0.357   3.350   8.020  0.3182 -0.0521  0.0755
  201loPI   C5A 3211  -0.675   3.118   7.844 -0.2278  0.1094  0.0448
  201loPI   C6A 3212  -0.873   3.151   7.483  0.3779  0.3604  0.0076
  201loPI   C1B 3213   0.839   3.635   9.038  0.2427  0.2501  0.1039
  201loPI   C2B 3214   0.564   3.846   9.002  0.1166  0.1185 -0.0179
  201loPI   C3B 3215   0.642   4.038   8.565  0.1709  0.0468  0.1171
  201loPI   C4B 3216   0.797   3.975   8.188  0.4509 -0.1436  0.1428
  202loPI    C1 3217   3.147   8.202   9.952 -0.1766 -0.1791 -0.0207
  202loPI    C2 3218   2.994   8.292  10.310  0.0981 -0.1808  0.0995
  202loPI    C3 3219   3.284   8.017  10.279  0.0287 -0.2303 -0.1331
  202loPI   PO4 3220   2.818   8.274   9.854  0.0015  0.1924  0.0679
  202loPI   GL1 3221   2.759   8.350   9.402 -0.0245 -0.2291 -0.2776
  202loPI   GL2 3222   3.058   8.619   9.379  0.2658 -0.5725  0.0638
  202loPI   C1A 3223   2.550   8.108   9.113  0.2158 -0.0969  0.0431
  202loPI   C2A 3224   2.639   8.027   8.672 -0.2637  0.0695  0.0903
  202loPI   C3A 3225   2.337   8.043   8.256  0.0944  0.2281  0.3228
  202loPI   C4A 3226   2.695   8.059   7.878 -0.0113 -0.2667  0.3609
  202loPI   C5A 3227   2.934   7.731   7.804 -0.1435 -0.2139 -0.3193
  202loPI   C6A 3228   3.153   7.365   7.659 -0.2024  0.1179  0.1937
  202loPI   C1B 3229   3.362   8.742   9.209 -0.1688 -0.1213 -0.0587
  202loPI   C2B 3230   3.525   9.011   8.897 -0.1934 -0.2682  0.1944
  202loPI   C3B 3231   3.323   9.293   8.559 -0.2935 -0.1888  0.1831
  202loPI   C4B 3232   2.856   9.323   8.398 -0.1453 -0.0171 -0.0489
  203loPI    C1 3233   1.618   8.991   9.888 -0.2514 -0.2821 -0.1028
  203loPI    C2 3234   1.345   9.008  10.179  0.1390  0.2313  0.2529
  203loPI    C3 3235   1.732   8.970  10.271  0.2540  0.2272 -0.2118
  203loPI   PO4 3236   1.559   8.790   9.774  0.0547 -0.1838 -0.1169
  203loPI   GL1 3237   1.827   8.568   9.427  0.3321  0.2308  0.1178
  203loPI   GL2 3238   1.528   8.537   9.346 -0.1328  0.2461 -0.1115
  203loPI   C1A 3239   1.770   8.568   8.875  0.3139  0.1709 -0.1161
  203loPI   C2A 3240   1.600   8.562   8.369  0.0666 -0.3145 -0.2265
  203loPI   C3A 3241   1.773   8.724   8.041  0.0819 -0.0840  0.0919
  203loPI   C4A 3242   1.832   8.300   7.901  0.2269  0.3298 -0.2939
  203loPI   C5A 3243   1.709   8.042   7.521  0.2805  0.2247  0.0763
  203loPI   C6A 3244   1.325   8.149   7.360 -0.2196 -0.4036  0.1133
  203loPI   C1B 3245   1.284   8.547   9.013  0.3740 -0.1462  0.3045
  203loPI   C2B 3246   1.155   8.456   8.685 -0.2923  0.3708  0.0357
  203loPI   C3B 3247   1.139   8.278   8.332  0.0243 -0.0193  0.3587
  203loPI   C4B 3248   1.186   8.237   7.922  0.0324 -0.1542 -0.4108
  204loPI    C1 3249  17.268   1.484   9.908  0.0317 -0.1495  0.1953
  204loPI    C2 3250  17.605   1.527  10.120 -0.0406  0.2063  0.2441
  204loPI    C3 3251  17.263   1.688  10.252 -0.1948 -0.0049  0.1082
  204loPI   PO4 3252  17.288   1.497   9.610 -0.2370 -0.4441 -0.2852
  204loPI   GL1 3253  16.950   1.380   9.294 -0.2276 -0.4586 -0.1111
  204loPI   GL2 3254  17.053   1.733   9.241  0.1433  0.1959  0.1219
  204loPI   C1A 3255  16.831   1.275   8.878  0.2330  0.0402  0.0445
  204loPI   C2A 3256  16.607   1.391   8.514  0.1844 -0.0185  0.3872
  204loPI   C3A 3257  16.421   1.195   8.068 -0.0688 -0.1254 -0.0522
  204loPI   C4A 3258  16.089   1.135   7.839 -0.0664 -0.2771  0.3303
  204loPI   C5A 3259  16.028   0.927   7.445  0.3426 -0.1445  0.1221
  204loPI   C6A 3260  16.261   0.806   7.123  0.0998  0.0268 -0.0620
  204loPI   C1B 3261  17.246   1.543   8.813 -0.1078  0.0228  0.0966
  204loPI   C2B 3262  17.380   1.766   8.460  0.1882  0.1026 -0.0555
  204loPI   C3B 3263  17.557   1.998   8.131  0.4279  0.0774  0.5035
  204loPI   C4B 3264  17.547   2.056   7.758 -0.0696 -0.2459  0.1017
  205loPI    C1 3265  16.586   4.748   9.960  0.1993  0.2865  0.0098
  205loPI    C2 3266  16.853   4.458  10.025 -0.0560  0.0341 -0.0435
  205loPI    C3 3267  16.556   4.518  10.286 -0.1040  0.1339 -0.1204
  205loPI   PO4 3268  16.505   4.776   9.764  0.0536  0.2786 -0.0607
  205loPI   GL1 3269  16.817   4.676   9.356 -0.3006 -0.1358  0.3730
  205loPI   GL2 3270  16.686   4.971   9.322  0.2211 -0.3799  0.0313
  205loPI   C1A 3271  16.836   4.588   8.913 -0.4368  0.1358  0.1535
  205loPI   C2A 3272  16.935   4.678   8.476 -0.0621  0.1760  0.1401
  205loPI   C3A 3273  17.143   4.691   8.119  0.2821  0.1472 -0.2616
  205loPI   C4A 3274  17.282   4.664   7.677 -0.1481  0.0326  0.0089
  205loPI   C5A 3275  17.682   4.465   7.475  0.2941  0.0314 -0.1733
  205loPI   C6A 3276  18.032   4.624   7.474  0.0123  0.2279 -0.2838
  205loPI   C1B 3277  16.838   5.112   8.978 -0.1428 -0.1357 -0.2311
  205loPI   C2B 3278  16.847   5.150   8.491 -0.0866 -0.3204 -0.2177
  205loPI   C3B 3279  16.883   5.402   8.156  0.2329 -0.2147 -0.0586
  205loPI   C4B 3280  16.769   5.402   7.656  0.1416 -0.1291 -0.0895
  206loPI    C1 3281  16.825   4.010   9.786  0.0220  0.1455  0.1020
  206loPI    C2 3282  16.611   4.019  10.123 -0.0555  0.1203  0.0537
  206loPI    C3 3283  16.986   3.879  10.128 -0.0321  0.1852  0.1425
  206loPI   PO4 3284  16.633   3.844   9.629  0.1608  0.1526 -0.0895
  206loPI   GL1 3285  16.411   3.732   9.352 -0.1622  0.0208  0.1826
  206loPI   GL2 3286  16.533   4.132   9.172 -0.2184 -0.0264 -0.1514
  206loPI   C1A 3287  16.314   3.716   8.924  0.2639  0.1431  0.0736
  206loPI   C2A 3288  16.274   3.830   8.426  0.0862 -0.0820  0.1398
  206loPI   C3A 3289  16.183   3.989   8.017 -0.0226 -0.0247  0.1191
  206loPI   C4A 3290  16.185   4.114   7.628  0.0430  0.0618 -0.1045
  206loPI   C5A 3291  16.248   4.006   7.203 -0.2004 -0.0571  0.0738
  206loPI   C6A 3292  16.570   3.952   6.825  0.0940 -0.2940 -0.0549
  206loPI   C1B 3293  16.801   4.060   8.924 -0.0704  0.2587  0.0652
  206loPI   C2B 3294  16.783   3.959   8.548 -0.2858  0.2737  0.0286
  206loPI   C3B 3295  16.828   3.797   8.108 -0.0502  0.1740 -0.0723
  206loPI   C4B 3296  16.649   3.882   7.708  0.1284  0.2958 -0.1465
  207loPI    C1 3297   6.864   4.865  10.299  0.1683 -0.0719  0.1080
  207loPI    C2 3298   6.482   4.984  10.310  0.1282 -0.2121  0.2653
  207loPI    C3 3299   6.656   4.838  10.639  0.3740  0.0217  0.2429
  207loPI   PO4 3300   6.866   4.761  10.066 -0.4199 -0.4627  0.1717
  207loPI   GL1 3301   6.882   4.584   9.688  0.1243 -0.0378  0.1633
  207loPI   GL2 3302   6.698   4.277   9.745  0.0195 -0.1234  0.0402
  207loPI   C1A 3303   6.870   4.475   9.312 -0.3974  0.0147 -0.2282
  207loPI   C2A 3304   6.738   4.348   8.951 -0.0007  0.0176  0.1442
  207loPI   C3A 3305   6.972   3.991   8.596 -0.0815 -0.3272  0.3480
  207loPI   C4A 3306   6.903   3.861   8.186  0.1412  0.0408  0.0098
  207loPI   C5A 3307   6.744   3.523   7.942 -0.0647 -0.1336  0.0056
  207loPI   C6A 3308   6.399   3.230   7.834 -0.0033  0.1569 -0.0892
  207loPI   C1B 3309   6.387   4.129   9.531  0.5282 -0.0035  0.0036
  207loPI   C2B 3310   6.325   3.689   9.429 -0.2747  0.0256  0.0540
  207loPI   C3B 3311   6.435   3.269   9.328  0.2009 -0.4391 -0.1893
  207loPI   C4B 3312   6.081   2.909   9.393 -0.0027  0.0889  0.0737
  208loPI    C1 3313   7.439  12.016  10.387  0.0232  0.0916  0.0680
  208loPI    C2 3314   7.658  12.165  10.688 -0.0648 -0.0190  0.1876
  208loPI    C3 3315   7.523  11.789  10.705  0.0559 -0.0759 -0.0592
  208loPI   PO4 3316   7.586  12.074  10.078  0.0680  0.0401 -0.0279
  208loPI   GL1 3317   7.442  12.119   9.621 -0.0623  0.2618 -0.1564
  208loPI   GL2 3318   7.262  11.953   9.366 -0.1191 -0.0721 -0.2524
  208loPI   C1A 3319   7.535  12.426   9.423  0.1695 -0.0669  0.4736
  208loPI   C2A 3320   7.654  12.416   9.008  0.4792 -0.1622 -0.1857
  208loPI   C3A 3321   7.641  12.461   8.586  0.1166  0.1268  0.0121
  208loPI   C4A 3322   7.532  12.247   8.183 -0.2094  0.0568 -0.5644
  208loPI   C5A 3323   7.587  12.265   7.687  0.2135  0.2040 -0.0827
  208loPI   C6A 3324   7.728  12.636   7.469 -0.0572 -0.1406  0.1178
  208loPI   C1B 3325   7.178  12.160   9.014 -0.1850  0.2562  0.0595
  208loPI   C2B 3326   7.150  12.428   8.675  0.0733  0.1088 -0.2911
  208loPI   C3B 3327   7.057  12.335   8.180  0.1885  0.4181 -0.0119
  208loPI   C4B 3328   7.032  12.316   7.718  0.3160  0.0517 -0.0270
  209loPI    C1 3329  12.882   7.881   9.963  0.2356  0.0770  0.1876
  209loPI    C2 3330  12.496   7.894  10.066  0.1679 -0.1184 -0.0342
  209loPI    C3 3331  12.759   8.131  10.251 -0.0263 -0.1179  0.2486
  209loPI   PO4 3332  12.918   7.924   9.663 -0.1102 -0.2028 -0.0341
  209loPI   GL1 3333  12.930   7.949   9.204 -0.0391 -0.0253  0.0190
  209loPI   GL2 3334  13.257   7.872   9.325 -0.2839 -0.2493  0.1853
  209loPI   C1A 3335  13.023   8.079   8.817  0.0713  0.0378 -0.4454
  209loPI   C2A 3336  13.306   8.237   8.630  0.3061 -0.1614 -0.1725
  209loPI   C3A 3337  13.534   8.065   8.241  0.1393  0.1322  0.1421
  209loPI   C4A 3338  13.705   8.135   7.866  0.0378  0.0502  0.0960
  209loPI   C5A 3339  13.730   8.399   7.497 -0.1309  0.1647  0.0474
  209loPI   C6A 3340  13.824   8.814   7.238  0.2076 -0.0782  0.1121
  209loPI   C1B 3341  13.344   7.638   8.898  0.1075 -0.2017  0.0577
  209loPI   C2B 3342  13.237   7.740   8.474 -0.2815  0.0277  0.0539
  209loPI   C3B 3343  13.022   7.670   8.066 -0.3477 -0.1659  0.1821
  209loPI   C4B 3344  13.081   7.505   7.531  0.3115  0.0578 -0.2023
  210loPI    C1 3345  13.295  13.647   9.855 -0.1508  0.0761  0.0807
  210loPI    C2 3346  13.490  13.612  10.202  0.0364 -0.0582 -0.0357
  210loPI    C3 3347  13.475  13.302   9.949  0.0599  0.0970 -0.2294
  210loPI   PO4 3348  13.301  13.885   9.707 -0.0374  0.2226 -0.0031
  210loPI   GL1 3349  13.448  14.268   9.625 -0.1588 -0.0100  0.0502
  210loPI   GL2 3350  13.715  14.269   9.542 -0.1807 -0.2584  0.2298
  210loPI   C1A 3351  13.235  14.449   9.265  0.0279 -0.2484 -0.0672
  210loPI   C2A 3352  13.149  14.500   8.911  0.1871 -0.3215 -0.1726
  210loPI   C3A 3353  13.069  14.544   8.527  0.0099  0.1524  0.0637
  210loPI   C4A 3354  12.787  14.812   8.261 -0.3153  0.0026  0.3991
  210loPI   C5A 3355  12.752  14.826   7.762  0.1553 -0.1978 -0.2318
  210loPI   C6A 3356  12.540  15.018   7.498 -0.0160 -0.3372 -0.2420
  210loPI   C1B 3357  13.636  14.302   9.059 -0.0175  0.0520 -0.1542
  210loPI   C2B 3358  13.589  14.408   8.688 -0.0799  0.1343 -0.1316
  210loPI   C3B 3359  13.704  14.248   8.292  0.1895 -0.1051 -0.0599
  210loPI   C4B 3360  13.736  14.107   7.850 -0.0321  0.1391  0.0714
  211loPI    C1 3361  15.383  11.978   9.805 -0.1003 -0.1470 -0.0240
  211loPI    C2 3362  15.042  11.833   9.955 -0.0583 -0.1612  0.0579
  211loPI    C3 3363  15.392  11.733  10.121 -0.0278  0.0195  0.1043
  211loPI   PO4 3364  15.302  12.035   9.496 -0.4215  0.0709 -0.0973
  211loPI   GL1 3365  15.183  11.921   9.061 -0.0750 -0.0824  0.0837
  211loPI   GL2 3366  15.461  11.933   8.948  0.0331 -0.1060  0.4242
  211loPI   C1A 3367  14.927  11.755   8.804  0.1216  0.1003 -0.0501
  211loPI   C2A 3368  14.843  11.753   8.372  0.0025  0.1910  0.0645
  211loPI   C3A 3369  14.580  11.621   8.092 -0.2532  0.1119 -0.0732
  211loPI   C4A 3370  14.581  11.370   7.784 -0.0200  0.2241  0.0154
  211loPI   C5A 3371  14.414  11.261   7.454  0.2185  0.3123 -0.0122
  211loPI   C6A 3372  14.105  10.985   7.328  0.0418  0.1217 -0.1144
  211loPI   C1B 3373  15.348  12.069   8.605  0.0654 -0.0600 -0.0211
  211loPI   C2B 3374  15.231  12.027   8.213  0.0671  0.0253 -0.1585
  211loPI   C3B 3375  15.368  12.282   7.942 -0.4172  0.0903 -0.1967
  211loPI   C4B 3376  15.457  12.348   7.559  0.0220  0.0965 -0.0167
  212loPI    C1 3377   7.086   2.994  10.302 -0.1949 -0.1486 -0.1002
  212loPI    C2 3378   6.746   3.092  10.489 -0.0370 -0.0230  0.1252
  212loPI    C3 3379   7.007   3.377  10.386  0.0892 -0.1366  0.1278
  212loPI   PO4 3380   6.965   2.790  10.111  0.0816  0.0144  0.1868
  212loPI   GL1 3381   6.941   2.928   9.669  0.3535 -0.2757  0.2141
  212loPI   GL2 3382   7.048   2.665   9.583  0.1333 -0.1968 -0.1539
  212loPI   C1A 3383   6.604   2.839   9.306 -0.0362  0.0104  0.0798
  212loPI   C2A 3384   6.403   2.847   8.929  0.1515 -0.5567  0.2541
  212loPI   C3A 3385   6.083   3.222   8.974  0.0177 -0.1626 -0.3226
  212loPI   C4A 3386   6.194   3.766   8.928 -0.0155  0.1933 -0.2109
  212loPI   C5A 3387   6.349   4.009   8.565 -0.1418 -0.0479  0.2105
  212loPI   C6A 3388   6.399   3.834   8.153  0.0029  0.2423  0.0125
  212loPI   C1B 3389   6.885   2.408   9.251  0.1199 -0.1039  0.0640
  212loPI   C2B 3390   6.968   2.208   8.846  0.0073 -0.3091  0.1619
  212loPI   C3B 3391   6.812   1.967   8.464 -0.1777  0.0300 -0.2522
  212loPI   C4B 3392   6.736   1.773   8.052  0.0335  0.4325 -0.2248
  213loPI    C1 3393   3.196   7.536  10.012  0.0271  0.1953  0.0329
  213loPI    C2 3394   3.097   7.444  10.389 -0.2300  0.1903 -0.0344
  213loPI    C3 3395   3.190   7.154  10.130  0.0707  0.2022  0.0574
  213loPI   PO4 3396   3.041   7.671   9.913  0.1470  0.1853  0.3497
  213loPI   GL1 3397   3.043   7.800   9.457 -0.0745 -0.1606  0.0103
  213loPI   GL2 3398   3.311   7.652   9.479 -0.1691  0.2738  0.1334
  213loPI   C1A 3399   2.843   7.543   9.161  0.1272 -0.0615  0.0573
  213loPI   C2A 3400   2.846   7.490   8.802  0.1569  0.2947 -0.2067
  213loPI   C3A 3401   2.988   7.289   8.608 -0.2146 -0.0430 -0.1935
  213loPI   C4A 3402   3.107   7.131   8.138  0.2098 -0.1965 -0.1972
  213loPI   C5A 3403   3.242   6.733   7.962  0.2340 -0.1489  0.2171
  213loPI   C6A 3404   3.148   6.590   7.421  0.2686  0.0694  0.1256
  213loPI   C1B 3405   3.378   7.585   9.010  0.2666  0.1220 -0.2324
  213loPI   C2B 3406   3.462   7.577   8.667 -0.0067 -0.2107 -0.2478
  213loPI   C3B 3407   3.273   7.617   8.318  0.1943 -0.3585 -0.2280
  213loPI   C4B 3408   3.481   7.642   7.953 -0.1216  0.1420  0.0101
  214loPI    C1 3409  18.568  13.456   9.989  0.3584  0.2659  0.2033
  214loPI    C2 3410  18.591  13.060  10.043 -0.2155  0.1488 -0.2927
  214loPI    C3 3411  18.340  13.278  10.266  0.0095  0.2195 -0.1046
  214loPI   PO4 3412  18.670  13.387   9.707 -0.1805 -0.0122 -0.1872
  214loPI   GL1 3413  18.908  13.399   9.330 -0.3399 -0.1042  0.0321
  214loPI   GL2 3414  18.963  13.110   9.324 -0.3983 -0.3144  0.0465
  214loPI   C1A 3415  18.635  13.265   8.999  0.1622 -0.1574  0.0029
  214loPI   C2A 3416  18.315  13.456   8.667  0.1103  0.2858  0.1245
  214loPI   C3A 3417  18.280  13.606   8.242  0.0980 -0.1242  0.0061
  214loPI   C4A 3418  18.348  13.515   7.855 -0.1856 -0.3079 -0.0504
  214loPI   C5A 3419  18.769  13.394   7.714 -0.2282  0.0424  0.1728
  214loPI   C6A 3420  19.167  13.439   7.548 -0.1487 -0.1025 -0.2020
  214loPI   C1B 3421  19.334  12.970   9.040  0.2752 -0.1668  0.1771
  214loPI   C2B 3422  19.320  12.932   8.548 -0.0467  0.1096 -0.3513
  214loPI   C3B 3423  19.054  13.073   8.109 -0.0116  0.2129  0.1257
  214loPI   C4B 3424  18.997  12.954   7.699 -0.0432 -0.2514  0.0727
  215loPI    C1 3425  15.773   7.404   9.833  0.2178 -0.1013  0.0108
  215loPI    C2 3426  15.427   7.600   9.875  0.1454 -0.1987 -0.1263
  215loPI    C3 3427  15.702   7.616  10.165  0.0477 -0.0788 -0.0394
  215loPI   PO4 3428  15.842   7.448   9.693  0.0297  0.0986  0.3034
  215loPI   GL1 3429  16.008   7.401   9.331 -0.0965 -0.4004  0.2869
  215loPI   GL2 3430  16.140   7.723   9.419  0.1873  0.0172 -0.1456
  215loPI   C1A 3431  15.801   7.402   8.990 -0.0870  0.2403  0.0621
  215loPI   C2A 3432  15.634   7.236   8.546 -0.1672 -0.1798 -0.0641
  215loPI   C3A 3433  15.556   7.386   8.011 -0.0588 -0.1962 -0.0411
  215loPI   C4A 3434  15.500   7.567   7.643  0.0173 -0.2082 -0.1172
  215loPI   C5A 3435  15.635   7.796   7.387 -0.1903  0.1571  0.2334
  215loPI   C6A 3436  15.842   8.053   7.014  0.0759 -0.1765  0.2505
  215loPI   C1B 3437  16.145   7.717   8.973 -0.2653 -0.2966  0.0178
  215loPI   C2B 3438  16.092   7.607   8.601  0.0098  0.0384 -0.0265
  215loPI   C3B 3439  15.910   7.731   8.169  0.2204  0.0596 -0.2964
  215loPI   C4B 3440  15.678   7.989   7.879 -0.0667 -0.1446  0.0433
  216loPI    C1 3441  18.060  18.340   9.707 -0.0385 -0.2260  0.2442
  216loPI    C2 3442  17.734  18.382   9.479  0.1939 -0.4146 -0.1320
  216loPI    C3 3443  17.742  18.104   9.766 -0.0423 -0.2833  0.0048
  216loPI   PO4 3444  18.298  18.241   9.542  0.1695 -0.2045  0.2131
  216loPI   GL1 3445  18.477  18.309   9.192  0.0321 -0.0716 -0.0584
  216loPI   GL2 3446  18.080  18.364   9.109 -0.3488 -0.1002  0.1833
  216loPI   C1A 3447  18.476  18.141   8.767  0.1881  0.0389  0.0843
  216loPI   C2A 3448  18.452  18.158   8.307 -0.1282  0.0052  0.1329
  216loPI   C3A 3449  18.498  18.310   7.925 -0.2231 -0.2022 -0.2823
  216loPI   C4A 3450  18.348  18.600   7.774 -0.3858  0.2859  0.1901
  216loPI   C5A 3451  18.472  18.918   7.548  0.1509  0.1428  0.2149
  216loPI   C6A 3452  18.780  19.145   7.273  0.0695 -0.1743 -0.0199
  216loPI   C1B 3453  18.005  18.305   8.614 -0.1256  0.1784  0.0529
  216loPI   C2B 3454  17.974  18.450   8.127  0.0090 -0.3932 -0.0848
  216loPI   C3B 3455  17.882  18.553   7.642 -0.4777  0.2867  0.1347
  216loPI   C4B 3456  17.975  18.860   7.286  0.0414  0.1598 -0.0045
  217loPI    C1 3457  13.536   3.747   9.794  0.1020  0.0216  0.0213
  217loPI    C2 3458  13.205   3.947   9.896  0.0117 -0.0007 -0.2217
  217loPI    C3 3459  13.561   4.129   9.907 -0.0343  0.0863 -0.1626
  217loPI   PO4 3460  13.428   3.533   9.656 -0.2295 -0.1442  0.2759
  217loPI   GL1 3461  13.254   3.492   9.219  0.3243  0.0640  0.1912
  217loPI   GL2 3462  13.019   3.610   9.335 -0.2329  0.0097  0.0655
  217loPI   C1A 3463  13.333   3.562   8.841 -0.0372  0.0197  0.3057
  217loPI   C2A 3464  13.695   3.455   8.568  0.1766  0.2259 -0.5594
  217loPI   C3A 3465  13.772   3.443   8.046 -0.2158  0.0485 -0.1759
  217loPI   C4A 3466  13.634   3.146   7.824  0.1003 -0.1281  0.3182
  217loPI   C5A 3467  13.261   2.900   8.028  0.1838 -0.1031 -0.2568
  217loPI   C6A 3468  12.791   2.779   8.088 -0.1410  0.1814 -0.1413
  217loPI   C1B 3469  12.879   3.790   8.880 -0.1468 -0.0838  0.3125
  217loPI   C2B 3470  13.048   3.735   8.461  0.1782 -0.0724 -0.0894
  217loPI   C3B 3471  13.040   3.898   8.068 -0.2386 -0.1309  0.2813
  217loPI   C4B 3472  12.738   3.824   7.700  0.0237  0.0578  0.0784
  218loPI    C1 3473  15.517  12.842  10.081 -0.0064 -0.1856 -0.3583
  218loPI    C2 3474  15.387  13.219  10.106 -0.3329 -0.3076 -0.1429
  218loPI    C3 3475  15.592  13.058  10.409  0.0780 -0.2098 -0.3614
  218loPI   PO4 3476  15.678  12.839   9.824  0.1169 -0.0439  0.0215
  218loPI   GL1 3477  15.585  12.751   9.362 -0.1881  0.3555 -0.2626
  218loPI   GL2 3478  15.568  12.967   9.288  0.0338  0.1522  0.1867
  218loPI   C1A 3479  15.323  12.552   8.997  0.1039  0.0459  0.1690
  218loPI   C2A 3480  15.156  12.574   8.614  0.2033 -0.0196  0.4200
  218loPI   C3A 3481  15.122  12.602   8.236 -0.0123 -0.0514  0.0912
  218loPI   C4A 3482  14.971  12.601   7.853 -0.2078  0.1396 -0.1225
  218loPI   C5A 3483  14.805  12.526   7.507 -0.1480  0.0236  0.0109
  218loPI   C6A 3484  14.618  12.200   7.187 -0.0216  0.1189  0.1687
  218loPI   C1B 3485  15.548  12.972   8.860  0.0480  0.1799 -0.0025
  218loPI   C2B 3486  15.513  12.806   8.472 -0.1574 -0.3195  0.0342
  218loPI   C3B 3487  15.520  12.833   8.026 -0.2496  0.2400 -0.1870
  218loPI   C4B 3488  15.416  12.807   7.722  0.0910 -0.1499  0.2122
  219loPI    C1 3489  14.199  17.901  10.245  0.2185  0.0172 -0.0835
  219loPI    C2 3490  14.216  18.230  10.471 -0.0091 -0.1810  0.2305
  219loPI    C3 3491  13.905  17.980  10.505  0.0953 -0.3615 -0.1008
  219loPI   PO4 3492  14.182  17.953  10.049  0.3246 -0.1266 -0.2306
  219loPI   GL1 3493  13.952  17.967   9.742  0.1668  0.2084  0.2165
  219loPI   GL2 3494  14.009  18.238   9.484 -0.0337 -0.1035 -0.2865
  219loPI   C1A 3495  14.126  17.790   9.351  0.0431  0.0249  0.1779
  219loPI   C2A 3496  14.227  17.704   8.968  0.2801  0.0539  0.1871
  219loPI   C3A 3497  14.103  17.776   8.469  0.1850 -0.0880 -0.4450
  219loPI   C4A 3498  13.993  17.866   8.058 -0.1236 -0.1575 -0.0727
  219loPI   C5A 3499  13.773  17.907   7.790 -0.0608  0.1107 -0.1662
  219loPI   C6A 3500  13.485  18.085   7.599  0.1182  0.1301  0.0421
  219loPI   C1B 3501  13.978  18.551   9.217 -0.1672 -0.0803  0.1137
  219loPI   C2B 3502  13.805  18.649   9.012 -0.0492  0.0704  0.2382
  219loPI   C3B 3503  13.730  18.460   8.623 -0.2594 -0.2409  0.1132
  219loPI   C4B 3504  13.715  18.121   8.399 -0.0351 -0.0704  0.2885
  220loPI    C1 3505  10.578  13.628  10.129  0.3902 -0.0462 -0.0279
  220loPI    C2 3506  10.607  13.382  10.442 -0.1952 -0.0311  0.0505
  220loPI    C3 3507  10.659  13.775  10.492 -0.1114 -0.0472  0.0921
  220loPI   PO4 3508  10.675  13.556   9.903 -0.1604 -0.2598  0.0995
  220loPI   GL1 3509  10.615  13.596   9.545  0.0494 -0.0033 -0.1492
  220loPI   GL2 3510  10.897  13.666   9.262 -0.2121  0.0573 -0.0415
  220loPI   C1A 3511  10.323  13.463   9.222 -0.0538 -0.2329 -0.1146
  220loPI   C2A 3512  10.368  13.280   8.850  0.0027  0.0253 -0.2349
  220loPI   C3A 3513  10.426  13.337   8.455 -0.3747  0.2063  0.0144
  220loPI   C4A 3514  10.705  13.636   8.196 -0.1272  0.1261 -0.0528
  220loPI   C5A 3515  10.873  13.594   7.846  0.0207 -0.2141 -0.0204
  220loPI   C6A 3516  10.684  13.314   7.584  0.2732  0.1333  0.0729
  220loPI   C1B 3517  10.791  13.529   8.953 -0.2349 -0.2384  0.1238
  220loPI   C2B 3518  10.535  13.709   8.735 -0.2167  0.0079  0.1798
  220loPI   C3B 3519  10.063  13.664   8.796 -0.2430  0.2161 -0.0082
  220loPI   C4B 3520   9.717  13.705   9.112  0.2405  0.2001  0.0175
  221loPI    C1 3521  10.238   9.620   9.878 -0.2706  0.0839  0.2214
  221loPI    C2 3522  10.529   9.716  10.135 -0.0567 -0.1138  0.0574
  221loPI    C3 3523  10.186   9.921  10.136  0.1447  0.2323  0.1412
  221loPI   PO4 3524  10.389   9.537   9.722  0.3554  0.0662  0.3108
  221loPI   GL1 3525  10.192   9.334   9.444 -0.1502  0.1142 -0.1882
  221loPI   GL2 3526   9.948   9.683   9.371  0.2676 -0.1625 -0.2338
  221loPI   C1A 3527  10.249   9.371   9.032  0.0491 -0.0128  0.0418
  221loPI   C2A 3528   9.940   9.359   8.654  0.1087  0.0386  0.2364
  221loPI   C3A 3529   9.732   9.639   8.355 -0.0453 -0.0350 -0.0793
  221loPI   C4A 3530   9.681   9.821   7.995 -0.0817  0.0791  0.2867
  221loPI   C5A 3531   9.550  10.093   7.675 -0.0570  0.1790  0.3353
  221loPI   C6A 3532   9.254  10.325   7.518 -0.1366  0.3861  0.0459
  221loPI   C1B 3533   9.774   9.449   9.169  0.1051 -0.2477  0.2331
  221loPI   C2B 3534   9.618   9.124   8.954  0.0593  0.0429  0.1628
  221loPI   C3B 3535   9.540   8.931   8.537 -0.2169  0.1920  0.1667
  221loPI   C4B 3536   9.370   9.138   8.183 -0.2506  0.1207  0.2629
  222loPI    C1 3537   8.635  10.658   9.725  0.1901 -0.1778  0.1064
  222loPI    C2 3538   8.431  10.373   9.531 -0.0455 -0.0381  0.1456
  222loPI    C3 3539   8.767  10.280   9.727 -0.1000 -0.2817  0.1265
  222loPI   PO4 3540   8.722  10.910   9.482  0.0407 -0.0335 -0.1872
  222loPI   GL1 3541   8.602  11.199   9.233 -0.1237 -0.3935 -0.3633
  222loPI   GL2 3542   8.581  11.439   9.427 -0.0979  0.0982  0.2962
  222loPI   C1A 3543   8.848  11.260   8.806 -0.1094 -0.0738  0.1130
  222loPI   C2A 3544   9.335  11.250   8.763  0.1484  0.4270  0.3016
  222loPI   C3A 3545   9.681  10.996   8.599  0.0314 -0.0561  0.0444
  222loPI   C4A 3546   9.920  10.678   8.352  0.3669 -0.1441 -0.1594
  222loPI   C5A 3547  10.101  10.606   7.993 -0.0008  0.0551 -0.1278
  222loPI   C6A 3548   9.942  10.493   7.600  0.3968  0.2479 -0.1292
  222loPI   C1B 3549   8.729  11.698   9.000  0.0172  0.3047 -0.2194
  222loPI   C2B 3550   8.666  11.996   8.708  0.0212 -0.1422 -0.0846
  222loPI   C3B 3551   8.622  12.087   8.263  0.1566 -0.0095  0.0103
  222loPI   C4B 3552   8.602  12.043   7.698 -0.2988  0.0495  0.1208
  223loPI    C1 3553   9.170  17.599   9.961  0.0069  0.1327  0.1115
  223loPI    C2 3554   9.351  17.400  10.257  0.0022 -0.0804 -0.0264
  223loPI    C3 3555   9.390  17.797  10.230 -0.0360 -0.0527  0.2860
  223loPI   PO4 3556   9.188  17.554   9.699  0.1947 -0.1856  0.2433
  223loPI   GL1 3557   8.977  17.492   9.320 -0.0364  0.0607  0.0167
  223loPI   GL2 3558   9.213  17.323   9.269  0.1097  0.1306 -0.1000
  223loPI   C1A 3559   9.045  17.525   8.869 -0.2348  0.1078 -0.2259
  223loPI   C2A 3560   9.138  17.523   8.500 -0.3581 -0.1118  0.1918
  223loPI   C3A 3561   9.123  17.607   7.981 -0.4879 -0.1651  0.1724
  223loPI   C4A 3562   9.037  17.469   7.534  0.3264 -0.1790 -0.3346
  223loPI   C5A 3563   9.093  17.541   7.242  0.5187 -0.1501  0.3142
  223loPI   C6A 3564   9.516  17.593   6.984  0.0419  0.4055 -0.1310
  223loPI   C1B 3565   9.628  17.457   9.222  0.0729 -0.0367  0.2607
  223loPI   C2B 3566  10.070  17.489   9.022  0.1204  0.0164  0.0267
  223loPI   C3B 3567  10.087  17.945   8.795 -0.0998  0.1500  0.3904
  223loPI   C4B 3568  10.185  18.341   8.832  0.0678  0.0319 -0.1349
  224loPI    C1 3569  18.094  13.639   9.637 -0.3303  0.1298 -0.1923
  224loPI    C2 3570  17.719  13.659   9.775 -0.2377 -0.1468  0.1142
  224loPI    C3 3571  18.019  13.563  10.022  0.0224 -0.0379 -0.1519
  224loPI   PO4 3572  18.004  13.857   9.373  0.0205  0.1400 -0.1620
  224loPI   GL1 3573  18.145  14.100   9.083  0.1342  0.1639  0.2175
  224loPI   GL2 3574  18.442  14.227   8.788 -0.3918  0.2294  0.3159
  224loPI   C1A 3575  17.962  14.032   8.700  0.0787 -0.3002  0.2410
  224loPI   C2A 3576  17.860  13.995   8.283 -0.3195  0.0016 -0.2111
  224loPI   C3A 3577  17.880  13.955   7.865 -0.1800 -0.0275 -0.4011
  224loPI   C4A 3578  17.838  13.653   7.603 -0.0575  0.1801  0.1231
  224loPI   C5A 3579  17.911  13.697   7.076  0.0959  0.2787 -0.1845
  224loPI   C6A 3580  17.976  13.958   6.830 -0.4506 -0.0577  0.2026
  224loPI   C1B 3581  18.341  14.121   8.364 -0.0773 -0.1122 -0.1481
  224loPI   C2B 3582  18.385  14.063   7.985  0.1460  0.0843  0.4210
  224loPI   C3B 3583  18.416  14.258   7.599 -0.1204  0.1062 -0.0249
  224loPI   C4B 3584  18.264  14.256   7.147 -0.2917 -0.2053 -0.0515
  225loPI    C1 3585   0.700   8.857   9.749 -0.0600 -0.0505 -0.2488
  225loPI    C2 3586   1.028   9.081   9.798 -0.0925 -0.0236 -0.1519
  225loPI    C3 3587   0.828   8.946  10.118 -0.1016 -0.1492 -0.2101
  225loPI   PO4 3588   0.742   8.747   9.533 -0.3728  0.0887  0.0926
  225loPI   GL1 3589   0.482   8.703   9.246 -0.1501  0.2648 -0.3658
  225loPI   GL2 3590   0.721   8.632   8.998  0.0444 -0.1723 -0.4260
  225loPI   C1A 3591   0.153   8.655   8.819  0.1284  0.0692  0.0071
  225loPI   C2A 3592   0.035   8.716   8.358  0.2625 -0.0532 -0.0526
  225loPI   C3A 3593  -0.039   8.546   8.007  0.1130  0.2151 -0.0518
  225loPI   C4A 3594  -0.050   8.493   7.495 -0.2267 -0.0671  0.3461
  225loPI   C5A 3595  -0.452   8.663   7.320 -0.0211  0.0959 -0.3329
  225loPI   C6A 3596  -0.874   8.674   7.373 -0.4091 -0.0962 -0.0898
  225loPI   C1B 3597   0.656   8.589   8.645 -0.0117 -0.1895 -0.2648
  225loPI   C2B 3598   0.917   8.770   8.271 -0.2250  0.1045  0.3577
  225loPI   C3B 3599   1.228   8.757   7.976 -0.2423 -0.2070 -0.2002
  225loPI   C4B 3600   1.413   8.641   7.593  0.0668 -0.4095 -0.1266
  226loPI    C1 3601   2.677   7.436  10.107  0.1398  0.0714 -0.0426
  226loPI    C2 3602   2.533   7.412  10.480  0.1963  0.0081 -0.0246
  226loPI    C3 3603   2.751   7.112  10.330  0.1638  0.0284 -0.1129
  226loPI   PO4 3604   2.441   7.545   9.863 -0.3692  0.2477 -0.4292
  226loPI   GL1 3605   2.310   7.488   9.401  0.0182 -0.0694 -0.3711
  226loPI   GL2 3606   2.394   7.137   9.286  0.2641  0.2742 -0.0126
  226loPI   C1A 3607   2.368   7.631   9.013 -0.0154 -0.0517  0.1692
  226loPI   C2A 3608   2.180   7.846   8.681 -0.1030  0.2456 -0.0353
  226loPI   C3A 3609   1.981   7.733   8.360  0.1403  0.3063 -0.1928
  226loPI   C4A 3610   2.006   7.744   7.892  0.2474  0.5562  0.1075
  226loPI   C5A 3611   2.332   7.564   7.748  0.2989 -0.0594  0.2895
  226loPI   C6A 3612   2.665   7.226   7.917 -0.2084 -0.2310 -0.2419
  226loPI   C1B 3613   2.026   6.970   9.073  0.1045  0.1782  0.3080
  226loPI   C2B 3614   2.036   6.820   8.617  0.1881 -0.0716 -0.3109
  226loPI   C3B 3615   2.280   6.832   8.126  0.4623 -0.2229 -0.0430
  226loPI   C4B 3616   2.370   6.846   7.660 -0.2701 -0.0586 -0.2540
  227loPI    C1 3617   2.090   4.324  10.511 -0.4862 -0.0766 -0.2601
  227loPI    C2 3618   1.897   4.298  10.860 -0.1744 -0.1828 -0.0911
  227loPI    C3 3619   1.948   4.655  10.685  0.1935 -0.0459  0.2796
  227loPI   PO4 3620   2.340   4.153  10.555  0.0617  0.3349  0.0399
  227loPI   GL1 3621   2.752   4.137  10.220 -0.0238 -0.2264 -0.0017
  227loPI   GL2 3622   2.710   4.422  10.040 -0.0949  0.1601 -0.0128
  227loPI   C1A 3623   2.658   3.797   9.875  0.0784  0.0581 -0.1252
  227loPI   C2A 3624   2.246   3.748   9.700  0.1681  0.1773  0.0890
  227loPI   C3A 3625   2.184   3.635   9.293 -0.1767 -0.1617  0.0701
  227loPI   C4A 3626   2.168   3.690   8.868 -0.3757  0.0904 -0.1902
  227loPI   C5A 3627   2.428   3.775   8.376  0.0913  0.1205 -0.3711
  227loPI   C6A 3628   2.848   3.842   8.217  0.1982  0.0284  0.0145
  227loPI   C1B 3629   2.771   4.232   9.597 -0.0276 -0.4670 -0.4600
  227loPI   C2B 3630   2.733   3.916   9.370  0.2796  0.1027 -0.1541
  227loPI   C3B 3631   2.623   3.630   9.117  0.4325  0.0217 -0.2214
  227loPI   C4B 3632   2.653   3.421   8.612  0.1328 -0.2651  0.0011
  228loPI    C1 3633   7.736   2.750   9.959 -0.1810  0.3102  0.0327
  228loPI    C2 3634   7.942   3.081   9.865 -0.2268  0.3248 -0.0164
  228loPI    C3 3635   7.970   2.925  10.232 -0.0558  0.2739 -0.0504
  228loPI   PO4 3636   7.433   2.807   9.893 -0.1653  0.4391  0.0801
  228loPI   GL1 3637   7.393   3.032   9.426  0.1985  0.1375 -0.1408
  228loPI   GL2 3638   7.650   3.275   9.366  0.0935 -0.0027 -0.1419
  228loPI   C1A 3639   7.110   2.855   9.077  0.2057 -0.0104 -0.0382
  228loPI   C2A 3640   6.869   2.713   8.791  0.1950  0.3053 -0.2244
  228loPI   C3A 3641   6.700   2.520   8.591  0.0124  0.3020  0.0679
  228loPI   C4A 3642   6.798   2.392   8.172  0.3500  0.0586 -0.0929
  228loPI   C5A 3643   6.770   2.226   7.709 -0.3178  0.2135  0.1458
  228loPI   C6A 3644   7.111   1.991   7.413  0.1496 -0.2539  0.2888
  228loPI   C1B 3645   7.471   3.108   8.908  0.1491  0.0007 -0.1876
  228loPI   C2B 3646   7.224   2.975   8.556  0.2066 -0.2397 -0.0088
  228loPI   C3B 3647   6.988   3.017   8.144  0.2184 -0.1724 -0.1425
  228loPI   C4B 3648   7.053   3.013   7.727  0.0341  0.1009  0.0390
  229loPI    C1 3649  14.838  12.556  10.045 -0.1569  0.0123  0.1356
  229loPI    C2 3650  14.757  12.622   9.659 -0.3401  0.4309  0.2406
  229loPI    C3 3651  14.832  12.251   9.787 -0.0759  0.3143 -0.2316
  229loPI   PO4 3652  15.056  12.744  10.081  0.3803  0.2682 -0.0184
  229loPI   GL1 3653  15.197  12.933   9.738  0.4365 -0.0695 -0.0045
  229loPI   GL2 3654  15.080  13.146   9.698 -0.0463 -0.0688 -0.1199
  229loPI   C1A 3655  15.095  12.847   9.240  0.1839  0.3357 -0.1888
  229loPI   C2A 3656  14.787  12.797   8.961 -0.0080 -0.1846 -0.1508
  229loPI   C3A 3657  14.646  12.715   8.579  0.3639  0.1231 -0.5789
  229loPI   C4A 3658  14.657  12.750   8.156 -0.0315  0.2008 -0.3541
  229loPI   C5A 3659  14.441  12.804   7.728  0.0362  0.1872 -0.0048
  229loPI   C6A 3660  14.082  13.132   7.557  0.0530 -0.0449  0.3081
  229loPI   C1B 3661  15.242  13.311   9.302  0.2130 -0.1353 -0.0579
  229loPI   C2B 3662  15.192  13.283   8.941  0.0710 -0.2430  0.0465
  229loPI   C3B 3663  15.081  13.075   8.524 -0.1228  0.1001  0.2454
  229loPI   C4B 3664  15.114  13.065   8.079 -0.2664 -0.1940 -0.4455
  230loPI    C1 3665  16.420  13.036   9.561 -0.1191 -0.1065  0.0535
  230loPI    C2 3666  16.574  13.089   9.927 -0.1377 -0.0486  0.0531
  230loPI    C3 3667  16.196  12.964   9.885 -0.2004  0.1380  0.0537
  230loPI   PO4 3668  16.475  13.267   9.455  0.0562 -0.2176  0.1675
  230loPI   GL1 3669  16.699  13.242   9.080 -0.0913  0.2247  0.2065
  230loPI   GL2 3670  16.723  13.563   9.123  0.0015 -0.0542 -0.2345
  230loPI   C1A 3671  16.965  13.147   8.706 -0.1151  0.0040  0.0199
  230loPI   C2A 3672  16.900  13.374   8.326 -0.0412  0.1227  0.0152
  230loPI   C3A 3673  16.940  13.223   7.922  0.4427  0.0168  0.0428
  230loPI   C4A 3674  17.004  13.305   7.524  0.0259 -0.1989  0.0237
  230loPI   C5A 3675  16.868  13.390   7.097  0.1034 -0.1316 -0.0062
  230loPI   C6A 3676  16.585  13.723   6.858 -0.1391  0.1036  0.0699
  230loPI   C1B 3677  16.684  13.732   8.731 -0.1308  0.0035 -0.1255
  230loPI   C2B 3678  16.695  13.835   8.318  0.0641  0.0784 -0.2981
  230loPI   C3B 3679  16.732  13.715   7.859 -0.1573  0.0595  0.0362
  230loPI   C4B 3680  16.708  13.770   7.424  0.1429 -0.1674  0.2197
  231loPI    C1 3681  16.339  18.114   9.696 -0.1197 -0.3479  0.0970
  231loPI    C2 3682  16.436  17.949   9.345 -0.1951  0.0038 -0.0935
  231loPI    C3 3683  16.701  17.952   9.644  0.0227  0.0745 -0.2847
  231loPI   PO4 3684  16.077  18.113   9.674 -0.0552 -0.0176 -0.1768
  231loPI   GL1 3685  15.768  18.231   9.400  0.1862 -0.1690  0.0601
  231loPI   GL2 3686  16.014  18.008   9.146 -0.0598  0.2121 -0.1320
  231loPI   C1A 3687  15.482  18.314   9.146 -0.1059  0.0189 -0.3056
  231loPI   C2A 3688  15.389  18.500   8.710  0.1179 -0.2384 -0.2766
  231loPI   C3A 3689  15.333  18.693   8.403  0.1990 -0.2418 -0.1776
  231loPI   C4A 3690  15.174  18.751   7.877  0.0141 -0.0276  0.0403
  231loPI   C5A 3691  15.171  18.729   7.449 -0.4664 -0.3698  0.0483
  231loPI   C6A 3692  15.217  19.064   7.102  0.0281 -0.2872 -0.0795
  231loPI   C1B 3693  15.841  18.291   8.834 -0.0472  0.0531  0.0416
  231loPI   C2B 3694  15.698  18.280   8.389 -0.2370  0.0176  0.0221
  231loPI   C3B 3695  15.651  18.461   7.936 -0.1772 -0.0559 -0.1682
  231loPI   C4B 3696  15.781  18.467   7.496  0.3479  0.0785 -0.1507
  232loPI    C1 3697  11.484   0.968  10.091 -0.1303  0.0926 -0.1317
  232loPI    C2 3698  11.183   1.172  10.257  0.1652  0.4023  0.0354
  232loPI    C3 3699  11.442   0.973  10.489  0.1349  0.1991 -0.1028
  232loPI   PO4 3700  11.413   0.755   9.835 -0.1906 -0.2450 -0.1011
  232loPI   GL1 3701  11.386   0.753   9.338  0.1061  0.0136 -0.3048
  232loPI   GL2 3702  11.152   0.991   9.173 -0.0090 -0.0791 -0.0579
  232loPI   C1A 3703  11.294   0.446   9.022  0.1908 -0.0900 -0.3014
  232loPI   C2A 3704  11.305   0.258   8.663  0.1017  0.3168  0.2483
  232loPI   C3A 3705  11.540   0.118   8.311 -0.0684 -0.1793 -0.0310
  232loPI   C4A 3706  11.653   0.207   7.937  0.0408  0.1665 -0.2291
  232loPI   C5A 3707  11.700   0.479   7.651 -0.1163  0.1605 -0.1596
  232loPI   C6A 3708  11.617   0.926   7.507  0.1903  0.0996  0.0353
  232loPI   C1B 3709  11.287   0.856   8.782 -0.1820 -0.0926  0.0480
  232loPI   C2B 3710  11.085   0.691   8.430 -0.0285  0.3589 -0.2733
  232loPI   C3B 3711  11.113   0.374   8.060  0.4039  0.1547 -0.1395
  232loPI   C4B 3712  10.832   0.214   7.724 -0.1874 -0.3796  0.2005
  233loPI    C1 3713   3.873   3.639  10.410 -0.2908 -0.3134  0.0364
  233loPI    C2 3714   4.174   3.537  10.653 -0.0529  0.0379 -0.1032
  233loPI    C3 3715   3.807   3.594  10.802 -0.0254 -0.2641  0.0882
  233loPI   PO4 3716   3.954   3.567  10.172 -0.1128 -0.0434 -0.1204
  233loPI   GL1 3717   4.153   3.319   9.807  0.3277 -0.0865 -0.0965
  233loPI   GL2 3718   4.391   3.122   9.621 -0.1814 -0.0471 -0.0495
  233loPI   C1A 3719   4.290   3.553   9.375  0.4598 -0.2850  0.2972
  233loPI   C2A 3720   4.352   3.439   8.975 -0.2376 -0.2470 -0.1300
  233loPI   C3A 3721   4.669   3.484   8.603  0.0097 -0.0172 -0.1388
  233loPI   C4A 3722   4.815   3.447   8.167  0.0834  0.1315 -0.2516
  233loPI   C5A 3723   5.001   3.532   7.824 -0.2422  0.1970  0.1970
  233loPI   C6A 3724   4.864   3.771   7.518  0.1677  0.1317 -0.0269
  233loPI   C1B 3725   4.339   2.994   9.222  0.1720  0.1906 -0.0497
  233loPI   C2B 3726   4.376   2.961   8.797  0.3326 -0.1970  0.1046
  233loPI   C3B 3727   4.535   3.047   8.333  0.2167  0.1778  0.0984
  233loPI   C4B 3728   4.346   3.144   7.943  0.1674 -0.1798 -0.4323
  234loPI    C1 3729   0.202   0.989   9.651  0.1719 -0.1909 -0.0724
  234loPI    C2 3730   0.325   0.815   9.990  0.0387 -0.0411  0.0551
  234loPI    C3 3731   0.498   0.720   9.641 -0.1488 -0.5619  0.0941
  234loPI   PO4 3732  -0.127   0.883   9.632 -0.0099  0.0203 -0.0299
  234loPI   GL1 3733  -0.053   0.583   9.312  0.0066  0.0725 -0.2915
  234loPI   GL2 3734   0.189   0.600   9.304 -0.5869  0.0538  0.0674
  234loPI   C1A 3735  -0.175   0.724   8.954  0.2784  0.2134 -0.1123
  234loPI   C2A 3736  -0.140   0.750   8.468 -0.1007 -0.0524  0.3758
  234loPI   C3A 3737  -0.335   0.613   8.145 -0.1096  0.1436  0.3043
  234loPI   C4A 3738  -0.717   0.549   7.756 -0.3225 -0.2209  0.0390
  234loPI   C5A 3739  -1.066   0.709   7.449 -0.0752 -0.2654  0.4070
  234loPI   C6A 3740  -1.332   0.721   7.094 -0.0083  0.1420  0.0010
  234loPI   C1B 3741   0.387   0.695   8.828  0.1975  0.0520 -0.2683
  234loPI   C2B 3742   0.388   0.779   8.384  0.1457 -0.0198  0.3175
  234loPI   C3B 3743   0.106   1.025   8.109 -0.0642 -0.0081 -0.1469
  234loPI   C4B 3744  -0.034   0.779   7.733 -0.1860  0.1467  0.0685
  235loPI    C1 3745  18.593   7.787   9.901 -0.2796  0.0110  0.1729
  235loPI    C2 3746  18.776   8.096  10.078  0.2635 -0.1212 -0.1362
  235loPI    C3 3747  18.777   7.737  10.253  0.0247 -0.0533  0.0084
  235loPI   PO4 3748  18.709   7.764   9.633  0.2758 -0.3637 -0.2971
  235loPI   GL1 3749  18.556   7.442   9.340 -0.1568 -0.0147  0.1537
  235loPI   GL2 3750  18.579   7.765   9.123  0.3738  0.0261 -0.2147
  235loPI   C1A 3751  18.742   7.268   8.947  0.0881 -0.0449  0.0755
  235loPI   C2A 3752  18.950   7.482   8.489 -0.2738 -0.1916 -0.0916
  235loPI   C3A 3753  18.720   7.668   8.210  0.0470 -0.0355  0.0082
  235loPI   C4A 3754  18.726   7.633   7.733 -0.4376  0.0894  0.2910
  235loPI   C5A 3755  18.720   7.546   7.324  0.0819  0.2674 -0.0457
  235loPI   C6A 3756  19.039   7.279   7.187  0.1124  0.0289  0.0120
  235loPI   C1B 3757  18.522   7.662   8.756 -0.1414 -0.1831 -0.1831
  235loPI   C2B 3758  18.512   7.274   8.485  0.0081 -0.0675  0.2399
  235loPI   C3B 3759  18.326   7.041   8.132 -0.2668  0.1956  0.0377
  235loPI   C4B 3760  18.452   6.754   7.790  0.0770  0.0559  0.0915
  236loPI    C1 3761  11.810  17.208  10.148 -0.1345  0.0076 -0.2113
  236loPI    C2 3762  11.866  16.814  10.108  0.0892 -0.0098  0.2129
  236loPI    C3 3763  11.498  16.959  10.166  0.0100 -0.1573  0.0860
  236loPI   PO4 3764  11.958  17.295   9.983 -0.0361 -0.1781 -0.1261
  236loPI   GL1 3765  12.214  17.134   9.702 -0.2080 -0.1840  0.0206
  236loPI   GL2 3766  12.048  16.897   9.660  0.1628 -0.0761 -0.2036
  236loPI   C1A 3767  12.134  17.051   9.206 -0.1538  0.1506 -0.0206
  236loPI   C2A 3768  12.011  17.105   8.729 -0.1265 -0.1870  0.0643
  236loPI   C3A 3769  12.111  17.014   8.264 -0.1000  0.2983 -0.0564
  236loPI   C4A 3770  12.134  17.061   7.796 -0.3413 -0.2100  0.2814
  236loPI   C5A 3771  12.366  17.010   7.310  0.0091  0.0435 -0.0618
  236loPI   C6A 3772  12.587  16.710   7.111 -0.0431  0.3243  0.1707
  236loPI   C1B 3773  11.654  16.940   9.420 -0.0375 -0.1163  0.1253
  236loPI   C2B 3774  11.550  17.115   9.056  0.1996  0.0768 -0.3774
  236loPI   C3B 3775  11.491  17.357   8.814 -0.0746 -0.0499  0.3056
  236loPI   C4B 3776  11.366  17.665   8.585 -0.0305  0.2337  0.1824
  237loPI    C1 3777  13.752   8.110   9.787  0.2972  0.1614 -0.0388
  237loPI    C2 3778  13.952   8.451   9.847  0.0752  0.2991 -0.0693
  237loPI    C3 3779  13.810   8.245  10.159  0.0379  0.3391 -0.0598
  237loPI   PO4 3780  13.634   8.180   9.486  0.0373 -0.0636  0.0156
  237loPI   GL1 3781  13.590   8.063   9.032 -0.5360  0.0465 -0.1561
  237loPI   GL2 3782  13.819   7.823   9.135 -0.0539  0.0550  0.1264
  237loPI   C1A 3783  13.799   7.944   8.665  0.0176  0.2039  0.0285
  237loPI   C2A 3784  13.964   7.796   8.170 -0.3188 -0.2145 -0.2504
  237loPI   C3A 3785  14.085   7.908   7.741  0.1953 -0.2641  0.1408
  237loPI   C4A 3786  13.967   7.914   7.275  0.1213  0.4405  0.1356
  237loPI   C5A 3787  14.143   7.937   6.857  0.1539 -0.1273 -0.1447
  237loPI   C6A 3788  14.250   8.061   6.560 -0.1251 -0.1992 -0.1346
  237loPI   C1B 3789  14.262   7.831   8.922  0.0190 -0.0865  0.2298
  237loPI   C2B 3790  14.341   7.960   8.681 -0.0897 -0.0290  0.0670
  237loPI   C3B 3791  14.594   7.939   8.326  0.1952  0.1202  0.0012
  237loPI   C4B 3792  14.587   7.971   8.033 -0.1464  0.1665 -0.0483
  238loPI    C1 3793   0.220   4.853  10.340 -0.1823  0.1341 -0.0676
  238loPI    C2 3794   0.498   4.881  10.626 -0.1016 -0.2172 -0.1073
  238loPI    C3 3795   0.114   4.953  10.712 -0.0826 -0.3555  0.0994
  238loPI   PO4 3796   0.163   4.656  10.162 -0.1394 -0.2907  0.0312
  238loPI   GL1 3797   0.511   4.681   9.759 -0.3450 -0.1182 -0.0820
  238loPI   GL2 3798   0.394   5.022   9.623 -0.0493 -0.2289 -0.0115
  238loPI   C1A 3799   0.620   4.658   9.392  0.2397 -0.0632 -0.0348
  238loPI   C2A 3800   0.667   4.478   9.041 -0.0154 -0.0611  0.1499
  238loPI   C3A 3801   0.751   4.621   8.588 -0.1502 -0.1132 -0.1659
  238loPI   C4A 3802   0.849   4.626   8.200 -0.1552  0.1391  0.1221
  238loPI   C5A 3803   0.872   4.639   7.831  0.0385  0.0062 -0.0641
  238loPI   C6A 3804   0.825   4.503   7.471 -0.1766  0.3151 -0.3782
  238loPI   C1B 3805   0.416   5.378   9.308  0.1404  0.0610 -0.1730
  238loPI   C2B 3806   0.493   5.456   8.965  0.0177  0.2309 -0.4616
  238loPI   C3B 3807   0.222   5.510   8.500 -0.0376  0.3277  0.2469
  238loPI   C4B 3808  -0.045   5.304   8.166  0.0118 -0.0967 -0.1675
  239loPI    C1 3809  14.016  11.238   9.918  0.1554 -0.1245 -0.3159
  239loPI    C2 3810  13.864  10.994  10.196  0.1526  0.0858 -0.1291
  239loPI    C3 3811  13.628  11.260  10.013  0.2039  0.1091 -0.1617
  239loPI   PO4 3812  14.085  11.126   9.739  0.0344  0.0653  0.1346
  239loPI   GL1 3813  14.024  11.164   9.323 -0.2797 -0.1078  0.3657
  239loPI   GL2 3814  14.269  11.061   9.176 -0.2227  0.2429  0.1129
  239loPI   C1A 3815  14.004  10.780   8.876 -0.2026 -0.3206  0.3866
  239loPI   C2A 3816  13.770  10.540   8.563  0.0013 -0.1906  0.1487
  239loPI   C3A 3817  13.553  10.312   8.226  0.0599  0.1753  0.1524
  239loPI   C4A 3818  13.509  10.227   7.813  0.3116  0.1114 -0.0998
  239loPI   C5A 3819  13.459  10.086   7.425 -0.4231  0.2726  0.1003
  239loPI   C6A 3820  13.071   9.880   7.272 -0.2673 -0.0751  0.1976
  239loPI   C1B 3821  14.269  11.231   8.810  0.2612  0.1580  0.0408
  239loPI   C2B 3822  14.249  11.385   8.525 -0.0825  0.0861  0.0237
  239loPI   C3B 3823  14.304  11.190   8.209 -0.3180 -0.0550 -0.2169
  239loPI   C4B 3824  14.246  10.955   7.881  0.1318  0.1819  0.2594
  240loPI    C1 3825   1.011   2.645  10.302 -0.1565  0.1642 -0.0489
  240loPI    C2 3826   1.397   2.745  10.283 -0.1496  0.1388 -0.0436
  240loPI    C3 3827   1.121   3.025  10.359 -0.1428  0.1767 -0.1563
  240loPI   PO4 3828   0.898   2.594  10.156 -0.0339  0.0899 -0.1959
  240loPI   GL1 3829   0.757   2.530   9.658  0.3815  0.1384  0.2950
  240loPI   GL2 3830   0.785   2.748   9.626  0.0176 -0.0828 -0.1052
  240loPI   C1A 3831   0.591   2.598   9.246  0.2366  0.0894  0.0571
  240loPI   C2A 3832   0.563   2.605   8.839  0.0619  0.0035  0.0656
  240loPI   C3A 3833   0.397   2.867   8.565 -0.2815 -0.2544 -0.0278
  240loPI   C4A 3834   0.584   3.078   8.264  0.1413 -0.1141 -0.1656
  240loPI   C5A 3835   0.607   3.127   7.873 -0.0680 -0.1621  0.3134
  240loPI   C6A 3836   0.901   3.398   7.582  0.3736  0.2989 -0.3223
  240loPI   C1B 3837   1.040   2.832   9.227 -0.2558  0.1578 -0.0304
  240loPI   C2B 3838   1.037   2.769   8.901 -0.2418 -0.2025 -0.1902
  240loPI   C3B 3839   1.126   2.539   8.514 -0.2460 -0.1648 -0.2764
  240loPI   C4B 3840   1.409   2.529   8.176 -0.0215  0.0242  0.0560
  241loPI    C1 3841  13.007   7.415   9.803 -0.0484 -0.3067 -0.1518
  241loPI    C2 3842  12.620   7.358   9.883 -0.0220 -0.0087  0.2157
  241loPI    C3 3843  12.896   7.126  10.056 -0.0235 -0.0812  0.1216
  241loPI   PO4 3844  13.030   7.439   9.587  0.1415 -0.2996  0.3180
  241loPI   GL1 3845  12.827   7.476   9.243 -0.3396 -0.2695 -0.1427
  241loPI   GL2 3846  13.050   7.242   9.096 -0.0261 -0.1791  0.3063
  241loPI   C1A 3847  12.773   7.606   8.804  0.0086 -0.0692 -0.0323
  241loPI   C2A 3848  12.765   7.858   8.420 -0.0421 -0.4823 -0.0718
  241loPI   C3A 3849  13.043   8.181   8.154 -0.4206  0.1540  0.0904
  241loPI   C4A 3850  13.179   8.049   7.735 -0.1167 -0.1276 -0.0826
  241loPI   C5A 3851  13.540   7.695   7.584 -0.2511 -0.1617 -0.1705
  241loPI   C6A 3852  13.887   7.452   7.606 -0.2000  0.1484 -0.0255
  241loPI   C1B 3853  13.126   7.291   8.667 -0.4773  0.3559 -0.0713
  241loPI   C2B 3854  12.825   7.141   8.271  0.0819 -0.0890 -0.0820
  241loPI   C3B 3855  12.857   7.154   7.857 -0.1062 -0.2700 -0.2348
  241loPI   C4B 3856  13.010   6.953   7.586 -0.2817  0.1950 -0.2343
  242loPI    C1 3857  12.482  13.614  10.224 -0.1839 -0.1313 -0.1579
  242loPI    C2 3858  12.710  13.714   9.911  0.0104 -0.0373  0.0111
  242loPI    C3 3859  12.544  14.000  10.137 -0.0447 -0.1041  0.0554
  242loPI   PO4 3860  12.366  13.407  10.123  0.0227  0.3183  0.0052
  242loPI   GL1 3861  12.430  13.445   9.581  0.1251 -0.2905 -0.1142
  242loPI   GL2 3862  12.621  13.306   9.378  0.2771  0.0675 -0.2182
  242loPI   C1A 3863  12.434  13.752   9.227 -0.0313  0.0056 -0.1604
  242loPI   C2A 3864  12.426  13.813   8.756  0.1218  0.0407  0.1846
  242loPI   C3A 3865  12.343  13.930   8.393  0.0972 -0.1377  0.3347
  242loPI   C4A 3866  12.221  14.270   8.034  0.2957 -0.2605  0.1125
  242loPI   C5A 3867  12.182  14.197   7.605 -0.0433 -0.3521 -0.0460
  242loPI   C6A 3868  12.115  14.430   7.232 -0.0326 -0.1841 -0.4424
  242loPI   C1B 3869  12.771  13.440   8.958  0.1860  0.2001 -0.0920
  242loPI   C2B 3870  12.754  13.476   8.537  0.1242 -0.1046 -0.1427
  242loPI   C3B 3871  12.796  13.795   8.200  0.2810  0.0692  0.0957
  242loPI   C4B 3872  12.555  13.806   7.972  0.4604  0.1769 -0.0892
  243loPI    C1 3873   3.260  16.502   9.825  0.0239 -0.0269  0.0657
  243loPI    C2 3874   3.430  16.520  10.186  0.0594 -0.0475  0.0501
  243loPI    C3 3875   3.036  16.574  10.148  0.0986  0.2632  0.0557
  243loPI   PO4 3876   3.264  16.287   9.702  0.1504  0.2118 -0.1100
  243loPI   GL1 3877   3.407  16.127   9.364 -0.0913 -0.1580  0.0309
  243loPI   GL2 3878   3.548  16.406   9.334  0.0363 -0.0882  0.1096
  243loPI   C1A 3879   3.504  16.029   8.921 -0.5071 -0.0735 -0.0846
  243loPI   C2A 3880   3.540  16.058   8.435  0.0641 -0.0363  0.1738
  243loPI   C3A 3881   3.772  15.967   8.120  0.1030 -0.0890  0.3161
  243loPI   C4A 3882   3.944  16.009   7.733  0.1235  0.3877  0.0131
  243loPI   C5A 3883   3.719  16.391   7.485 -0.0719 -0.1033 -0.0586
  243loPI   C6A 3884   3.686  16.775   7.184 -0.1058 -0.3284  0.0704
  243loPI   C1B 3885   3.477  16.511   8.886  0.1796 -0.2542 -0.1633
  243loPI   C2B 3886   3.542  16.743   8.495 -0.1076  0.2564 -0.1058
  243loPI   C3B 3887   3.584  16.791   8.035  0.2053  0.3942 -0.2895
  243loPI   C4B 3888   3.762  17.056   7.675 -0.0336  0.0461 -0.4143
  244loPI    C1 3889   1.547  16.970   9.523 -0.3849 -0.0369 -0.2195
  244loPI    C2 3890   1.359  17.138   9.833  0.0387 -0.1497  0.1079
  244loPI    C3 3891   1.578  16.807   9.887  0.3930  0.0198 -0.2438
  244loPI   PO4 3892   1.426  16.970   9.301 -0.0051 -0.3381 -0.1206
  244loPI   GL1 3893   1.339  16.935   8.896  0.4095  0.0163 -0.0130
  244loPI   GL2 3894   1.596  16.696   8.674 -0.3722 -0.0111 -0.1878
  244loPI   C1A 3895   1.255  17.097   8.441  0.0394  0.0024 -0.1023
  244loPI   C2A 3896   1.301  17.182   7.942  0.0307  0.1118 -0.4346
  244loPI   C3A 3897   1.659  17.371   7.763  0.1342  0.2849  0.1749
  244loPI   C4A 3898   1.787  17.636   7.353  0.1034  0.0946  0.0060
  244loPI   C5A 3899   2.147  17.832   7.046  0.2540  0.0356  0.1080
  244loPI   C6A 3900   2.038  18.132   6.728  0.2614 -0.1135 -0.0020
  244loPI   C1B 3901   1.700  16.882   8.260  0.1275  0.1415  0.2738
  244loPI   C2B 3902   1.698  16.881   7.778 -0.3116 -0.0414 -0.0599
  244loPI   C3B 3903   1.682  16.983   7.375  0.1110  0.0715 -0.0775
  244loPI   C4B 3904   1.600  17.124   7.086  0.1050  0.0954 -0.1944
  245loPI    C1 3905   6.444  11.938   9.816 -0.0679 -0.1302  0.0088
  245loPI    C2 3906   6.715  11.758  10.048 -0.1146 -0.1997  0.0100
  245loPI    C3 3907   6.514  12.076  10.185  0.0241 -0.0980 -0.0205
  245loPI   PO4 3908   6.292  11.647   9.652 -0.0295  0.0015 -0.3596
  245loPI   GL1 3909   6.355  11.567   9.247 -0.3716  0.1977 -0.2348
  245loPI   GL2 3910   6.302  11.252   9.310  0.3479  0.0131  0.0593
  245loPI   C1A 3911   6.372  11.516   8.860  0.0651 -0.3314 -0.1471
  245loPI   C2A 3912   6.353  11.554   8.470 -0.0443  0.1178 -0.1484
  245loPI   C3A 3913   6.623  11.519   8.140  0.1967  0.2385  0.2152
  245loPI   C4A 3914   6.949  11.425   7.872 -0.0699 -0.1224  0.0136
  245loPI   C5A 3915   7.239  11.355   7.487 -0.0981  0.4144  0.0745
  245loPI   C6A 3916   7.462  11.044   7.309 -0.1015  0.2083 -0.1218
  245loPI   C1B 3917   6.527  11.060   8.861 -0.0603  0.2487  0.1546
  245loPI   C2B 3918   6.600  11.084   8.452  0.1912 -0.3168  0.2767
  245loPI   C3B 3919   6.632  10.968   7.928  0.3200 -0.3685 -0.1214
  245loPI   C4B 3920   7.064  10.963   7.837 -0.0312 -0.2299  0.1085
  246loPI    C1 3921  15.359   5.956   9.459  0.0079  0.3004  0.0175
  246loPI    C2 3922  15.259   6.334   9.541 -0.1449  0.1790  0.4153
  246loPI    C3 3923  15.328   6.077   9.839 -0.0573 -0.1123  0.1485
  246loPI   PO4 3924  15.221   5.796   9.260 -0.1415  0.1421 -0.1315
  246loPI   GL1 3925  15.248   5.825   8.884 -0.0737  0.1022 -0.0104
  246loPI   GL2 3926  14.870   5.847   8.914  0.0655  0.1425 -0.1118
  246loPI   C1A 3927  15.406   5.470   8.620  0.1972 -0.0532 -0.0445
  246loPI   C2A 3928  15.448   5.303   8.258 -0.0623  0.2252  0.0902
  246loPI   C3A 3929  15.332   5.167   7.882 -0.3302 -0.0882  0.1551
  246loPI   C4A 3930  15.357   5.298   7.461 -0.1430  0.1906 -0.1881
  246loPI   C5A 3931  15.212   5.372   7.054 -0.0240 -0.1072  0.2615
  246loPI   C6A 3932  15.289   5.399   6.631  0.1031  0.0297  0.0230
  246loPI   C1B 3933  14.926   5.731   8.490 -0.1387  0.1438  0.0316
  246loPI   C2B 3934  14.966   5.533   8.140  0.1061 -0.1304 -0.1636
  246loPI   C3B 3935  14.999   5.453   7.746  0.0153  0.2189  0.2185
  246loPI   C4B 3936  14.734   5.470   7.323  0.2306  0.0106 -0.0778
  247loPI    C1 3937   3.528   8.510  10.113  0.1001 -0.0407 -0.0600
  247loPI    C2 3938   3.794   8.622  10.390  0.0280 -0.4722  0.1934
  247loPI    C3 3939   3.439   8.476  10.501 -0.2571 -0.0597 -0.1405
  247loPI   PO4 3940   3.689   8.326   9.828  0.0053 -0.2030 -0.2141
  247loPI   GL1 3941   3.646   8.251   9.383 -0.0344  0.1325  0.2401
  247loPI   GL2 3942   3.389   8.196   9.443  0.2171  0.0647 -0.1334
  247loPI   C1A 3943   3.723   8.442   9.093 -0.1579 -0.0562 -0.0626
  247loPI   C2A 3944   3.691   8.551   8.635  0.1802  0.1061  0.3391
  247loPI   C3A 3945   3.754   8.730   8.197 -0.3383 -0.0411 -0.1175
  247loPI   C4A 3946   3.502   8.798   7.892  0.1864  0.0376  0.1791
  247loPI   C5A 3947   3.279   8.692   7.642  0.0632  0.1552  0.1522
  247loPI   C6A 3948   3.067   8.943   7.406 -0.0429 -0.0945  0.2113
  247loPI   C1B 3949   3.120   8.102   9.070  0.0184  0.1593 -0.2055
  247loPI   C2B 3950   3.152   7.995   8.768 -0.0109 -0.0942  0.1330
  247loPI   C3B 3951   3.051   8.035   8.306 -0.1810  0.0345  0.1681
  247loPI   C4B 3952   3.214   8.220   7.929  0.1159  0.0526 -0.0020
  248loPI    C1 3953  15.240  14.003   9.885 -0.3767 -0.0966  0.1199
  248loPI    C2 3954  15.533  14.000  10.156 -0.0356  0.1294 -0.2362
  248loPI    C3 3955  15.210  13.770  10.209  0.0704  0.0909  0.3034
  248loPI   PO4 3956  15.172  14.264   9.788 -0.1498  0.0734  0.1706
  248loPI   GL1 3957  15.348  14.486   9.486 -0.1865 -0.0154 -0.1507
  248loPI   GL2 3958  15.507  14.668   9.524  0.1285  0.1484  0.2554
  248loPI   C1A 3959  15.584  14.347   9.125  0.1527 -0.0576 -0.0590
  248loPI   C2A 3960  15.534  14.076   8.793  0.2923 -0.0771 -0.2263
  248loPI   C3A 3961  15.563  13.939   8.267  0.2666 -0.1764 -0.0371
  248loPI   C4A 3962  15.626  13.964   7.849  0.2852 -0.0036 -0.2372
  248loPI   C5A 3963  15.579  13.967   7.441  0.0847 -0.1935  0.1478
  248loPI   C6A 3964  15.839  14.265   7.130 -0.0598 -0.0685 -0.1545
  248loPI   C1B 3965  15.390  14.860   9.118  0.0523 -0.1260 -0.0658
  248loPI   C2B 3966  15.382  14.539   8.704 -0.0635  0.0874 -0.1475
  248loPI   C3B 3967  15.475  14.412   8.280 -0.3757  0.1333  0.1907
  248loPI   C4B 3968  15.257  14.477   7.875 -0.2386  0.1673  0.0727
  249loPI    C1 3969   3.870   1.782  10.552 -0.0750 -0.0264  0.2639
  249loPI    C2 3970   4.089   1.467  10.666 -0.0308 -0.0311  0.1672
  249loPI    C3 3971   4.109   1.810  10.872  0.0395 -0.0428  0.1801
  249loPI   PO4 3972   3.909   1.846  10.210  0.1328  0.1348 -0.0367
  249loPI   GL1 3973   3.626   1.964   9.791 -0.0080 -0.2776 -0.3374
  249loPI   GL2 3974   3.596   2.251   9.864  0.1503 -0.1936 -0.0411
  249loPI   C1A 3975   3.957   1.678   9.453 -0.6411 -0.1115 -0.0386
  249loPI   C2A 3976   4.109   1.592   9.096  0.1007  0.1172  0.1004
  249loPI   C3A 3977   4.093   1.569   8.665 -0.0272 -0.2655 -0.0453
  249loPI   C4A 3978   4.038   2.026   8.415 -0.0429  0.2389  0.0586
  249loPI   C5A 3979   4.077   2.381   8.159  0.1080  0.4075  0.1553
  249loPI   C6A 3980   4.140   2.690   7.810  0.0310  0.1130  0.4116
  249loPI   C1B 3981   3.879   2.215   9.492 -0.0722  0.2262 -0.2188
  249loPI   C2B 3982   3.675   2.389   9.038  0.0778 -0.0425 -0.2289
  249loPI   C3B 3983   3.526   2.269   8.520  0.1646 -0.2991  0.2618
  249loPI   C4B 3984   3.627   2.138   8.103  0.2895 -0.1540  0.0325
  250loPI    C1 3985  18.888   7.327   9.918  0.2376  0.3718 -0.1901
  250loPI    C2 3986  19.130   7.034  10.044 -0.2068  0.1887  0.2737
  250loPI    C3 3987  19.001   7.312  10.301 -0.3889  0.3579  0.0051
  250loPI   PO4 3988  18.972   7.346   9.653 -0.0801 -0.2077 -0.2931
  250loPI   GL1 3989  19.132   7.385   9.197  0.1415  0.3528 -0.5095
  250loPI   GL2 3990  19.425   7.305   9.363  0.1257 -0.0246  0.1703
  250loPI   C1A 3991  19.247   7.250   8.772  0.1703  0.1522 -0.2198
  250loPI   C2A 3992  19.176   7.077   8.408  0.0969  0.1261 -0.1088
  250loPI   C3A 3993  19.347   7.064   8.013 -0.2134  0.0099  0.0514
  250loPI   C4A 3994  19.411   6.972   7.571 -0.1703 -0.1489 -0.0322
  250loPI   C5A 3995  19.402   6.955   7.110  0.2674  0.0372 -0.1194
  250loPI   C6A 3996  19.438   7.332   6.796  0.0272  0.0823  0.0283
  250loPI   C1B 3997  19.887   7.278   9.061 -0.2953 -0.4860  0.1724
  250loPI   C2B 3998  20.096   7.214   8.677 -0.3295  0.3982 -0.0126
  250loPI   C3B 3999  20.228   7.331   8.262  0.1476 -0.1687 -0.0648
  250loPI   C4B 4000  20.270   7.183   7.814  0.1402  0.0432 -0.0741
  251loPI    C1 4001   6.141  17.690   9.631 -0.1673 -0.0801 -0.0727
  251loPI    C2 4002   6.474  17.469   9.638 -0.2044 -0.1313  0.1797
  251loPI    C3 4003   6.467  17.826   9.819 -0.1604  0.0577 -0.1823
  251loPI   PO4 4004   5.990  17.521   9.686 -0.0319 -0.0910  0.3561
  251loPI   GL1 4005   5.970  17.243   9.444 -0.0217  0.2135 -0.0767
  251loPI   GL2 4006   5.686  17.314   9.366  0.2084 -0.2895 -0.1976
  251loPI   C1A 4007   6.251  17.310   9.164  0.2135 -0.2293  0.1282
  251loPI   C2A 4008   6.173  17.467   8.712 -0.0959  0.1947 -0.5727
  251loPI   C3A 4009   6.106  17.529   8.283  0.0569 -0.1800  0.0486
  251loPI   C4A 4010   6.191  17.820   7.918  0.1306 -0.2544  0.2497
  251loPI   C5A 4011   6.570  17.981   7.958  0.0179 -0.0024 -0.0663
  251loPI   C6A 4012   7.010  18.181   8.026  0.2623 -0.0540  0.2843
  251loPI   C1B 4013   5.717  17.202   8.946  0.1680 -0.1496  0.3016
  251loPI   C2B 4014   5.702  17.293   8.468 -0.0302  0.0773 -0.2427
  251loPI   C3B 4015   5.611  17.286   8.022 -0.3164  0.0622  0.0726
  251loPI   C4B 4016   5.374  17.367   7.644 -0.2484 -0.0073  0.1544
  252loPI    C1 4017   9.509   1.449  10.458 -0.0850 -0.0728  0.1041
  252loPI    C2 4018   9.273   1.761  10.542  0.2648  0.1956  0.1158
  252loPI    C3 4019   9.223   1.414  10.735 -0.2777  0.1663 -0.0600
  252loPI   PO4 4020   9.523   1.516  10.140 -0.0394  0.1141 -0.1578
  252loPI   GL1 4021   9.731   1.398   9.714  0.2001  0.4663 -0.2324
  252loPI   GL2 4022   9.924   1.610   9.635 -0.0563  0.2479 -0.1148
  252loPI   C1A 4023   9.758   1.081   9.378 -0.1292  0.0816  0.0862
  252loPI   C2A 4024   9.796   1.070   8.982  0.0704  0.0223  0.0323
  252loPI   C3A 4025   9.849   1.057   8.586 -0.4892  0.0370 -0.3121
  252loPI   C4A 4026   9.882   1.243   8.168 -0.3200 -0.2956  0.3575
  252loPI   C5A 4027   9.740   1.275   7.851  0.3957 -0.1910 -0.0570
  252loPI   C6A 4028   9.668   1.275   7.402 -0.0954  0.1122  0.0502
  252loPI   C1B 4029   9.873   1.501   9.236  0.2983 -0.1302  0.1938
  252loPI   C2B 4030   9.799   1.539   8.726  0.0483  0.1619 -0.1290
  252loPI   C3B 4031   9.970   1.751   8.338  0.0684 -0.2720  0.1701
  252loPI   C4B 4032   9.896   1.726   7.970  0.0410  0.1481 -0.2108
  253loPI    C1 4033  17.427   6.073  10.273 -0.1803 -0.0884 -0.0828
  253loPI    C2 4034  17.426   6.366  10.545  0.0371 -0.0385 -0.1335
  253loPI    C3 4035  17.080   6.220  10.408 -0.0741 -0.0224  0.1230
  253loPI   PO4 4036  17.643   6.133  10.136 -0.3348 -0.2417  0.1200
  253loPI   GL1 4037  17.785   5.864   9.678  0.0219 -0.2412 -0.0535
  253loPI   GL2 4038  17.427   5.895   9.564  0.3034 -0.2417 -0.1708
  253loPI   C1A 4039  17.913   5.617   9.278 -0.1323  0.0721 -0.1049
  253loPI   C2A 4040  17.747   5.716   8.836 -0.0514 -0.3973  0.0868
  253loPI   C3A 4041  17.633   5.839   8.398 -0.1742 -0.1285  0.4543
  253loPI   C4A 4042  17.815   5.716   8.042  0.0023 -0.2122  0.1146
  253loPI   C5A 4043  18.085   5.914   7.941 -0.3321 -0.1312  0.0533
  253loPI   C6A 4044  18.394   6.007   7.741 -0.2474  0.2570 -0.1300
  253loPI   C1B 4045  17.680   6.090   9.243  0.0098 -0.1069  0.1051
  253loPI   C2B 4046  18.019   6.142   8.940  0.1176 -0.2759 -0.3739
  253loPI   C3B 4047  18.311   6.407   8.762 -0.0831 -0.1578 -0.0625
  253loPI   C4B 4048  18.234   6.820   8.642 -0.1112 -0.0986 -0.1273
  254loPI    C1 4049  16.436   6.298   9.855 -0.4222  0.2441 -0.0072
  254loPI    C2 4050  16.643   6.188  10.179  0.0123  0.3913 -0.2281
  254loPI    C3 4051  16.305   5.998  10.084  0.3455 -0.2509 -0.1817
  254loPI   PO4 4052  16.649   6.273   9.626  0.1879 -0.2668 -0.0096
  254loPI   GL1 4053  16.646   6.186   9.234 -0.1124  0.1526  0.0002
  254loPI   GL2 4054  16.959   6.023   9.323 -0.2062 -0.0437  0.2118
  254loPI   C1A 4055  16.736   6.187   8.775 -0.1731 -0.3122 -0.0035
  254loPI   C2A 4056  16.805   6.289   8.425 -0.3260 -0.1454 -0.0894
  254loPI   C3A 4057  16.722   6.391   8.040  0.2210 -0.0978  0.0062
  254loPI   C4A 4058  16.501   6.583   7.616 -0.0017  0.1911 -0.4312
  254loPI   C5A 4059  16.552   6.683   7.180 -0.0326  0.0738 -0.1507
  254loPI   C6A 4060  16.770   6.747   6.907 -0.0498 -0.1387 -0.1328
  254loPI   C1B 4061  17.174   5.916   8.923 -0.2581 -0.2703  0.1443
  254loPI   C2B 4062  17.198   5.985   8.510  0.1357  0.0483 -0.0594
  254loPI   C3B 4063  17.189   5.898   8.060 -0.1017 -0.1261 -0.1301
  254loPI   C4B 4064  17.117   5.796   7.672  0.0379  0.1478 -0.0776
  255loPI    C1 4065  15.853  10.240   9.631  0.1297 -0.3381 -0.0480
  255loPI    C2 4066  16.143  10.426   9.834 -0.1499  0.0597 -0.0006
  255loPI    C3 4067  16.011  10.578   9.489 -0.3986 -0.0398  0.0487
  255loPI   PO4 4068  15.892  10.010   9.634  0.0713 -0.2434  0.2432
  255loPI   GL1 4069  16.022   9.884   9.235 -0.1029 -0.0730  0.0721
  255loPI   GL2 4070  16.404   9.937   8.976 -0.0886 -0.1109 -0.1170
  255loPI   C1A 4071  16.109  10.301   8.785  0.0137 -0.0931  0.0681
  255loPI   C2A 4072  15.857  10.416   8.381  0.1580 -0.0662  0.0925
  255loPI   C3A 4073  15.465  10.436   8.372  0.2792 -0.1094  0.1229
  255loPI   C4A 4074  15.186  10.539   8.042  0.0480 -0.1946  0.0885
  255loPI   C5A 4075  15.278  10.748   7.697  0.2847 -0.0098 -0.1821
  255loPI   C6A 4076  15.552  10.697   7.251  0.3282 -0.0943 -0.0857
  255loPI   C1B 4077  16.553   9.971   8.573  0.1795  0.0712 -0.2619
  255loPI   C2B 4078  16.808  10.008   8.308 -0.0040 -0.0743  0.0025
  255loPI   C3B 4079  16.877   9.862   7.950 -0.1083  0.1236  0.0441
  255loPI   C4B 4080  16.859   9.825   7.524  0.1131 -0.2755  0.0998
  256loPI    C1 4081  10.777   3.342  10.471  0.1928 -0.0588 -0.2922
  256loPI    C2 4082  11.114   3.140  10.549  0.1490 -0.1671 -0.3813
  256loPI    C3 4083  10.759   2.961  10.593  0.0822  0.0743  0.1222
  256loPI   PO4 4084  10.781   3.491  10.192 -0.1611  0.0876 -0.3349
  256loPI   GL1 4085  10.713   3.372   9.806  0.0922  0.1999  0.3076
  256loPI   GL2 4086  10.488   3.283   9.534  0.0050 -0.1967  0.2032
  256loPI   C1A 4087  10.734   2.936   9.651 -0.3146 -0.0020  0.2390
  256loPI   C2A 4088  10.861   2.535   9.348  0.1843  0.3042  0.1184
  256loPI   C3A 4089  10.967   2.435   8.953 -0.0127 -0.1382  0.2121
  256loPI   C4A 4090  10.874   2.490   8.645 -0.1107 -0.0539 -0.1794
  256loPI   C5A 4091  10.960   2.657   8.404  0.0571  0.0203  0.0201
  256loPI   C6A 4092  10.894   2.705   7.968  0.0134  0.2328 -0.0047
  256loPI   C1B 4093  10.472   2.994   9.146  0.1609 -0.0306 -0.2138
  256loPI   C2B 4094  10.541   2.788   8.753 -0.0616 -0.2951 -0.0135
  256loPI   C3B 4095  10.443   2.715   8.310  0.0326  0.0421 -0.0100
  256loPI   C4B 4096  10.339   2.661   7.919  0.0725 -0.1290  0.0677
  257loPI    C1 4097   5.567  11.178  10.012  0.0008 -0.0700 -0.0064
  257loPI    C2 4098   5.217  11.239  10.197  0.0125  0.0852 -0.0343
  257loPI    C3 4099   5.498  11.012  10.370 -0.0810  0.0050  0.0129
  257loPI   PO4 4100   5.552  11.081   9.776 -0.0342  0.1479  0.1436
  257loPI   GL1 4101   5.365  11.011   9.344 -0.1299 -0.1167 -0.0705
  257loPI   GL2 4102   5.415  10.712   9.175 -0.0451 -0.2957  0.0889
  257loPI   C1A 4103   5.163  11.077   8.936 -0.1749 -0.0818 -0.1166
  257loPI   C2A 4104   5.207  10.953   8.433  0.0229  0.2686 -0.1449
  257loPI   C3A 4105   5.039  10.727   7.997 -0.2495  0.1968  0.2132
  257loPI   C4A 4106   4.990  10.422   7.669  0.0372  0.0322  0.2009
  257loPI   C5A 4107   4.814  10.326   7.304 -0.5197  0.1916 -0.0550
  257loPI   C6A 4108   4.805  10.505   6.856  0.0054  0.1069 -0.1397
  257loPI   C1B 4109   5.555  10.758   8.741 -0.0984  0.2445  0.2883
  257loPI   C2B 4110   5.730  10.728   8.280  0.0479  0.0222 -0.0525
  257loPI   C3B 4111   5.796  10.453   7.925  0.0301  0.2914 -0.2742
  257loPI   C4B 4112   5.969  10.491   7.441 -0.0401  0.3405  0.3771
  258loPI    C1 4113   8.280  15.660  10.351  0.0947 -0.0337 -0.0034
  258loPI    C2 4114   8.637  15.627  10.530  0.0970 -0.2080 -0.0386
  258loPI    C3 4115   8.317  15.443  10.685  0.0399 -0.1237 -0.0554
  258loPI   PO4 4116   8.323  15.600  10.049  0.3785 -0.1138 -0.2978
  258loPI   GL1 4117   8.058  15.635   9.756  0.3565 -0.2234  0.1157
  258loPI   GL2 4118   8.135  15.500   9.563 -0.0981 -0.0424  0.2233
  258loPI   C1A 4119   7.709  15.728   9.369 -0.1851  0.3086  0.1909
  258loPI   C2A 4120   7.567  15.574   8.911 -0.0912  0.1085 -0.1939
  258loPI   C3A 4121   7.674  15.621   8.552 -0.0297 -0.2457 -0.2756
  258loPI   C4A 4122   7.708  15.834   8.212  0.2105 -0.1626 -0.3723
  258loPI   C5A 4123   7.930  15.986   7.875  0.0838 -0.3786 -0.0626
  258loPI   C6A 4124   8.228  16.163   7.627 -0.1301  0.0610  0.2703
  258loPI   C1B 4125   8.066  15.465   9.081  0.2808 -0.3506  0.2539
  258loPI   C2B 4126   8.069  15.429   8.775 -0.3045 -0.0819 -0.0930
  258loPI   C3B 4127   8.050  15.379   8.311 -0.2941  0.2856  0.0410
  258loPI   C4B 4128   7.890  15.384   7.943  0.1471 -0.3377  0.1093
  259loPI    C1 4129  15.172   4.691   9.933 -0.1160 -0.2236 -0.1762
  259loPI    C2 4130  14.832   4.621  10.131 -0.0330  0.1232  0.1006
  259loPI    C3 4131  15.179   4.487  10.277  0.0054  0.2031  0.0827
  259loPI   PO4 4132  15.099   4.721   9.673  0.0845  0.0864 -0.0144
  259loPI   GL1 4133  14.855   4.532   9.324 -0.0519 -0.2302  0.3084
  259loPI   GL2 4134  15.170   4.625   9.129 -0.0479  0.1511  0.0938
  259loPI   C1A 4135  14.588   4.403   9.067  0.3705 -0.0803  0.4096
  259loPI   C2A 4136  14.585   4.301   8.630  0.0714 -0.1029  0.0020
  259loPI   C3A 4137  14.528   4.110   8.198 -0.1515 -0.0627 -0.0810
  259loPI   C4A 4138  14.459   4.143   7.744 -0.0808 -0.2018 -0.1381
  259loPI   C5A 4139  14.328   4.381   7.272  0.1631 -0.1227 -0.1273
  259loPI   C6A 4140  14.515   4.603   6.775 -0.1272  0.1620 -0.1389
  259loPI   C1B 4141  15.108   4.679   8.717 -0.0048  0.1858 -0.1198
  259loPI   C2B 4142  15.163   4.645   8.230 -0.0020 -0.0367 -0.1480
  259loPI   C3B 4143  15.170   4.535   7.862 -0.1928  0.0510 -0.0549
  259loPI   C4B 4144  15.287   4.735   7.608  0.0449 -0.0976 -0.1276
  260loPI    C1 4145  13.320  12.385  10.271  0.0488 -0.1046  0.2616
  260loPI    C2 4146  13.411  12.775  10.270  0.1749 -0.1301 -0.1509
  260loPI    C3 4147  13.094  12.644  10.476  0.2101  0.1690  0.1014
  260loPI   PO4 4148  13.397  12.311   9.991  0.2153 -0.1666  0.3592
  260loPI   GL1 4149  13.305  12.270   9.625  0.2189 -0.0955 -0.1238
  260loPI   GL2 4150  13.347  12.631   9.648  0.0384  0.2479  0.3507
  260loPI   C1A 4151  13.170  12.428   9.226  0.1533  0.0606 -0.2114
  260loPI   C2A 4152  13.076  12.440   8.717  0.2801  0.4590 -0.1691
  260loPI   C3A 4153  12.876  12.519   8.316 -0.0718  0.0107  0.0150
  260loPI   C4A 4154  12.665  12.775   7.990 -0.1217  0.0698 -0.1308
  260loPI   C5A 4155  12.890  12.964   7.680  0.1886 -0.0511  0.2350
  260loPI   C6A 4156  13.245  13.310   7.606 -0.1225  0.0060 -0.1711
  260loPI   C1B 4157  13.683  12.801   9.416  0.0321 -0.2104 -0.0569
  260loPI   C2B 4158  13.786  12.646   9.056 -0.0786  0.2054 -0.1827
  260loPI   C3B 4159  13.729  12.525   8.601 -0.0947  0.1422 -0.0480
  260loPI   C4B 4160  13.719  12.509   8.195  0.3489 -0.3424 -0.0724
  261loPI    C1 4161  15.980   0.796   9.916  0.0824  0.1080  0.0266
  261loPI    C2 4162  16.163   1.149   9.874  0.1745  0.0496 -0.0698
  261loPI    C3 4163  15.965   1.065  10.211  0.3456  0.1046  0.0459
  261loPI   PO4 4164  15.813   0.819   9.647 -0.2263 -0.1033  0.0323
  261loPI   GL1 4165  15.916   0.678   9.262 -0.3064 -0.1435  0.1149
  261loPI   GL2 4166  16.222   0.508   9.314 -0.2870  0.1969  0.0734
  261loPI   C1A 4167  16.047   0.688   8.902 -0.1383  0.0116 -0.0266
  261loPI   C2A 4168  16.345   0.604   8.600  0.0810  0.0504 -0.2196
  261loPI   C3A 4169  16.614   0.378   8.272  0.0859 -0.2387 -0.1377
  261loPI   C4A 4170  16.886   0.347   7.973  0.0348  0.1311 -0.0902
  261loPI   C5A 4171  17.277   0.418   7.759 -0.1196 -0.1035 -0.0807
  261loPI   C6A 4172  17.513   0.689   7.583  0.0201 -0.3273 -0.0775
  261loPI   C1B 4173  16.391   0.151   8.956 -0.2158 -0.2025 -0.1160
  261loPI   C2B 4174  16.320  -0.016   8.581 -0.1465  0.1745 -0.1717
  261loPI   C3B 4175  16.486  -0.134   8.168  0.2204  0.3822 -0.2210
  261loPI   C4B 4176  16.625  -0.161   7.763  0.1549 -0.1049 -0.1285
  262loPI    C1 4177   0.707  17.006   9.219 -0.1706  0.1399  0.1736
  262loPI    C2 4178   0.706  16.682   9.453  0.0867 -0.0732 -0.1111
  262loPI    C3 4179   0.543  17.023   9.583 -0.1275 -0.2948  0.2193
  262loPI   PO4 4180   0.851  16.883   9.041  0.2222 -0.1377  0.1595
  262loPI   GL1 4181   0.893  16.510   8.667 -0.2475 -0.1268 -0.2033
  262loPI   GL2 4182   0.573  16.636   8.596 -0.0144  0.1078  0.0236
  262loPI   C1A 4183   1.126  16.578   8.311 -0.0392 -0.0042 -0.0049
  262loPI   C2A 4184   1.426  16.548   7.962  0.2651 -0.2272  0.3165
  262loPI   C3A 4185   1.470  16.504   7.542  0.2773 -0.0504  0.4702
  262loPI   C4A 4186   1.322  16.218   7.265  0.0277  0.3501 -0.2019
  262loPI   C5A 4187   1.515  16.092   6.920  0.0158  0.1668 -0.1005
  262loPI   C6A 4188   1.914  15.963   6.800 -0.2851  0.2563 -0.0411
  262loPI   C1B 4189   0.681  16.697   8.219 -0.0600  0.1607  0.1200
  262loPI   C2B 4190   0.978  16.703   7.875  0.0600  0.0258  0.3017
  262loPI   C3B 4191   1.180  16.915   7.496  0.0094  0.0736 -0.3951
  262loPI   C4B 4192   1.202  17.346   7.440 -0.1710 -0.0502  0.2133
  263loPI    C1 4193   4.642  15.453  10.334  0.2399 -0.2193 -0.0497
  263loPI    C2 4194   4.664  15.185  10.631 -0.2747 -0.0928  0.1124
  263loPI    C3 4195   4.696  15.576  10.711  0.1138 -0.0808 -0.0761
  263loPI   PO4 4196   4.483  15.375  10.169 -0.0492 -0.0526 -0.1829
  263loPI   GL1 4197   4.589  15.486   9.710 -0.1572  0.0566 -0.3428
  263loPI   GL2 4198   4.293  15.723   9.680  0.1430 -0.5564 -0.1006
  263loPI   C1A 4199   4.779  15.420   9.313 -0.0609 -0.2475  0.0429
  263loPI   C2A 4200   4.889  15.401   8.803  0.1586 -0.1079 -0.3365
  263loPI   C3A 4201   4.822  15.288   8.405 -0.4261  0.1078 -0.2974
  263loPI   C4A 4202   4.728  15.364   7.901  0.0515 -0.0812  0.1777
  263loPI   C5A 4203   4.924  15.217   7.460 -0.2784 -0.1911 -0.2562
  263loPI   C6A 4204   4.882  14.998   7.145  0.0924  0.0838  0.0103
  263loPI   C1B 4205   4.371  15.986   9.383 -0.1083  0.0178  0.3639
  263loPI   C2B 4206   4.355  16.164   8.919  0.1007 -0.1867  0.0880
  263loPI   C3B 4207   4.464  16.609   8.809  0.1465 -0.0919 -0.2049
  263loPI   C4B 4208   4.293  16.915   9.047 -0.1401  0.0679 -0.2378
  264loPI    C1 4209  18.772  16.909   9.522 -0.0124 -0.2000  0.0335
  264loPI    C2 4210  18.558  17.248   9.523  0.0921 -0.1336 -0.0298
  264loPI    C3 4211  18.520  16.987   9.823 -0.0780 -0.1222 -0.0409
  264loPI   PO4 4212  18.788  16.870   9.219  0.0523 -0.0559 -0.3035
  264loPI   GL1 4213  18.492  16.891   9.011  0.0970 -0.1415  0.0356
  264loPI   GL2 4214  18.278  17.015   9.024  0.1937  0.0387 -0.0929
  264loPI   C1A 4215  18.521  16.964   8.512 -0.1242  0.1954 -0.1789
  264loPI   C2A 4216  18.800  17.012   8.158 -0.2938 -0.2770 -0.2687
  264loPI   C3A 4217  18.877  17.161   7.834 -0.1013 -0.1779  0.1513
  264loPI   C4A 4218  18.737  17.435   7.456  0.2565 -0.0594 -0.5005
  264loPI   C5A 4219  18.730  17.766   7.127 -0.0967  0.1527  0.1201
  264loPI   C6A 4220  18.652  18.013   6.845  0.3559 -0.0804  0.0093
  264loPI   C1B 4221  18.088  16.791   8.722  0.0792 -0.2720  0.0832
  264loPI   C2B 4222  17.850  16.814   8.307  0.4076  0.0766  0.0441
  264loPI   C3B 4223  17.802  16.564   7.787 -0.3265 -0.3664 -0.2241
  264loPI   C4B 4224  17.724  16.395   7.448 -0.0982 -0.0657  0.3258
  265loPI    C1 4225   3.959   5.256  10.408 -0.0521  0.0409 -0.0855
  265loPI    C2 4226   3.911   5.649  10.468 -0.2091  0.0023  0.0511
  265loPI    C3 4227   4.200   5.451  10.661 -0.0884  0.0620 -0.0670
  265loPI   PO4 4228   3.951   5.191   9.999 -0.2324  0.3547  0.1586
  265loPI   GL1 4229   4.083   5.536   9.706  0.3793  0.3413  0.0065
  265loPI   GL2 4230   3.642   5.545   9.640 -0.0269 -0.3267  0.0906
  265loPI   C1A 4231   4.220   5.762   9.296 -0.1673 -0.1260 -0.0095
  265loPI   C2A 4232   4.106   5.856   8.865 -0.2495  0.0808 -0.0953
  265loPI   C3A 4233   4.006   6.245   8.701 -0.0707 -0.0945  0.0326
  265loPI   C4A 4234   4.254   6.475   8.288 -0.0215 -0.0341  0.0816
  265loPI   C5A 4235   4.208   6.609   7.888  0.2230 -0.1050 -0.0467
  265loPI   C6A 4236   4.582   6.730   7.476 -0.0587  0.0557 -0.1715
  265loPI   C1B 4237   3.234   5.421   9.389  0.3467  0.1589  0.0544
  265loPI   C2B 4238   3.155   5.315   9.060  0.2849 -0.3350  0.1478
  265loPI   C3B 4239   3.310   5.423   8.657 -0.2940  0.1124  0.0486
  265loPI   C4B 4240   3.598   5.275   8.435 -0.2136 -0.2854 -0.0915
  266loPI    C1 4241  16.248  17.636   9.808 -0.0423  0.3595 -0.1125
  266loPI    C2 4242  16.267  17.605  10.206 -0.0068  0.0417 -0.1362
  266loPI    C3 4243  15.926  17.718  10.031  0.0810  0.5423  0.0008
  266loPI   PO4 4244  16.471  17.502   9.586  0.1234 -0.1962 -0.1508
  266loPI   GL1 4245  16.298  17.507   9.249 -0.1047 -0.0642  0.2425
  266loPI   GL2 4246  16.544  17.583   9.050 -0.4025 -0.2111  0.1203
  266loPI   C1A 4247  15.946  17.252   8.980  0.0267  0.2073  0.1505
  266loPI   C2A 4248  15.825  17.320   8.614 -0.0383  0.1128 -0.0654
  266loPI   C3A 4249  15.790  17.250   8.177 -0.0342  0.0900  0.1216
  266loPI   C4A 4250  15.570  17.215   7.819 -0.1241 -0.4403 -0.0046
  266loPI   C5A 4251  15.700  17.559   7.574 -0.3834  0.2802  0.0269
  266loPI   C6A 4252  16.000  17.820   7.451  0.3426  0.3157 -0.1769
  266loPI   C1B 4253  16.197  17.753   8.712  0.0173 -0.0929 -0.1349
  266loPI   C2B 4254  16.087  17.813   8.344  0.1078 -0.0295 -0.3661
  266loPI   C3B 4255  16.132  17.629   7.880  0.2938  0.1632  0.0111
  266loPI   C4B 4256  16.120  17.328   7.557  0.3928 -0.0997 -0.1682
  267loPI    C1 4257   4.758   4.467  10.464 -0.2406  0.0887 -0.1336
  267loPI    C2 4258   4.492   4.628  10.717 -0.1574  0.1212 -0.0662
  267loPI    C3 4259   4.645   4.265  10.791 -0.1399  0.1268 -0.0748
  267loPI   PO4 4260   4.645   4.533  10.206  0.2143  0.0190  0.0565
  267loPI   GL1 4261   4.674   4.814   9.934 -0.0458  0.0563 -0.1768
  267loPI   GL2 4262   4.471   5.144   9.832  0.0860 -0.2799  0.0889
  267loPI   C1A 4263   4.633   4.714   9.503  0.0164  0.1053  0.1433
  267loPI   C2A 4264   4.238   4.691   9.193  0.2239 -0.1092 -0.0288
  267loPI   C3A 4265   3.893   4.723   9.093  0.0509 -0.3194 -0.2069
  267loPI   C4A 4266   3.516   4.448   8.930 -0.0105  0.0737  0.1705
  267loPI   C5A 4267   3.142   4.428   8.714 -0.0859 -0.0240  0.1448
  267loPI   C6A 4268   2.988   4.291   8.299 -0.3103  0.1342 -0.2618
  267loPI   C1B 4269   4.361   5.185   9.426 -0.1047 -0.3358 -0.1713
  267loPI   C2B 4270   4.389   5.141   8.958  0.0593  0.0012  0.0800
  267loPI   C3B 4271   4.064   5.194   8.674  0.1498 -0.3058  0.1564
  267loPI   C4B 4272   4.077   5.382   8.223  0.1565  0.0651  0.2310
  268loPI    C1 4273  12.272   0.204  10.218  0.0359 -0.1615 -0.0544
  268loPI    C2 4274  12.669   0.154  10.197  0.0787  0.0416  0.2229
  268loPI    C3 4275  12.489   0.188  10.553 -0.2249 -0.3169  0.1104
  268loPI   PO4 4276  12.201   0.015  10.013 -0.3021 -0.0985 -0.0610
  268loPI   GL1 4277  12.264  -0.046   9.512  0.1189  0.0331 -0.4142
  268loPI   GL2 4278  12.504  -0.268   9.493  0.0795 -0.4068 -0.1267
  268loPI   C1A 4279  12.190   0.011   9.219  0.2215  0.1978 -0.2374
  268loPI   C2A 4280  12.116  -0.136   8.777 -0.1461 -0.2138 -0.1121
  268loPI   C3A 4281  11.948  -0.182   8.405 -0.1791 -0.0349  0.0170
  268loPI   C4A 4282  11.800  -0.250   7.964 -0.4222 -0.2385 -0.2074
  268loPI   C5A 4283  12.009  -0.061   7.639 -0.2576  0.0148 -0.2797
  268loPI   C6A 4284  12.028   0.290   7.301 -0.0989  0.0449  0.0329
  268loPI   C1B 4285  12.615  -0.125   9.108 -0.2131 -0.1198  0.5056
  268loPI   C2B 4286  12.553  -0.207   8.604 -0.1949  0.0694  0.1804
  268loPI   C3B 4287  12.448  -0.426   8.251 -0.2857 -0.1132 -0.1683
  268loPI   C4B 4288  12.224  -0.551   7.922  0.1771 -0.1661  0.2486
  269loPI    C1 4289   1.678  11.144   9.901  0.0397  0.0306 -0.2648
  269loPI    C2 4290   1.522  10.819  10.075  0.0200  0.0838 -0.1823
  269loPI    C3 4291   1.549  11.162  10.280 -0.1532  0.1912 -0.3361
  269loPI   PO4 4292   1.542  11.093   9.688  0.0536  0.0273 -0.0254
  269loPI   GL1 4293   1.768  11.101   9.312 -0.0544  0.0016 -0.1583
  269loPI   GL2 4294   2.028  11.365   9.178  0.1660 -0.1442 -0.1595
  269loPI   C1A 4295   1.570  11.200   8.932  0.1535 -0.0222 -0.3052
  269loPI   C2A 4296   1.516  11.132   8.497  0.2463  0.3111 -0.1555
  269loPI   C3A 4297   1.295  10.947   8.135  0.2843  0.1856  0.1484
  269loPI   C4A 4298   1.621  10.671   8.033 -0.2100  0.0617 -0.1963
  269loPI   C5A 4299   1.800  10.580   7.656  0.0778  0.3068  0.2131
  269loPI   C6A 4300   2.053  10.720   7.271  0.4867 -0.2060  0.5161
  269loPI   C1B 4301   2.083  11.602   8.811 -0.0255  0.4199 -0.0221
  269loPI   C2B 4302   1.924  11.643   8.374  0.1916  0.0394  0.2968
  269loPI   C3B 4303   2.062  11.515   7.936  0.1626 -0.1626 -0.0048
  269loPI   C4B 4304   2.271  11.527   7.485  0.1348  0.0418  0.1426
  270loPI    C1 4305  18.772   6.165   9.885  0.0074  0.2718  0.0525
  270loPI    C2 4306  18.523   6.427   9.715 -0.2747  0.0405  0.1020
  270loPI    C3 4307  18.429   6.261  10.067 -0.1361 -0.1845  0.0347
  270loPI   PO4 4308  18.823   5.965   9.771  0.1164 -0.2088  0.3178
  270loPI   GL1 4309  19.018   5.790   9.486  0.1837  0.0312 -0.0869
  270loPI   GL2 4310  18.706   5.639   9.268 -0.0575  0.0004 -0.0020
  270loPI   C1A 4311  19.475   5.906   9.347  0.3143  0.1680 -0.0942
  270loPI   C2A 4312  19.648   6.011   8.959 -0.1402 -0.0132  0.1682
  270loPI   C3A 4313  19.645   5.843   8.535 -0.3960 -0.1049 -0.0778
  270loPI   C4A 4314  19.622   6.081   8.165  0.1049  0.2281  0.1269
  270loPI   C5A 4315  19.740   5.931   7.813  0.0570  0.3114 -0.0212
  270loPI   C6A 4316  19.674   5.617   7.520 -0.1037  0.0818 -0.0087
  270loPI   C1B 4317  18.463   5.405   9.037 -0.1694 -0.2998  0.0722
  270loPI   C2B 4318  18.271   5.338   8.661 -0.0717  0.3550 -0.2627
  270loPI   C3B 4319  18.351   5.410   8.304 -0.0563 -0.0290 -0.1115
  270loPI   C4B 4320  18.363   5.471   7.887 -0.2687 -0.2869  0.1442
  271loPI    C1 4321  16.988  16.887   9.725  0.1135  0.0019  0.0938
  271loPI    C2 4322  17.165  16.921   9.367  0.1543  0.1796  0.1303
  271loPI    C3 4323  17.083  16.559   9.516  0.0447  0.1064 -0.1038
  271loPI   PO4 4324  16.689  16.970   9.610  0.1959 -0.0002 -0.2554
  271loPI   GL1 4325  16.758  17.087   9.138 -0.2712 -0.4444  0.2673
  271loPI   GL2 4326  16.518  17.096   9.117  0.4528  0.0262 -0.1299
  271loPI   C1A 4327  16.702  16.852   8.745 -0.0163 -0.2954 -0.2180
  271loPI   C2A 4328  16.619  16.922   8.370 -0.0243 -0.0036 -0.1861
  271loPI   C3A 4329  16.924  17.211   8.216 -0.2202  0.0441  0.4432
  271loPI   C4A 4330  17.003  17.133   7.812  0.0416  0.2008 -0.0435
  271loPI   C5A 4331  17.009  17.098   7.345 -0.0130  0.2472  0.0705
  271loPI   C6A 4332  16.828  17.385   7.001 -0.0328 -0.2500 -0.1805
  271loPI   C1B 4333  16.425  17.248   8.742  0.0045 -0.0510 -0.2480
  271loPI   C2B 4334  16.283  17.311   8.284 -0.0918  0.0854  0.0051
  271loPI   C3B 4335  16.604  17.485   7.894 -0.3950 -0.0298  0.0080
  271loPI   C4B 4336  16.855  17.516   7.479  0.0061 -0.3097 -0.4096
  272loPI    C1 4337  10.884  10.716  10.113 -0.4357 -0.0122  0.2127
  272loPI    C2 4338  11.200  10.646  10.348 -0.1065 -0.0484 -0.2277
  272loPI    C3 4339  11.007  10.995  10.371 -0.0314 -0.0226  0.0396
  272loPI   PO4 4340  10.844  10.697   9.798  0.1404 -0.3596 -0.1902
  272loPI   GL1 4341  10.814  10.467   9.402 -0.4396  0.0055  0.0262
  272loPI   GL2 4342  10.525  10.325   9.270  0.2947  0.0431 -0.3303
  272loPI   C1A 4343  10.927  10.526   8.983  0.5062  0.1089  0.0641
  272loPI   C2A 4344  10.981  10.487   8.516  0.2807 -0.0009 -0.2043
  272loPI   C3A 4345  10.936  10.348   8.138 -0.4681 -0.3526 -0.0907
  272loPI   C4A 4346  10.879  10.063   7.832 -0.0629 -0.0199 -0.2544
  272loPI   C5A 4347  10.640   9.792   7.529  0.0830 -0.1132  0.2191
  272loPI   C6A 4348  10.234   9.882   7.353  0.1827 -0.0349 -0.1584
  272loPI   C1B 4349  10.455  10.433   8.850  0.0616 -0.1610 -0.1412
  272loPI   C2B 4350  10.461  10.589   8.435 -0.2233 -0.4700  0.0749
  272loPI   C3B 4351  10.596  10.565   7.942 -0.0402 -0.5386 -0.1184
  272loPI   C4B 4352  10.769  10.504   7.625 -0.0485 -0.0437  0.0189
  273loPI    C1 4353   5.043  12.416  10.121  0.1224  0.2371  0.1053
  273loPI    C2 4354   4.878  12.323  10.473  0.0737 -0.0738  0.0040
  273loPI    C3 4355   5.276  12.342  10.438  0.0744  0.1965  0.1310
  273loPI   PO4 4356   4.962  12.265   9.937  0.4362 -0.0405  0.0389
  273loPI   GL1 4357   4.875  12.167   9.514  0.0210  0.4373 -0.0793
  273loPI   GL2 4358   4.763  12.497   9.533  0.4723 -0.1144  0.1880
  273loPI   C1A 4359   4.804  12.189   9.040 -0.0511 -0.2612  0.0143
  273loPI   C2A 4360   4.748  12.353   8.600 -0.0249  0.0888  0.0956
  273loPI   C3A 4361   4.859  12.357   8.159 -0.1241 -0.3440 -0.0321
  273loPI   C4A 4362   5.233  12.220   7.809 -0.3151 -0.0369 -0.2653
  273loPI   C5A 4363   5.592  12.292   7.633 -0.0249  0.3425 -0.1899
  273loPI   C6A 4364   5.956  12.531   7.334  0.0264  0.0194  0.0618
  273loPI   C1B 4365   4.868  12.632   9.249  0.5695  0.1504 -0.0157
  273loPI   C2B 4366   4.887  12.801   8.818 -0.1448 -0.1002 -0.0817
  273loPI   C3B 4367   4.702  12.840   8.452 -0.0585 -0.0199  0.0042
  273loPI   C4B 4368   4.726  12.902   7.980 -0.2213 -0.1890  0.1485
  274loPI    C1 4369  16.208  14.888   9.761 -0.1700  0.1277 -0.1645
  274loPI    C2 4370  16.316  15.021   9.400  0.2439 -0.0761 -0.1217
  274loPI    C3 4371  16.578  15.029   9.702  0.0310 -0.2829  0.0720
  274loPI   PO4 4372  16.089  14.665   9.734  0.1884 -0.3249  0.0071
  274loPI   GL1 4373  15.961  14.520   9.345  0.0582 -0.0780 -0.1777
  274loPI   GL2 4374  16.089  14.241   9.151 -0.0722  0.3969  0.1411
  274loPI   C1A 4375  15.922  14.691   9.003 -0.1484  0.0477 -0.5050
  274loPI   C2A 4376  15.765  14.855   8.656 -0.1226  0.5210 -0.3651
  274loPI   C3A 4377  15.772  14.805   8.190 -0.1086  0.1022 -0.2281
  274loPI   C4A 4378  15.551  14.869   7.792 -0.0909  0.1075  0.1737
  274loPI   C5A 4379  15.083  15.060   7.661  0.1928  0.2614 -0.1879
  274loPI   C6A 4380  14.977  15.309   7.302 -0.0101 -0.0479  0.0539
  274loPI   C1B 4381  16.036  14.339   8.708  0.1877 -0.0442 -0.0159
  274loPI   C2B 4382  15.960  14.346   8.340  0.1906  0.3978  0.2251
  274loPI   C3B 4383  15.942  14.358   8.003  0.0518  0.1025  0.4215
  274loPI   C4B 4384  15.880  14.523   7.649  0.1652  0.0594  0.3853
  275loPI    C1 4385   5.384  10.352  10.044 -0.4462 -0.2746 -0.2216
  275loPI    C2 4386   5.166  10.682  10.098 -0.0725  0.0046 -0.3775
  275loPI    C3 4387   5.250  10.445  10.409  0.0610  0.3168 -0.1703
  275loPI   PO4 4388   5.307  10.236   9.944 -0.0361 -0.2458  0.0725
  275loPI   GL1 4389   5.289  10.123   9.437 -0.1009  0.4733 -0.3121
  275loPI   GL2 4390   5.545  10.068   9.283 -0.1632 -0.0010  0.3600
  275loPI   C1A 4391   4.987  10.347   9.147  0.2228  0.1108  0.0607
  275loPI   C2A 4392   5.071  10.544   8.768  0.1529 -0.0107 -0.2852
  275loPI   C3A 4393   4.876  10.400   8.445 -0.0643  0.0149  0.0310
  275loPI   C4A 4394   4.635  10.455   8.131  0.0663 -0.1527  0.3111
  275loPI   C5A 4395   4.435  10.306   7.734 -0.0301 -0.1579  0.2526
  275loPI   C6A 4396   4.378  10.087   7.335 -0.1188  0.0881 -0.3246
  275loPI   C1B 4397   5.475  10.187   8.874 -0.0065 -0.1098  0.3303
  275loPI   C2B 4398   5.343  10.303   8.362  0.1730  0.0645  0.1705
  275loPI   C3B 4399   5.367  10.265   7.935  0.2009  0.2722 -0.2557
  275loPI   C4B 4400   5.563  10.196   7.531 -0.0880  0.4743 -0.1347
  276loPI    C1 4401   3.206  11.127   9.894 -0.2926  0.0442  0.0532
  276loPI    C2 4402   2.846  11.293   9.939 -0.2732  0.0619  0.1427
  276loPI    C3 4403   3.007  11.081  10.238 -0.1989  0.0749  0.1119
  276loPI   PO4 4404   3.166  10.934   9.636 -0.2003  0.1454  0.1890
  276loPI   GL1 4405   3.176  10.928   9.306 -0.0634 -0.0356 -0.1720
  276loPI   GL2 4406   3.460  11.113   9.252 -0.1242  0.4756 -0.1850
  276loPI   C1A 4407   3.137  10.634   8.963 -0.2923  0.0609  0.0965
  276loPI   C2A 4408   3.091  10.698   8.492 -0.1071 -0.2886 -0.0038
  276loPI   C3A 4409   3.223  10.630   8.101 -0.2761 -0.0977 -0.0106
  276loPI   C4A 4410   3.135  10.555   7.745  0.2271  0.0807 -0.0336
  276loPI   C5A 4411   3.155  10.425   7.252  0.0083  0.0239 -0.0547
  276loPI   C6A 4412   2.781  10.363   6.943 -0.1690 -0.1944 -0.1099
  276loPI   C1B 4413   3.533  11.029   8.830 -0.3682 -0.4749  0.1280
  276loPI   C2B 4414   3.670  11.064   8.387 -0.3397 -0.1283  0.0028
  276loPI   C3B 4415   3.639  10.912   7.903 -0.0445 -0.0067 -0.3113
  276loPI   C4B 4416   3.581  10.748   7.506  0.0349  0.1612  0.0537
  277loPI    C1 4417   8.540  11.568  10.189  0.0938 -0.1218  0.1358
  277loPI    C2 4418   8.468  11.920  10.365 -0.1234  0.0375 -0.2597
  277loPI    C3 4419   8.584  11.607  10.585 -0.1340  0.2973  0.1257
  277loPI   PO4 4420   8.708  11.565   9.953  0.1180 -0.1068  0.0131
  277loPI   GL1 4421   8.883  11.776   9.655  0.2588 -0.2758  0.3460
  277loPI   GL2 4422   9.148  11.812   9.650  0.0161 -0.2356  0.0635
  277loPI   C1A 4423   8.486  11.934   9.445 -0.0734 -0.1356 -0.1726
  277loPI   C2A 4424   8.562  12.242   9.089 -0.3379  0.1919  0.1619
  277loPI   C3A 4425   8.640  12.516   8.838 -0.0317 -0.0392 -0.0315
  277loPI   C4A 4426   8.372  12.572   8.391  0.0339  0.1376 -0.1596
  277loPI   C5A 4427   8.319  12.563   7.987  0.0102  0.0656  0.0423
  277loPI   C6A 4428   8.125  12.364   7.680 -0.0197  0.0969  0.2458
  277loPI   C1B 4429   8.978  12.116   9.347  0.2316  0.1121 -0.0254
  277loPI   C2B 4430   9.067  12.163   8.932 -0.1533 -0.2679 -0.1366
  277loPI   C3B 4431   9.239  12.287   8.554  0.0519 -0.2509 -0.0576
  277loPI   C4B 4432   9.248  12.109   8.177 -0.2121 -0.1043 -0.0033
  278loPI    C1 4433  11.450   4.355   9.678  0.0255  0.0967  0.2317
  278loPI    C2 4434  11.444   3.965   9.587 -0.0963  0.1611 -0.0476
  278loPI    C3 4435  11.314   4.089   9.944 -0.0610 -0.0529  0.0409
  278loPI   PO4 4436  11.371   4.427   9.296  0.2308  0.0301  0.2738
  278loPI   GL1 4437  11.492   4.526   8.943 -0.3386 -0.0138  0.1667
  278loPI   GL2 4438  11.423   4.839   8.958 -0.0786 -0.2111 -0.3060
  278loPI   C1A 4439  11.624   4.510   8.459 -0.2319  0.0233  0.1146
  278loPI   C2A 4440  11.492   4.526   8.044  0.0833  0.2846 -0.0509
  278loPI   C3A 4441  11.724   4.631   7.596  0.0038  0.0271 -0.2547
  278loPI   C4A 4442  12.071   4.475   7.491 -0.0371  0.1021 -0.0486
  278loPI   C5A 4443  12.366   4.418   7.210  0.1688  0.1333 -0.0615
  278loPI   C6A 4444  12.645   4.583   6.934 -0.0942  0.0551  0.0698
  278loPI   C1B 4445  11.322   4.831   8.633  0.2149  0.0119  0.2283
  278loPI   C2B 4446  11.309   4.906   8.313 -0.1683 -0.1354  0.1367
  278loPI   C3B 4447  11.090   4.977   7.867 -0.0072 -0.0989 -0.4126
  278loPI   C4B 4448  11.037   4.973   7.437 -0.2995 -0.0675 -0.1909
  279loPI    C1 4449  16.143  15.337  10.081  0.1645  0.3605 -0.0379
  279loPI    C2 4450  15.757  15.393   9.993  0.1253 -0.0416 -0.1430
  279loPI    C3 4451  15.881  15.415  10.373 -0.0439 -0.1356 -0.0811
  279loPI   PO4 4452  16.255  15.435   9.713  0.4044 -0.1799 -0.0964
  279loPI   GL1 4453  16.084  15.711   9.416 -0.1563 -0.1617  0.5281
  279loPI   GL2 4454  16.141  15.458   9.248  0.2292 -0.2657 -0.0845
  279loPI   C1A 4455  15.831  15.711   8.866  0.0599  0.1481  0.0047
  279loPI   C2A 4456  15.755  15.756   8.428 -0.2077  0.0309 -0.1653
  279loPI   C3A 4457  15.681  15.905   8.082  0.1675 -0.1442  0.1367
  279loPI   C4A 4458  15.518  16.116   7.723  0.0776  0.1508  0.2788
  279loPI   C5A 4459  15.552  16.531   7.549 -0.0648 -0.1098 -0.1505
  279loPI   C6A 4460  15.319  16.713   7.231 -0.0258  0.0424  0.2349
  279loPI   C1B 4461  16.058  15.187   8.866  0.0937  0.0769  0.1150
  279loPI   C2B 4462  15.993  15.284   8.483 -0.0697 -0.0031 -0.1375
  279loPI   C3B 4463  16.027  15.432   8.114 -0.1005  0.1703  0.0208
  279loPI   C4B 4464  15.980  15.177   7.833 -0.1422  0.4643 -0.0300
  280loPI    C1 4465  12.262   2.347   9.733 -0.2473 -0.1064  0.1060
  280loPI    C2 4466  12.089   2.458  10.076 -0.0610  0.0736  0.1438
  280loPI    C3 4467  12.358   2.696   9.902  0.2393 -0.2538  0.1479
  280loPI   PO4 4468  12.103   2.189   9.609  0.3576 -0.1399 -0.1989
  280loPI   GL1 4469  11.691   2.425   9.388 -0.1981 -0.1143 -0.0714
  280loPI   GL2 4470  11.576   2.053   9.307  0.2524 -0.1226  0.0862
  280loPI   C1A 4471  11.466   2.648   9.029  0.1220  0.0873  0.1405
  280loPI   C2A 4472  11.487   2.503   8.546 -0.0754 -0.1002  0.1032
  280loPI   C3A 4473  11.538   2.569   8.124 -0.1643  0.3449 -0.5376
  280loPI   C4A 4474  11.365   2.796   7.874 -0.0951  0.0915 -0.2800
  280loPI   C5A 4475  11.440   3.166   7.592  0.3481  0.1659 -0.1714
  280loPI   C6A 4476  11.409   3.323   7.102  0.0534 -0.2219 -0.0948
  280loPI   C1B 4477  11.647   2.143   8.861  0.0532 -0.1833 -0.3791
  280loPI   C2B 4478  11.642   2.037   8.431 -0.1396 -0.0444 -0.0456
  280loPI   C3B 4479  11.545   1.832   8.122  0.0725 -0.1703  0.0609
  280loPI   C4B 4480  11.699   1.711   7.733 -0.0798  0.1151 -0.0129
  281loPI    C1 4481   7.155  14.144  10.423  0.2779  0.1146 -0.0656
  281loPI    C2 4482   7.155  14.379  10.747 -0.2083  0.1579 -0.0897
  281loPI    C3 4483   7.361  14.037  10.748 -0.0707  0.2390  0.2034
  281loPI   PO4 4484   7.007  14.343  10.084 -0.1109  0.0904  0.0958
  281loPI   GL1 4485   6.960  14.268   9.699  0.0090 -0.0047 -0.0229
  281loPI   GL2 4486   7.211  14.149   9.652 -0.0063 -0.1972  0.0554
  281loPI   C1A 4487   6.836  14.634   9.533 -0.2541 -0.1977  0.2897
  281loPI   C2A 4488   6.811  14.758   9.110 -0.0733 -0.0112 -0.3491
  281loPI   C3A 4489   6.674  14.914   8.770 -0.0974 -0.1917 -0.1846
  281loPI   C4A 4490   6.904  14.841   8.334 -0.0875 -0.0297  0.1060
  281loPI   C5A 4491   6.676  14.960   7.924  0.0668  0.0368  0.3095
  281loPI   C6A 4492   6.327  15.147   7.946  0.2119 -0.0994  0.1690
  281loPI   C1B 4493   7.046  14.317   9.146  0.0147 -0.0290  0.1646
  281loPI   C2B 4494   7.124  14.483   8.771 -0.2285  0.2198 -0.1716
  281loPI   C3B 4495   7.421  14.699   8.482  0.4051  0.1590  0.2741
  281loPI   C4B 4496   7.681  14.719   8.324 -0.1111 -0.2786  0.0922
  282loPI    C1 4497  15.536   8.449  10.058  0.2132 -0.1071 -0.0804
  282loPI    C2 4498  15.745   8.562  10.379  0.1033 -0.3144  0.0661
  282loPI    C3 4499  15.345   8.549  10.394  0.0819 -0.0339 -0.1755
  282loPI   PO4 4500  15.685   8.503   9.809  0.1019 -0.1539  0.0823
  282loPI   GL1 4501  15.801   8.240   9.359  0.0671  0.2728 -0.0865
  282loPI   GL2 4502  15.952   8.608   9.256 -0.1277 -0.0290 -0.6276
  282loPI   C1A 4503  15.625   8.236   8.894 -0.0133  0.0408 -0.1416
  282loPI   C2A 4504  15.278   8.281   8.650 -0.2107 -0.1372 -0.0308
  282loPI   C3A 4505  15.177   8.144   8.262  0.0417  0.0647  0.0968
  282loPI   C4A 4506  15.173   8.130   7.818 -0.1570 -0.0983 -0.1664
  282loPI   C5A 4507  15.218   8.195   7.328  0.1643 -0.3432 -0.2875
  282loPI   C6A 4508  15.354   7.874   6.998 -0.1040  0.1493  0.3482
  282loPI   C1B 4509  15.982   8.732   8.863  0.2084 -0.0512  0.0682
  282loPI   C2B 4510  16.091   8.742   8.393 -0.0897  0.1456 -0.2322
  282loPI   C3B 4511  16.162   8.556   7.959  0.1257 -0.1092  0.0627
  282loPI   C4B 4512  16.073   8.402   7.681  0.1490 -0.0549 -0.2586
  283loPI    C1 4513  18.065   7.530  10.216 -0.2089 -0.0653 -0.1340
  283loPI    C2 4514  18.386   7.356  10.379 -0.0530  0.1824 -0.1714
  283loPI    C3 4515  18.065   7.136  10.285 -0.0150 -0.0175  0.1532
  283loPI   PO4 4516  18.049   7.670   9.939 -0.2135 -0.1999  0.3183
  283loPI   GL1 4517  17.923   7.518   9.417  0.2515 -0.0647 -0.1013
  283loPI   GL2 4518  17.776   7.744   9.320 -0.4065  0.0774  0.2174
  283loPI   C1A 4519  18.086   7.577   8.959 -0.2412  0.4751  0.1591
  283loPI   C2A 4520  18.155   7.586   8.449 -0.1042  0.1349  0.2221
  283loPI   C3A 4521  18.300   7.524   8.009  0.1834  0.2111 -0.4581
  283loPI   C4A 4522  18.295   7.277   7.670  0.2086  0.0488  0.2306
  283loPI   C5A 4523  18.340   6.996   7.372  0.2447  0.0440  0.4022
  283loPI   C6A 4524  18.172   6.637   7.205 -0.0740  0.0177  0.0385
  283loPI   C1B 4525  17.641   7.334   9.048  0.0831  0.0639 -0.1040
  283loPI   C2B 4526  17.383   7.091   8.793  0.0293 -0.3153  0.0892
  283loPI   C3B 4527  17.350   7.050   8.324  0.2300 -0.2071 -0.1424
  283loPI   C4B 4528  17.476   6.722   7.924  0.1047 -0.2589 -0.2118
  284loPI    C1 4529  14.480   1.922   9.954 -0.2798  0.0284  0.3215
  284loPI    C2 4530  14.410   2.253   9.742 -0.0750 -0.2029 -0.1205
  284loPI    C3 4531  14.415   2.269  10.141 -0.1398  0.3085 -0.1331
  284loPI   PO4 4532  14.492   1.712   9.778 -0.2056 -0.1365  0.0782
  284loPI   GL1 4533  14.441   1.931   9.300 -0.1014 -0.1521  0.1601
  284loPI   GL2 4534  14.109   2.063   9.229  0.0988 -0.0907  0.0309
  284loPI   C1A 4535  14.401   1.992   8.828  0.0402  0.1123  0.4271
  284loPI   C2A 4536  14.415   2.117   8.427  0.3248 -0.0953  0.0025
  284loPI   C3A 4537  14.573   2.116   8.122 -0.5641  0.0921  0.0307
  284loPI   C4A 4538  14.694   1.955   7.656  0.2202  0.0021 -0.2327
  284loPI   C5A 4539  14.767   1.897   7.179 -0.5739 -0.2486  0.1450
  284loPI   C6A 4540  14.579   1.853   6.721  0.2505 -0.2278  0.4402
  284loPI   C1B 4541  14.103   2.394   8.888 -0.0718  0.1222 -0.0520
  284loPI   C2B 4542  14.000   2.585   8.525 -0.0305 -0.0766 -0.0753
  284loPI   C3B 4543  14.113   2.342   8.120 -0.1097 -0.2605  0.4174
  284loPI   C4B 4544  14.302   2.339   7.730  0.2586 -0.0209  0.2173
  285loPI    C1 4545  12.070  17.864   9.940 -0.0542 -0.1158 -0.4169
  285loPI    C2 4546  11.712  17.772   9.789 -0.3597  0.1016  0.1446
  285loPI    C3 4547  11.857  18.143   9.748 -0.2707  0.0576  0.0585
  285loPI   PO4 4548  12.227  17.683   9.870 -0.1339  0.0914 -0.0429
  285loPI   GL1 4549  12.105  17.619   9.481 -0.0213  0.0696  0.0621
  285loPI   GL2 4550  11.849  17.381   9.489 -0.2180 -0.0823  0.1185
  285loPI   C1A 4551  11.802  17.936   9.276 -0.0615 -0.5449  0.1050
  285loPI   C2A 4552  11.731  18.016   8.825  0.0699 -0.1676  0.3816
  285loPI   C3A 4553  11.715  17.973   8.389 -0.0964  0.2284  0.0152
  285loPI   C4A 4554  11.580  17.869   7.874  0.0091 -0.0058  0.0850
  285loPI   C5A 4555  11.823  17.969   7.475 -0.0460  0.0324  0.3818
  285loPI   C6A 4556  11.839  17.680   7.145  0.1180 -0.2046  0.0092
  285loPI   C1B 4557  11.908  17.544   9.015  0.0734 -0.0111 -0.1359
  285loPI   C2B 4558  11.877  17.559   8.567 -0.1489 -0.1959  0.0452
  285loPI   C3B 4559  11.972  17.506   8.144  0.1801 -0.0469  0.0342
  285loPI   C4B 4560  11.748  17.419   7.719 -0.1973 -0.1333  0.1043
  286loPI    C1 4561  10.930  15.160  10.029  0.1767  0.1114 -0.0485
  286loPI    C2 4562  10.770  14.894  10.281 -0.0119 -0.0813 -0.3647
  286loPI    C3 4563  11.168  14.934  10.257  0.0071 -0.0199 -0.0003
  286loPI   PO4 4564  10.861  15.066   9.685  0.1565 -0.0145 -0.0541
  286loPI   GL1 4565  10.748  14.997   9.325  0.2157  0.2780  0.2841
  286loPI   GL2 4566  10.878  14.653   9.393 -0.2534  0.0665  0.2468
  286loPI   C1A 4567  10.601  14.991   8.911 -0.0142  0.1221  0.0852
  286loPI   C2A 4568  10.437  15.032   8.421 -0.5493 -0.1481 -0.1782
  286loPI   C3A 4569  10.160  14.968   8.087 -0.0105 -0.0266  0.3133
  286loPI   C4A 4570   9.981  14.943   7.649  0.2099  0.1040 -0.1707
  286loPI   C5A 4571   9.592  14.779   7.767  0.0975 -0.0461  0.0201
  286loPI   C6A 4572   9.220  14.580   7.903 -0.0621 -0.0629  0.0028
  286loPI   C1B 4573  10.587  14.502   9.109  0.1070  0.1577 -0.3920
  286loPI   C2B 4574  10.366  14.625   8.761 -0.3367 -0.1098  0.2473
  286loPI   C3B 4575   9.997  14.630   8.538  0.1907 -0.1662  0.0593
  286loPI   C4B 4576   9.593  14.758   8.387  0.0351 -0.0649  0.2630
  287loPI    C1 4577  12.898  11.492  10.095 -0.0597 -0.1581  0.2126
  287loPI    C2 4578  13.242  11.505  10.297 -0.0165  0.5211  0.1188
  287loPI    C3 4579  12.903  11.409  10.486  0.1959 -0.0366  0.2372
  287loPI   PO4 4580  13.042  11.324   9.849  0.2665 -0.0330 -0.2447
  287loPI   GL1 4581  12.831  11.286   9.399 -0.2244  0.0020  0.0373
  287loPI   GL2 4582  12.987  10.961   9.448  0.5228  0.1289 -0.0463
  287loPI   C1A 4583  12.707  11.388   8.963  0.2012  0.1431  0.2783
  287loPI   C2A 4584  12.612  11.428   8.522 -0.1821  0.1973  0.1140
  287loPI   C3A 4585  12.452  11.364   8.109 -0.0146  0.3115 -0.1377
  287loPI   C4A 4586  12.544  11.586   7.730  0.2261 -0.2404  0.1093
  287loPI   C5A 4587  12.496  11.390   7.384 -0.2182 -0.2789 -0.1039
  287loPI   C6A 4588  12.236  11.393   7.088 -0.1932  0.1546 -0.0414
  287loPI   C1B 4589  13.017  10.995   8.988 -0.1743  0.1193  0.1750
  287loPI   C2B 4590  12.885  10.979   8.570 -0.1406  0.1281  0.3304
  287loPI   C3B 4591  12.846  11.064   8.065  0.2003 -0.2732 -0.1872
  287loPI   C4B 4592  12.558  10.891   7.736 -0.1204 -0.1774 -0.0058
  288loPI    C1 4593  12.222  15.319  10.019  0.1086  0.4142 -0.0872
  288loPI    C2 4594  11.923  15.485  10.227 -0.1534  0.0375 -0.1530
  288loPI    C3 4595  12.238  15.331  10.419 -0.0870  0.2676 -0.0736
  288loPI   PO4 4596  12.154  15.195   9.897  0.2258 -0.0776  0.0657
  288loPI   GL1 4597  12.077  15.166   9.471 -0.2286  0.2887 -0.1519
  288loPI   GL2 4598  11.845  14.984   9.308  0.1616 -0.0774  0.1812
  288loPI   C1A 4599  12.131  15.176   8.988 -0.1527  0.2181  0.0355
  288loPI   C2A 4600  12.100  15.110   8.498  0.0848 -0.0799 -0.0650
  288loPI   C3A 4601  11.938  15.162   8.138 -0.0858 -0.1045  0.3230
  288loPI   C4A 4602  11.753  15.437   7.887 -0.1254 -0.2037 -0.1626
  288loPI   C5A 4603  11.766  15.703   8.017  0.0766  0.0827  0.1006
  288loPI   C6A 4604  11.951  16.151   8.078  0.1791 -0.3235 -0.0130
  288loPI   C1B 4605  11.742  14.730   8.989  0.0413  0.0069 -0.2992
  288loPI   C2B 4606  11.488  14.491   8.632 -0.0309 -0.0592 -0.0658
  288loPI   C3B 4607  11.196  14.264   8.500 -0.3137 -0.3244  0.0255
  288loPI   C4B 4608  11.158  14.052   8.150 -0.2396  0.0806 -0.1049
  289loPI    C1 4609   8.857   5.511   9.434 -0.0163 -0.0856  0.0074
  289loPI    C2 4610   8.724   5.578   9.805  0.2358 -0.0856  0.0995
  289loPI    C3 4611   8.895   5.228   9.715  0.1990 -0.0755 -0.0099
  289loPI   PO4 4612   9.070   5.703   9.313 -0.1296 -0.0074  0.0681
  289loPI   GL1 4613   9.149   5.635   8.934 -0.0326  0.1345 -0.1338
  289loPI   GL2 4614   9.201   5.301   9.051 -0.0855 -0.1344  0.0834
  289loPI   C1A 4615   9.142   5.563   8.496  0.2029  0.1747 -0.0087
  289loPI   C2A 4616   9.203   5.618   8.176  0.1371  0.2739  0.0490
  289loPI   C3A 4617   9.312   5.610   7.745  0.0996  0.2544  0.0259
  289loPI   C4A 4618   9.574   5.631   7.356 -0.0430 -0.1562  0.1601
  289loPI   C5A 4619   9.997   5.671   7.261  0.2143 -0.1422 -0.0117
  289loPI   C6A 4620  10.306   5.475   7.229  0.4530  0.3094 -0.0484
  289loPI   C1B 4621   9.246   4.964   8.791 -0.1216 -0.0818 -0.2604
  289loPI   C2B 4622   9.339   4.961   8.280  0.0322 -0.0515 -0.0825
  289loPI   C3B 4623   9.400   4.768   7.891 -0.2975  0.0955  0.0340
  289loPI   C4B 4624   9.275   4.732   7.420  0.2613  0.3996  0.0103
  290loPI    C1 4625  17.332   9.240   9.931  0.0250 -0.0746  0.0596
  290loPI    C2 4626  17.497   9.473  10.211 -0.2183  0.3233 -0.1195
  290loPI    C3 4627  17.253   9.175  10.318  0.2784 -0.0110  0.1240
  290loPI   PO4 4628  17.419   9.071   9.705  0.3744 -0.2473 -0.0837
  290loPI   GL1 4629  17.253   9.101   9.253 -0.1611 -0.0863  0.3169
  290loPI   GL2 4630  16.895   9.113   9.192  0.1992 -0.1118 -0.0289
  290loPI   C1A 4631  17.395   9.056   8.838  0.1890  0.4457  0.2166
  290loPI   C2A 4632  17.401   9.049   8.358  0.0605 -0.0945 -0.2321
  290loPI   C3A 4633  17.624   9.149   8.054 -0.0149 -0.0613 -0.2649
  290loPI   C4A 4634  18.022   9.014   7.762 -0.0261 -0.0989  0.0344
  290loPI   C5A 4635  18.357   9.078   7.595 -0.1945 -0.1586 -0.3479
  290loPI   C6A 4636  18.783   9.061   7.529  0.0080 -0.0743  0.1858
  290loPI   C1B 4637  16.817   9.034   8.771  0.0459 -0.1160  0.0502
  290loPI   C2B 4638  16.747   9.043   8.404  0.1687 -0.3100 -0.0964
  290loPI   C3B 4639  16.520   8.867   8.151 -0.0286  0.0360  0.2014
  290loPI   C4B 4640  16.646   8.900   7.763  0.0567  0.2529 -0.2782
  291loPI    C1 4641  13.105  15.482  10.236 -0.0815  0.0836  0.0294
  291loPI    C2 4642  13.499  15.419  10.259 -0.0455  0.2119 -0.1999
  291loPI    C3 4643  13.296  15.541  10.582  0.0630 -0.0624 -0.0245
  291loPI   PO4 4644  13.088  15.550  10.044 -0.0258  0.1815 -0.1060
  291loPI   GL1 4645  13.131  15.799   9.636  0.2104  0.1548 -0.2561
  291loPI   GL2 4646  12.725  15.883   9.499 -0.0795 -0.0492 -0.1165
  291loPI   C1A 4647  13.121  15.632   9.117 -0.2979  0.0237 -0.0841
  291loPI   C2A 4648  13.071  15.613   8.681  0.0345  0.2243  0.1869
  291loPI   C3A 4649  13.155  15.515   8.260  0.2159 -0.0586  0.0331
  291loPI   C4A 4650  13.147  15.082   8.044 -0.1604  0.2053 -0.1711
  291loPI   C5A 4651  13.230  14.675   7.774  0.3885  0.2459 -0.5159
  291loPI   C6A 4652  13.324  14.546   7.385  0.1437  0.3017 -0.0528
  291loPI   C1B 4653  12.645  15.994   9.120 -0.3392 -0.2806  0.0527
  291loPI   C2B 4654  12.544  15.902   8.667 -0.1083  0.1056 -0.1594
  291loPI   C3B 4655  12.464  16.060   8.313 -0.0785 -0.2925  0.2705
  291loPI   C4B 4656  12.421  16.293   7.919 -0.2416  0.0194  0.1884
  292loPI    C1 4657  15.970   6.949   9.769  0.0082 -0.0917  0.2453
  292loPI    C2 4658  16.169   7.204  10.004 -0.0370  0.0086  0.1756
  292loPI    C3 4659  15.968   6.898  10.165  0.1621 -0.0864  0.2474
  292loPI   PO4 4660  16.143   6.997   9.552  0.0029  0.0311  0.0279
  292loPI   GL1 4661  16.245   6.911   9.160  0.0051 -0.3539  0.0215
  292loPI   GL2 4662  16.499   7.173   9.183 -0.4869 -0.1081 -0.2049
  292loPI   C1A 4663  16.042   7.019   8.769  0.2006 -0.1277 -0.1286
  292loPI   C2A 4664  16.017   7.104   8.335  0.0532  0.1534  0.1802
  292loPI   C3A 4665  16.029   7.157   7.859 -0.0194 -0.0622  0.1417
  292loPI   C4A 4666  16.057   7.559   7.651  0.4913 -0.1764  0.0612
  292loPI   C5A 4667  16.103   7.966   7.433 -0.2084 -0.1071  0.1799
  292loPI   C6A 4668  16.187   8.347   7.151 -0.0825 -0.0951  0.1441
  292loPI   C1B 4669  16.488   7.236   8.870 -0.2554 -0.3213 -0.1449
  292loPI   C2B 4670  16.518   7.262   8.455 -0.6171 -0.2422 -0.2817
  292loPI   C3B 4671  16.450   7.394   8.028 -0.0300 -0.0765  0.1461
  292loPI   C4B 4672  16.541   7.679   7.680 -0.1220  0.0320 -0.2285
  293loPI    C1 4673   5.341  15.060  10.162  0.1300 -0.0989 -0.0231
  293loPI    C2 4674   5.605  15.327  10.301 -0.2104  0.2763 -0.0815
  293loPI    C3 4675   5.545  14.984  10.498  0.3356  0.1724 -0.0831
  293loPI   PO4 4676   5.432  14.973   9.927 -0.1685  0.0509 -0.0734
  293loPI   GL1 4677   5.173  14.770   9.659 -0.0312  0.2804  0.0033
  293loPI   GL2 4678   4.929  15.062   9.634 -0.0694  0.4981  0.0036
  293loPI   C1A 4679   5.323  14.633   9.252 -0.1939 -0.0094  0.0122
  293loPI   C2A 4680   5.263  14.491   8.882 -0.2026 -0.1238  0.2583
  293loPI   C3A 4681   5.346  14.522   8.405  0.0583 -0.0470  0.1366
  293loPI   C4A 4682   5.373  14.548   7.945 -0.0328 -0.0639  0.1108
  293loPI   C5A 4683   5.177  14.208   7.744  0.1080  0.3644 -0.1362
  293loPI   C6A 4684   5.401  13.809   7.628 -0.0363 -0.3028 -0.1896
  293loPI   C1B 4685   5.047  15.045   9.120 -0.2283  0.0557  0.0820
  293loPI   C2B 4686   4.864  14.811   8.789  0.4682 -0.1031  0.0249
  293loPI   C3B 4687   4.775  14.710   8.406  0.3699  0.0277 -0.3393
  293loPI   C4B 4688   4.834  14.598   7.980  0.2358 -0.2568 -0.0221
  294loPI    C1 4689   7.170   4.469  10.321 -0.2804  0.2053  0.1364
  294loPI    C2 4690   6.875   4.340  10.560 -0.0870  0.0977  0.3202
  294loPI    C3 4691   7.240   4.407  10.710  0.0358  0.0364  0.0561
  294loPI   PO4 4692   7.076   4.220  10.041 -0.2485 -0.0509  0.3080
  294loPI   GL1 4693   7.077   4.038   9.617 -0.0153 -0.3066 -0.3015
  294loPI   GL2 4694   7.357   4.143   9.459 -0.0860  0.0939 -0.2242
  294loPI   C1A 4695   6.766   3.954   9.324 -0.0940  0.1108 -0.1092
  294loPI   C2A 4696   6.801   3.769   8.998  0.0215  0.0766  0.2541
  294loPI   C3A 4697   6.637   3.542   8.585  0.1758 -0.0575  0.0856
  294loPI   C4A 4698   6.212   3.439   8.432  0.0567 -0.1873  0.1093
  294loPI   C5A 4699   5.791   3.337   8.486 -0.2021 -0.0341 -0.2046
  294loPI   C6A 4700   5.354   3.330   8.364  0.0931 -0.2028  0.0160
  294loPI   C1B 4701   7.214   4.196   8.970  0.1328 -0.3120  0.1543
  294loPI   C2B 4702   7.293   4.413   8.572 -0.4452  0.0087 -0.1416
  294loPI   C3B 4703   7.422   4.420   8.180  0.0335 -0.2640 -0.5059
  294loPI   C4B 4704   7.734   4.243   8.008  0.1299  0.0404  0.2078
  295loPI    C1 4705   6.095   2.219  10.538  0.0681 -0.3955  0.0075
  295loPI    C2 4706   6.194   2.017  10.869  0.2758 -0.2895  0.0113
  295loPI    C3 4707   6.303   2.400  10.828  0.1374 -0.2639 -0.1235
  295loPI   PO4 4708   6.124   2.063  10.383  0.3788  0.1726 -0.1244
  295loPI   GL1 4709   6.018   1.938  10.013  0.2538 -0.0984  0.2699
  295loPI   GL2 4710   6.102   2.132   9.847 -0.0536  0.0463 -0.1638
  295loPI   C1A 4711   5.693   1.899   9.655 -0.1248  0.1841 -0.1949
  295loPI   C2A 4712   5.624   1.779   9.251  0.5081 -0.0616 -0.1582
  295loPI   C3A 4713   5.588   1.620   8.910  0.2908 -0.2794 -0.2293
  295loPI   C4A 4714   5.710   1.529   8.490  0.2037  0.0793 -0.0985
  295loPI   C5A 4715   5.938   1.324   8.147  0.0100  0.1033 -0.1490
  295loPI   C6A 4716   6.014   0.946   7.940 -0.1080 -0.0869 -0.1426
  295loPI   C1B 4717   5.939   2.175   9.339 -0.2072  0.0696 -0.0437
  295loPI   C2B 4718   5.888   2.116   8.920  0.0727 -0.0585 -0.1051
  295loPI   C3B 4719   5.774   1.990   8.570  0.1060  0.1993 -0.0335
  295loPI   C4B 4720   5.960   1.909   8.219  0.0278 -0.1287 -0.2219
  296loPI    C1 4721   7.981  17.848   9.998 -0.0126 -0.1541 -0.1043
  296loPI    C2 4722   8.372  17.924  10.038  0.0103 -0.1397 -0.3412
  296loPI    C3 4723   8.103  18.176  10.191  0.0928 -0.2362 -0.0302
  296loPI   PO4 4724   7.801  17.899   9.643  0.0348  0.0139 -0.3181
  296loPI   GL1 4725   7.498  17.636   9.348  0.4053  0.0963  0.2920
  296loPI   GL2 4726   7.269  17.926   9.302  0.1383 -0.1262 -0.0232
  296loPI   C1A 4727   7.269  17.477   9.009  0.0641 -0.0444  0.1655
  296loPI   C2A 4728   7.106  17.314   8.575 -0.0324  0.3395  0.0271
  296loPI   C3A 4729   7.058  17.218   8.100  0.0248  0.3395 -0.1522
  296loPI   C4A 4730   6.953  17.271   7.743  0.7083 -0.0475  0.2034
  296loPI   C5A 4731   6.589  17.581   7.644  0.0090  0.1464  0.0561
  296loPI   C6A 4732   6.360  17.595   7.473  0.0581  0.0065  0.1223
  296loPI   C1B 4733   7.433  18.006   9.002  0.1791 -0.0012  0.0316
  296loPI   C2B 4734   7.556  17.961   8.623 -0.0315 -0.1322  0.1177
  296loPI   C3B 4735   7.482  18.115   8.268 -0.2552  0.3791 -0.1475
  296loPI   C4B 4736   7.553  18.032   7.822 -0.4408  0.0449 -0.1957
  297loPI    C1 4737   9.831  17.633  10.159 -0.1910 -0.2949 -0.1725
  297loPI    C2 4738  10.032  17.318  10.015 -0.0523 -0.3328  0.0969
  297loPI    C3 4739   9.837  17.289  10.364  0.0207 -0.0998  0.1589
  297loPI   PO4 4740   9.710  17.678   9.853 -0.0848 -0.2399  0.0110
  297loPI   GL1 4741   9.823  17.874   9.539 -0.0284 -0.2804  0.1218
  297loPI   GL2 4742   9.457  17.853   9.368  0.1594  0.1196  0.2183
  297loPI   C1A 4743   9.715  18.159   9.164  0.1099 -0.0661  0.4100
  297loPI   C2A 4744   9.678  18.217   8.767 -0.0657 -0.0935  0.0570
  297loPI   C3A 4745   9.931  18.376   8.401  0.2436  0.2001 -0.1973
  297loPI   C4A 4746   9.981  18.460   7.932  0.0072  0.2435  0.2561
  297loPI   C5A 4747  10.033  18.572   7.536  0.2841 -0.1379  0.0535
  297loPI   C6A 4748   9.987  18.838   7.283  0.2006 -0.0053 -0.1786
  297loPI   C1B 4749   9.482  17.733   8.795  0.0063  0.1988  0.0453
  297loPI   C2B 4750   9.576  17.666   8.354  0.1201  0.1092  0.2453
  297loPI   C3B 4751   9.625  17.643   7.911 -0.1345 -0.3004 -0.0705
  297loPI   C4B 4752   9.483  17.310   7.680  0.0859 -0.6136  0.0580
  298loPI    C1 4753   1.603   4.340  10.392 -0.0271 -0.1974 -0.1330
  298loPI    C2 4754   1.259   4.544  10.381 -0.1486 -0.3934 -0.0214
  298loPI    C3 4755   1.388   4.387  10.726  0.1438 -0.1705 -0.0252
  298loPI   PO4 4756   1.700   4.269  10.173  0.3340  0.3123  0.2656
  298loPI   GL1 4757   1.758   4.221   9.764 -0.2300 -0.1211 -0.3455
  298loPI   GL2 4758   1.528   4.397   9.653  0.2317 -0.4322  0.1067
  298loPI   C1A 4759   1.844   4.011   9.425  0.1379  0.0420  0.2610
  298loPI   C2A 4760   1.763   3.858   9.012  0.1446  0.2569 -0.3607
  298loPI   C3A 4761   1.744   3.794   8.573  0.1656  0.0599  0.1714
  298loPI   C4A 4762   1.973   3.605   8.240 -0.4765 -0.2366  0.1824
  298loPI   C5A 4763   2.384   3.384   8.115  0.1175  0.4174 -0.1830
  298loPI   C6A 4764   2.720   3.141   8.182 -0.4511 -0.2488  0.0321
  298loPI   C1B 4765   1.503   4.294   9.263  0.4012  0.0991 -0.2001
  298loPI   C2B 4766   1.584   4.265   8.815 -0.1027 -0.1891 -0.0878
  298loPI   C3B 4767   1.682   4.303   8.287 -0.2512 -0.0225 -0.4513
  298loPI   C4B 4768   1.994   4.037   8.074 -0.0084 -0.2872 -0.3258
  299loPI    C1 4769   9.683  10.607  10.068  0.2141  0.1075  0.0403
  299loPI    C2 4770   9.950  10.898  10.131  0.3689 -0.0746  0.2380
  299loPI    C3 4771   9.619  10.879  10.355  0.1378  0.2084 -0.0715
  299loPI   PO4 4772   9.743  10.617   9.734 -0.4149  0.0500  0.3596
  299loPI   GL1 4773  10.031  10.493   9.375  0.0641  0.2643  0.1605
  299loPI   GL2 4774  10.059  10.169   9.196  0.0368 -0.0727  0.1760
  299loPI   C1A 4775  10.202  10.740   9.221 -0.0190  0.1730  0.0197
  299loPI   C2A 4776  10.151  10.855   8.784  0.1615  0.0515  0.1412
  299loPI   C3A 4777  10.192  11.080   8.408  0.3083  0.0608 -0.4182
  299loPI   C4A 4778  10.297  11.125   8.033 -0.2321 -0.2144 -0.1498
  299loPI   C5A 4779  10.473  10.993   7.683  0.0005 -0.0602  0.0062
  299loPI   C6A 4780  10.576  10.827   7.324 -0.0079  0.0219 -0.1806
  299loPI   C1B 4781   9.852   9.937   8.968 -0.2228 -0.1079  0.1342
  299loPI   C2B 4782   9.589   9.704   8.830 -0.1547  0.1424 -0.1364
  299loPI   C3B 4783   9.279   9.326   8.615 -0.1769  0.1396  0.0482
  299loPI   C4B 4784   8.927   9.219   8.444  0.0511 -0.0798 -0.1966
  300loPI    C1 4785   9.897   8.587  10.294 -0.1130 -0.3415 -0.0935
  300loPI    C2 4786  10.288   8.506  10.328 -0.0107  0.0877 -0.1844
  300loPI    C3 4787  10.016   8.232  10.434  0.3126 -0.3177 -0.3752
  300loPI   PO4 4788   9.805   8.729   9.976  0.1389  0.2594  0.0471
  300loPI   GL1 4789   9.702   8.697   9.506 -0.2587  0.1285  0.0294
  300loPI   GL2 4790   9.975   8.872   9.567 -0.1820  0.1663 -0.0532
  300loPI   C1A 4791   9.750   8.588   9.060 -0.2799 -0.1560 -0.0573
  300loPI   C2A 4792   9.804   8.498   8.637 -0.0039  0.4970  0.0783
  300loPI   C3A 4793   9.730   8.608   8.196 -0.0245 -0.3748 -0.2533
  300loPI   C4A 4794   9.642   8.291   7.856 -0.0815 -0.1911  0.0585
  300loPI   C5A 4795   9.524   8.390   7.398 -0.0531 -0.2602  0.2339
  300loPI   C6A 4796   8.956   8.368   7.274  0.1796  0.2175  0.1628
  300loPI   C1B 4797  10.089   8.937   9.136  0.3465 -0.1896  0.0791
  300loPI   C2B 4798  10.129   8.876   8.772  0.1991  0.1054 -0.1489
  300loPI   C3B 4799  10.027   8.953   8.393 -0.0106 -0.0188  0.0345
  300loPI   C4B 4800   9.834   9.201   8.179 -0.4148 -0.2586  0.0462
  301loPI    C1 4801   9.196  14.836  10.206 -0.1845 -0.1381  0.1637
  301loPI    C2 4802   8.965  14.706  10.506  0.0015 -0.0644  0.3416
  301loPI    C3 4803   9.254  14.471  10.361 -0.1145 -0.1158  0.1902
  301loPI   PO4 4804   8.957  14.961   9.974 -0.2742 -0.1973 -0.0782
  301loPI   GL1 4805   8.890  15.034   9.518  0.0440  0.6157 -0.4697
  301loPI   GL2 4806   9.152  15.275   9.527  0.1783 -0.1842  0.0275
  301loPI   C1A 4807   8.781  14.913   9.196 -0.0472  0.1106 -0.1040
  301loPI   C2A 4808   8.681  14.708   8.757 -0.1078 -0.2937  0.2447
  301loPI   C3A 4809   8.582  14.646   8.350  0.1414 -0.3994 -0.2484
  301loPI   C4A 4810   8.318  14.772   8.118  0.0643  0.0872  0.1256
  301loPI   C5A 4811   7.929  14.877   7.849 -0.0496  0.0051  0.1069
  301loPI   C6A 4812   7.657  14.879   7.483 -0.0463  0.1892 -0.1261
  301loPI   C1B 4813   9.248  15.351   9.144  0.1147  0.1824 -0.0511
  301loPI   C2B 4814   8.981  15.168   8.891 -0.0670 -0.0626  0.0495
  301loPI   C3B 4815   8.950  15.120   8.481  0.0100  0.0425 -0.0092
  301loPI   C4B 4816   8.899  14.947   8.149  0.0524 -0.3160  0.0127
  302loPI    C1 4817   9.727   7.345   9.878  0.0728 -0.0224  0.1148
  302loPI    C2 4818  10.072   7.427   9.693  0.0921 -0.4558 -0.0536
  302loPI    C3 4819  10.074   7.243  10.048  0.0427  0.0113  0.1964
  302loPI   PO4 4820   9.492   7.324   9.705  0.0855  0.0284 -0.0452
  302loPI   GL1 4821   9.427   7.257   9.245  0.3166 -0.2350 -0.1391
  302loPI   GL2 4822   9.751   7.311   9.155 -0.0789 -0.1513  0.3062
  302loPI   C1A 4823   9.028   7.261   8.872  0.1880 -0.0562 -0.1268
  302loPI   C2A 4824   9.072   7.280   8.447 -0.2313 -0.0373 -0.1855
  302loPI   C3A 4825   9.350   7.321   8.149 -0.0880  0.0879  0.1996
  302loPI   C4A 4826   9.419   7.410   7.818 -0.2252 -0.1425  0.2126
  302loPI   C5A 4827   9.191   7.582   7.422 -0.1933 -0.1642 -0.0353
  302loPI   C6A 4828   8.920   7.845   7.239  0.5988 -0.0583 -0.1109
  302loPI   C1B 4829   9.616   7.461   8.778 -0.0356 -0.1145 -0.1705
  302loPI   C2B 4830   9.748   7.567   8.328 -0.2675  0.3861  0.1682
  302loPI   C3B 4831   9.838   7.802   7.928  0.3113 -0.0053 -0.3092
  302loPI   C4B 4832   9.958   8.067   7.526  0.0715 -0.0365  0.0744
  303loPI    C1 4833  17.678  14.515   9.724 -0.1418 -0.0537  0.0749
  303loPI    C2 4834  17.588  14.127   9.688 -0.0424 -0.0476 -0.2718
  303loPI    C3 4835  17.949  14.236   9.819  0.0156 -0.0744 -0.4069
  303loPI   PO4 4836  17.554  14.586   9.542  0.0380 -0.0557 -0.1001
  303loPI   GL1 4837  17.595  14.505   9.105 -0.0001  0.2822  0.2580
  303loPI   GL2 4838  17.660  14.250   9.180 -0.0254  0.0252 -0.0554
  303loPI   C1A 4839  17.998  14.533   8.847 -0.1872 -0.2692  0.1041
  303loPI   C2A 4840  17.979  14.499   8.486 -0.0955  0.2398  0.0860
  303loPI   C3A 4841  18.011  14.437   7.985  0.0240 -0.2695  0.1570
  303loPI   C4A 4842  17.968  14.457   7.519  0.0483  0.1397  0.1692
  303loPI   C5A 4843  17.997  14.780   7.423  0.0157 -0.0841  0.2796
  303loPI   C6A 4844  17.788  14.986   7.091 -0.0152 -0.0046  0.0832
  303loPI   C1B 4845  17.471  14.244   8.695  0.0692  0.2989  0.0084
  303loPI   C2B 4846  17.400  14.344   8.226 -0.1164  0.0671  0.1395
  303loPI   C3B 4847  17.503  14.293   7.766  0.2191  0.0679  0.3054
  303loPI   C4B 4848  17.616  14.063   7.370 -0.1325 -0.2532  0.2158
  304loPI    C1 4849   7.424   9.793   9.627  0.0688  0.0084  0.0454
  304loPI    C2 4850   7.179   9.980   9.882 -0.2524 -0.2343 -0.0785
  304loPI    C3 4851   7.568   9.945   9.968 -0.2171  0.3249  0.0309
  304loPI   PO4 4852   7.381   9.842   9.361 -0.2211  0.3738 -0.0523
  304loPI   GL1 4853   7.676   9.737   9.016 -0.0684 -0.1108  0.0208
  304loPI   GL2 4854   7.759   9.463   9.279  0.0453 -0.2766 -0.1163
  304loPI   C1A 4855   7.658   9.776   8.647  0.0830 -0.1786 -0.2054
  304loPI   C2A 4856   7.732   9.759   8.278  0.1632 -0.2144 -0.0391
  304loPI   C3A 4857   7.673   9.499   7.827  0.2228  0.0680 -0.0256
  304loPI   C4A 4858   7.545   9.081   7.835  0.0176 -0.0342 -0.0540
  304loPI   C5A 4859   7.233   8.765   7.569 -0.0368  0.1074  0.2574
  304loPI   C6A 4860   7.034   8.420   7.713 -0.0768 -0.3567 -0.0088
  304loPI   C1B 4861   7.865   9.231   9.089  0.3522 -0.0119 -0.1324
  304loPI   C2B 4862   7.945   9.262   8.777 -0.0581 -0.2162  0.1408
  304loPI   C3B 4863   7.816   9.322   8.479 -0.0835 -0.1734 -0.0037
  304loPI   C4B 4864   7.989   9.247   8.102  0.2669  0.0020  0.0265
  305loPI    C1 4865   5.793   4.956  10.416  0.0215  0.0967 -0.0036
  305loPI    C2 4866   5.706   5.114  10.773  0.1728 -0.0510  0.0998
  305loPI    C3 4867   6.033   5.232  10.575 -0.0748  0.2582 -0.1350
  305loPI   PO4 4868   5.605   5.030  10.249 -0.2881 -0.0915 -0.1676
  305loPI   GL1 4869   5.659   4.872   9.735  0.0581 -0.1729 -0.0446
  305loPI   GL2 4870   5.540   5.053   9.575  0.1662 -0.1023 -0.1025
  305loPI   C1A 4871   6.032   4.548   9.550 -0.6107 -0.0654  0.0414
  305loPI   C2A 4872   6.361   4.772   9.349 -0.1753 -0.0794 -0.0447
  305loPI   C3A 4873   6.652   4.823   8.959  0.0194 -0.2121  0.0389
  305loPI   C4A 4874   6.744   4.726   8.576 -0.2809  0.1723  0.2310
  305loPI   C5A 4875   6.724   4.354   8.374 -0.1474  0.0878 -0.0006
  305loPI   C6A 4876   6.613   4.254   7.958 -0.4222 -0.1339 -0.2051
  305loPI   C1B 4877   5.314   4.902   9.174 -0.0834 -0.0932 -0.1094
  305loPI   C2B 4878   5.394   4.774   8.706 -0.0467 -0.3396  0.2684
  305loPI   C3B 4879   5.071   4.479   8.516  0.3608 -0.1243  0.0495
  305loPI   C4B 4880   4.821   4.482   8.155 -0.0413  0.2847 -0.0113
  306loPI    C1 4881   6.607   8.753   9.957  0.1846 -0.0087  0.0318
  306loPI    C2 4882   6.910   8.621  10.182  0.1582  0.0742  0.1167
  306loPI    C3 4883   6.542   8.646  10.337  0.1568  0.2153  0.0917
  306loPI   PO4 4884   6.763   8.663   9.701  0.3493  0.0945  0.3930
  306loPI   GL1 4885   7.071   8.580   9.408  0.2247 -0.0369  0.0752
  306loPI   GL2 4886   7.000   8.988   9.386 -0.2650  0.0206 -0.0489
  306loPI   C1A 4887   7.106   8.424   9.020  0.2409  0.0522 -0.0725
  306loPI   C2A 4888   7.221   8.711   8.585 -0.2427  0.2001 -0.1033
  306loPI   C3A 4889   7.260   8.576   8.137  0.3257 -0.2617  0.1259
  306loPI   C4A 4890   7.487   8.305   7.860  0.2814  0.0973  0.1603
  306loPI   C5A 4891   7.611   7.928   7.572  0.3545 -0.0848  0.0008
  306loPI   C6A 4892   7.245   7.917   7.471 -0.0355  0.2104  0.2404
  306loPI   C1B 4893   6.756   8.858   9.064 -0.0418  0.0576  0.2283
  306loPI   C2B 4894   6.423   8.846   8.787  0.4090  0.2196 -0.1353
  306loPI   C3B 4895   6.285   8.675   8.346  0.1580 -0.0825  0.1572
  306loPI   C4B 4896   5.889   8.607   8.049  0.3642 -0.1098 -0.3463
  307loPI    C1 4897  11.960   3.364   9.363  0.2898 -0.0720  0.2373
  307loPI    C2 4898  11.788   3.331   9.722 -0.0123  0.3270  0.1367
  307loPI    C3 4899  11.614   3.550   9.437  0.1193 -0.1469 -0.3237
  307loPI   PO4 4900  12.164   3.153   9.369 -0.2393 -0.1523 -0.2904
  307loPI   GL1 4901  12.434   3.069   8.995 -0.1067 -0.1283 -0.1297
  307loPI   GL2 4902  12.722   3.199   9.166 -0.0061  0.2130  0.1896
  307loPI   C1A 4903  12.007   3.018   8.725 -0.0124  0.2872  0.0472
  307loPI   C2A 4904  11.800   3.064   8.386  0.0230 -0.1416 -0.0777
  307loPI   C3A 4905  11.807   3.028   8.006 -0.0167 -0.2289  0.2449
  307loPI   C4A 4906  12.110   3.025   7.622 -0.0206  0.0532  0.1568
  307loPI   C5A 4907  12.301   3.072   7.196 -0.1114 -0.1066 -0.0799
  307loPI   C6A 4908  12.502   3.349   7.035  0.1827  0.2317 -0.0820
  307loPI   C1B 4909  12.739   3.305   8.704 -0.0965  0.0664  0.2138
  307loPI   C2B 4910  12.718   3.314   8.245 -0.1236 -0.1529  0.1976
  307loPI   C3B 4911  12.857   3.293   7.819  0.0839 -0.0172  0.2435
  307loPI   C4B 4912  12.908   3.329   7.355 -0.3943 -0.0704  0.2643
  308loPI    C1 4913   7.884  10.197  10.361 -0.2973  0.0800  0.2151
  308loPI    C2 4914   7.780   9.811  10.374  0.0570 -0.0149  0.3556
  308loPI    C3 4915   8.159   9.918  10.444 -0.0081  0.3475  0.1761
  308loPI   PO4 4916   7.893  10.283  10.114 -0.1867 -0.2645  0.2808
  308loPI   GL1 4917   7.765  10.419   9.714 -0.1695  0.2674 -0.1797
  308loPI   GL2 4918   7.687  10.717   9.650  0.1587 -0.4561  0.0165
  308loPI   C1A 4919   7.903  10.379   9.300  0.0351 -0.2101 -0.1470
  308loPI   C2A 4920   7.923  10.176   8.948  0.2965  0.2742  0.0599
  308loPI   C3A 4921   7.908  10.235   8.484 -0.0450 -0.0487 -0.1457
  308loPI   C4A 4922   7.899  10.241   8.057  0.1679 -0.4172  0.1645
  308loPI   C5A 4923   7.982  10.516   7.649  0.1081 -0.2227  0.1737
  308loPI   C6A 4924   8.251  10.802   7.568 -0.1334  0.1938 -0.0615
  308loPI   C1B 4925   7.724  10.828   9.155 -0.1943 -0.0115  0.1329
  308loPI   C2B 4926   7.873  10.729   8.811 -0.0068  0.1084 -0.0005
  308loPI   C3B 4927   7.884  10.776   8.311  0.5077 -0.3133 -0.3346
  308loPI   C4B 4928   8.032  10.931   7.996 -0.0940 -0.1065  0.2526
  309loPI    C1 4929  17.077   5.607   9.889  0.0719  0.0445  0.2901
  309loPI    C2 4930  16.705   5.694  10.005  0.0197  0.4111 -0.1269
  309loPI    C3 4931  17.010   5.747  10.258 -0.2424 -0.3101  0.3737
  309loPI   PO4 4932  17.020   5.641   9.649  0.0923 -0.1273 -0.0550
  309loPI   GL1 4933  17.027   5.471   9.217 -0.2267  0.1447 -0.3229
  309loPI   GL2 4934  16.649   5.529   9.301 -0.1193 -0.0035 -0.0994
  309loPI   C1A 4935  17.327   5.441   8.847 -0.1400  0.0105  0.3994
  309loPI   C2A 4936  17.299   5.486   8.437 -0.4424 -0.0918 -0.3600
  309loPI   C3A 4937  17.396   5.463   8.029 -0.2242 -0.3254 -0.1197
  309loPI   C4A 4938  17.189   5.217   7.748  0.1335 -0.0382 -0.4016
  309loPI   C5A 4939  17.068   5.275   7.298  0.0397  0.0872  0.1255
  309loPI   C6A 4940  16.676   5.110   7.303 -0.2526 -0.1064  0.0966
  309loPI   C1B 4941  16.675   5.703   8.935 -0.1219 -0.1204  0.0683
  309loPI   C2B 4942  16.776   5.778   8.529  0.3860 -0.3000 -0.2970
  309loPI   C3B 4943  16.606   5.903   8.057  0.3959 -0.3181 -0.2176
  309loPI   C4B 4944  16.618   6.081   7.701  0.0243 -0.1563 -0.0937
  310loPI    C1 4945   9.432   3.118   9.828 -0.2466 -0.0716  0.0260
  310loPI    C2 4946   9.568   3.145  10.203  0.0957 -0.0559 -0.0958
  310loPI    C3 4947   9.189   3.241  10.121 -0.0053 -0.1365  0.2576
  310loPI   PO4 4948   9.561   2.932   9.752  0.0199 -0.1945  0.3448
  310loPI   GL1 4949   9.684   2.776   9.353  0.1002 -0.2603  0.0191
  310loPI   GL2 4950   9.813   3.071   9.311  0.2770  0.0440  0.2374
  310loPI   C1A 4951   9.602   2.599   9.018 -0.1333  0.2576  0.1317
  310loPI   C2A 4952   9.356   2.631   8.567 -0.1151 -0.0474  0.1792
  310loPI   C3A 4953   9.397   2.516   8.151 -0.3116  0.0297  0.2958
  310loPI   C4A 4954   9.425   2.426   7.650  0.3560 -0.0916  0.0193
  310loPI   C5A 4955   9.474   1.977   7.516  0.1563 -0.1290 -0.3284
  310loPI   C6A 4956   9.418   1.627   7.774  0.0199 -0.1879 -0.2379
  310loPI   C1B 4957   9.621   3.420   8.975  0.0754 -0.3011 -0.0640
  310loPI   C2B 4958   9.346   3.499   8.580  0.1979  0.1812  0.1179
  310loPI   C3B 4959   9.485   3.464   8.098 -0.1340 -0.1357  0.3586
  310loPI   C4B 4960   9.681   3.384   7.692 -0.1457 -0.0564 -0.3096
  311loPI    C1 4961   3.307   2.628  10.207 -0.1834 -0.1571  0.0534
  311loPI    C2 4962   3.151   2.929  10.420 -0.0403 -0.1288  0.1198
  311loPI    C3 4963   3.168   2.561  10.576 -0.0944 -0.1444  0.0894
  311loPI   PO4 4964   3.316   2.804   9.949  0.0716 -0.1591 -0.4243
  311loPI   GL1 4965   3.299   2.845   9.518 -0.1982  0.0383 -0.2817
  311loPI   GL2 4966   3.431   2.579   9.553 -0.0280 -0.2473 -0.1089
  311loPI   C1A 4967   3.515   2.871   9.101 -0.1142  0.0515 -0.0522
  311loPI   C2A 4968   3.444   2.789   8.710 -0.3818  0.4222 -0.2208
  311loPI   C3A 4969   3.309   2.720   8.455  0.3002 -0.1936  0.2390
  311loPI   C4A 4970   3.210   2.933   8.074 -0.5278 -0.0923 -0.0082
  311loPI   C5A 4971   3.300   3.239   7.743  0.0301 -0.0826  0.0138
  311loPI   C6A 4972   3.281   3.392   7.298 -0.0650  0.1297  0.0082
  311loPI   C1B 4973   3.354   2.241   9.363 -0.0442 -0.2434  0.3161
  311loPI   C2B 4974   3.239   2.248   8.947  0.3763 -0.0212 -0.3064
  311loPI   C3B 4975   2.974   2.395   8.702  0.3422 -0.2548 -0.2329
  311loPI   C4B 4976   2.939   2.452   8.291  0.2431  0.0236 -0.0569
  312loPI    C1 4977  10.598   2.115  10.241  0.0791  0.1242 -0.0684
  312loPI    C2 4978  10.890   1.977  10.477 -0.0716  0.0566  0.0805
  312loPI    C3 4979  10.557   2.128  10.638 -0.0817  0.2171 -0.0874
  312loPI   PO4 4980  10.605   1.925  10.001 -0.0134 -0.2280  0.0836
  312loPI   GL1 4981  10.470   1.882   9.536  0.3347  0.0879  0.2274
  312loPI   GL2 4982  10.710   2.068   9.408 -0.1209  0.1918  0.1602
  312loPI   C1A 4983  10.363   1.745   9.113  0.1993  0.0767 -0.1928
  312loPI   C2A 4984  10.279   1.757   8.714 -0.1777 -0.1902  0.2036
  312loPI   C3A 4985  10.428   1.711   8.206 -0.1830 -0.4260 -0.3311
  312loPI   C4A 4986  10.557   2.092   7.905  0.3383  0.4395 -0.1488
  312loPI   C5A 4987  10.592   2.337   7.618 -0.0076  0.3702  0.0731
  312loPI   C6A 4988  10.341   2.313   7.223 -0.0236  0.1579  0.0937
  312loPI   C1B 4989  11.060   1.954   9.106  0.1853 -0.2591 -0.0817
  312loPI   C2B 4990  11.185   2.120   8.610  0.2781  0.1683 -0.1119
  312loPI   C3B 4991  11.147   2.200   8.172 -0.0404 -0.0806  0.0666
  312loPI   C4B 4992  10.985   1.998   7.726 -0.1662 -0.1143  0.0980
  313loPI    C1 4993  17.980  11.010  10.089  0.0963 -0.0329 -0.1116
  313loPI    C2 4994  18.368  11.091  10.038  0.1167 -0.0458  0.0191
  313loPI    C3 4995  18.253  10.840  10.327  0.0080 -0.0106  0.0066
  313loPI   PO4 4996  17.879  11.070   9.815 -0.3104 -0.1828 -0.3388
  313loPI   GL1 4997  18.088  11.208   9.436  0.0985 -0.1735  0.3016
  313loPI   GL2 4998  17.772  11.275   9.376  0.0631 -0.0675 -0.0604
  313loPI   C1A 4999  18.073  10.965   9.144 -0.0934  0.1236  0.0998
  313loPI   C2A 5000  18.111  10.908   8.784 -0.0742  0.4211  0.0639
  313loPI   C3A 5001  18.059  10.898   8.301 -0.1170  0.1526  0.2509
  313loPI   C4A 5002  18.247  11.001   7.884  0.1070 -0.0264 -0.3154
  313loPI   C5A 5003  18.063  11.042   7.426  0.2002 -0.0400  0.0819
  313loPI   C6A 5004  17.903  11.188   7.023 -0.1524  0.1543  0.1428
  313loPI   C1B 5005  17.639  11.071   8.965 -0.1472  0.4836 -0.1230
  313loPI   C2B 5006  17.590  10.941   8.607 -0.0797  0.0421  0.0673
  313loPI   C3B 5007  17.475  10.962   8.140  0.1830  0.1504 -0.0050
  313loPI   C4B 5008  17.734  11.098   7.781  0.2465  0.1622 -0.1091
  314loPI    C1 5009   0.245  18.954   9.756 -0.0870  0.2732  0.0052
  314loPI    C2 5010   0.431  18.689   9.991 -0.1896  0.0296 -0.1824
  314loPI    C3 5011   0.262  19.015  10.150 -0.2197 -0.1091  0.0747
  314loPI   PO4 5012   0.089  18.834   9.611 -0.2644  0.0251  0.1887
  314loPI   GL1 5013   0.229  18.543   9.243 -0.1799 -0.0621  0.3666
  314loPI   GL2 5014   0.147  18.252   9.189 -0.1345 -0.1176  0.0614
  314loPI   C1A 5015   0.254  18.787   8.816 -0.1541  0.1279  0.1812
  314loPI   C2A 5016   0.325  18.732   8.410  0.1153 -0.4681  0.2001
  314loPI   C3A 5017   0.425  18.926   7.923 -0.0041  0.1216 -0.1021
  314loPI   C4A 5018   0.517  19.196   7.646  0.1007  0.1453 -0.4256
  314loPI   C5A 5019   0.453  19.682   7.610 -0.0479 -0.0060 -0.0377
  314loPI   C6A 5020   0.506  19.935   7.274  0.0773 -0.0041  0.0122
  314loPI   C1B 5021   0.267  18.266   8.747 -0.0424  0.0166 -0.0994
  314loPI   C2B 5022   0.531  18.279   8.441 -0.0973  0.3014 -0.2506
  314loPI   C3B 5023   0.757  17.997   8.168 -0.2708  0.1421 -0.0653
  314loPI   C4B 5024   0.482  17.589   7.997  0.2234  0.2004  0.0371
  315loPI    C1 5025  11.417  18.769  10.166 -0.2172  0.0178 -0.0789
  315loPI    C2 5026  11.769  18.697   9.989 -0.0229  0.0343  0.2913
  315loPI    C3 5027  11.481  18.420   9.980  0.0686 -0.0579  0.1533
  315loPI   PO4 5028  11.360  19.061  10.066  0.0417 -0.1063 -0.3131
  315loPI   GL1 5029  11.502  19.309   9.792  0.0454 -0.1923  0.1110
  315loPI   GL2 5030  11.809  19.120   9.737  0.2390  0.0507 -0.2976
  315loPI   C1A 5031  11.207  19.272   9.432 -0.1866  0.1321 -0.1337
  315loPI   C2A 5032  11.081  19.068   9.021  0.0876 -0.0521 -0.2686
  315loPI   C3A 5033  10.892  18.983   8.539 -0.0660  0.1876  0.0940
  315loPI   C4A 5034  10.924  18.900   8.029 -0.1012  0.1875  0.3372
  315loPI   C5A 5035  11.360  18.924   7.766 -0.0092 -0.0877 -0.0686
  315loPI   C6A 5036  11.488  18.734   7.378  0.0203 -0.2069 -0.2868
  315loPI   C1B 5037  11.639  19.048   9.371  0.0403  0.0132 -0.3081
  315loPI   C2B 5038  11.592  19.071   8.996  0.0374 -0.2358  0.4049
  315loPI   C3B 5039  11.320  18.814   8.697  0.1890  0.0043  0.2800
  315loPI   C4B 5040  11.392  18.732   8.253 -0.0836 -0.0191  0.1610
  316loPI    C1 5041  19.073  11.411   9.891 -0.1544 -0.0960 -0.0588
  316loPI    C2 5042  19.436  11.484  10.043 -0.1353  0.1571 -0.2192
  316loPI    C3 5043  19.329  11.109   9.951  0.0642  0.0742 -0.1211
  316loPI   PO4 5044  19.001  11.610   9.736 -0.1419  0.0481 -0.0344
  316loPI   GL1 5045  18.733  11.619   9.295  0.2730  0.0658  0.2085
  316loPI   GL2 5046  18.742  11.332   9.054  0.1488 -0.2227 -0.1578
  316loPI   C1A 5047  18.602  11.803   8.914  0.1420  0.0360  0.1967
  316loPI   C2A 5048  18.573  11.667   8.513  0.0109  0.1679  0.0835
  316loPI   C3A 5049  18.432  11.550   8.218 -0.0798  0.2164  0.0859
  316loPI   C4A 5050  18.349  11.510   7.758 -0.0454  0.5075 -0.1565
  316loPI   C5A 5051  18.074  11.629   7.435 -0.0780  0.1787 -0.1637
  316loPI   C6A 5052  17.641  11.585   7.348 -0.0088  0.1290 -0.1176
  316loPI   C1B 5053  18.507  11.225   8.733 -0.1829 -0.1900  0.0759
  316loPI   C2B 5054  18.540  11.026   8.307 -0.1060 -0.0950 -0.1354
  316loPI   C3B 5055  18.822  10.812   8.088 -0.3551  0.4428 -0.0316
  316loPI   C4B 5056  18.957  10.725   7.651  0.0477 -0.2038 -0.4069
  317loPI    C1 5057  11.565   7.253   9.842 -0.1196  0.1052  0.0123
  317loPI    C2 5058  11.520   7.548  10.108  0.1298  0.1233  0.0365
  317loPI    C3 5059  11.700   7.207  10.216 -0.0350  0.0147 -0.0288
  317loPI   PO4 5060  11.619   7.336   9.555 -0.1543 -0.0538 -0.1393
  317loPI   GL1 5061  11.532   7.222   9.071  0.0434  0.0272 -0.3756
  317loPI   GL2 5062  11.220   7.432   9.163  0.0540  0.0907 -0.0717
  317loPI   C1A 5063  11.751   7.182   8.540 -0.0049 -0.0634 -0.0832
  317loPI   C2A 5064  11.844   7.166   8.156  0.1245 -0.1803 -0.1322
  317loPI   C3A 5065  11.899   7.018   7.743  0.1678 -0.1692  0.0143
  317loPI   C4A 5066  12.085   6.758   7.441 -0.3452  0.2763  0.3035
  317loPI   C5A 5067  12.341   6.374   7.488  0.1166 -0.0862  0.0277
  317loPI   C6A 5068  12.674   6.375   7.693  0.0031  0.1077 -0.0295
  317loPI   C1B 5069  11.378   7.677   8.845  0.2906  0.0129 -0.0462
  317loPI   C2B 5070  11.380   7.884   8.497 -0.1963  0.0747  0.1679
  317loPI   C3B 5071  11.559   7.881   8.077 -0.1655  0.0123 -0.1917
  317loPI   C4B 5072  11.619   7.980   7.692  0.0895 -0.2476 -0.2461
  318loPI    C1 5073  12.742   5.151   9.871  0.2343 -0.0814 -0.1618
  318loPI    C2 5074  12.347   5.098   9.908  0.2676 -0.3674 -0.1957
  318loPI    C3 5075  12.549   5.301  10.187  0.1511 -0.5210  0.0023
  318loPI   PO4 5076  12.631   5.243   9.551 -0.1886  0.0290 -0.1434
  318loPI   GL1 5077  12.772   5.052   9.285 -0.3287  0.0416  0.0354
  318loPI   GL2 5078  13.023   5.157   9.186  0.1954 -0.0375  0.3621
  318loPI   C1A 5079  12.824   4.730   8.946  0.0779  0.0971 -0.2716
  318loPI   C2A 5080  12.932   5.024   8.542  0.2417  0.1355  0.1939
  318loPI   C3A 5081  12.903   5.050   8.061 -0.5347 -0.0201 -0.1428
  318loPI   C4A 5082  12.964   4.859   7.764 -0.1880 -0.0212 -0.2806
  318loPI   C5A 5083  13.141   4.617   7.435  0.1705  0.1107  0.1416
  318loPI   C6A 5084  13.119   4.504   6.974  0.2197 -0.0621 -0.0976
  318loPI   C1B 5085  12.831   5.379   8.906  0.3913 -0.1384 -0.1589
  318loPI   C2B 5086  12.788   5.457   8.383  0.1781 -0.0210  0.0214
  318loPI   C3B 5087  13.031   5.571   8.028  0.0100 -0.0668  0.0483
  318loPI   C4B 5088  13.352   5.814   7.761 -0.2456  0.0846 -0.0754
  319loPI    C1 5089  11.605   6.401   9.982 -0.2452  0.0356  0.2320
  319loPI    C2 5090  11.490   6.120  10.242 -0.1396  0.2267  0.4889
  319loPI    C3 5091  11.841   6.305  10.290  0.0846 -0.0408 -0.0377
  319loPI   PO4 5092  11.599   6.288   9.709  0.0325  0.0915 -0.2367
  319loPI   GL1 5093  11.723   6.300   9.307  0.1378 -0.0087 -0.2874
  319loPI   GL2 5094  11.982   6.364   9.200  0.0301  0.1180 -0.3049
  319loPI   C1A 5095  11.568   6.178   8.893 -0.3436 -0.0234  0.0462
  319loPI   C2A 5096  11.572   6.243   8.507  0.0146  0.2866 -0.2343
  319loPI   C3A 5097  11.335   6.423   8.210 -0.0765  0.2340 -0.0014
  319loPI   C4A 5098  11.197   6.347   7.865 -0.0402 -0.0459  0.1798
  319loPI   C5A 5099  10.981   6.236   7.381 -0.2860  0.2551 -0.1533
  319loPI   C6A 5100  10.784   6.449   7.087  0.0680 -0.1827 -0.2109
  319loPI   C1B 5101  11.893   6.606   8.840  0.1797  0.0774 -0.1231
  319loPI   C2B 5102  11.863   6.726   8.419  0.2908  0.0824 -0.2329
  319loPI   C3B 5103  11.917   6.534   8.133  0.3532 -0.1132  0.0991
  319loPI   C4B 5104  11.848   6.492   7.770  0.1292 -0.1395 -0.0332
  320loPI    C1 5105  18.893   3.776   9.973 -0.0711  0.0547  0.0741
  320loPI    C2 5106  18.668   3.766  10.304  0.0341  0.0351  0.1453
  320loPI    C3 5107  19.063   3.827  10.331  0.0790 -0.1954  0.0405
  320loPI   PO4 5108  18.682   3.732   9.756 -0.0852  0.1149  0.3158
  320loPI   GL1 5109  18.697   3.620   9.298 -0.1398  0.3698  0.1657
  320loPI   GL2 5110  18.674   3.452   9.164  0.1090 -0.2477  0.2013
  320loPI   C1A 5111  18.972   3.688   8.817  0.1289 -0.1706  0.1657
  320loPI   C2A 5112  19.262   3.740   8.618  0.1509  0.3099 -0.2792
  320loPI   C3A 5113  19.269   3.997   8.368  0.2416  0.0582  0.2348
  320loPI   C4A 5114  19.016   4.237   8.032  0.2540  0.1655  0.0630
  320loPI   C5A 5115  18.787   4.571   7.810 -0.1345  0.2605 -0.0894
  320loPI   C6A 5116  18.497   4.747   7.510  0.1618  0.1548 -0.1051
  320loPI   C1B 5117  18.430   3.676   8.831 -0.0402 -0.0331  0.0492
  320loPI   C2B 5118  18.256   3.640   8.380 -0.2124  0.0501 -0.1125
  320loPI   C3B 5119  18.243   3.569   7.826 -0.2079  0.0133  0.1959
  320loPI   C4B 5120  18.236   3.680   7.294 -0.1106  0.0482 -0.0347
  321loPI    C1 5121   1.836   6.110  10.512 -0.0426  0.0208  0.1798
  321loPI    C2 5122   1.737   6.282  10.860 -0.1389  0.0851  0.1210
  321loPI    C3 5123   1.929   5.931  10.858 -0.0927  0.1093  0.2396
  321loPI   PO4 5124   1.651   6.210  10.344  0.0483  0.0367  0.1622
  321loPI   GL1 5125   1.607   6.204   9.938 -0.0979 -0.1061 -0.0417
  321loPI   GL2 5126   1.856   6.247   9.725  0.1851 -0.1047  0.2521
  321loPI   C1A 5127   1.580   5.886   9.585  0.0505 -0.0140  0.3009
  321loPI   C2A 5128   1.361   5.562   9.291 -0.0930 -0.3466 -0.1365
  321loPI   C3A 5129   1.355   5.240   9.032 -0.3518  0.0905  0.1477
  321loPI   C4A 5130   1.271   5.023   8.675  0.0953  0.0938 -0.1084
  321loPI   C5A 5131   1.072   5.109   8.190 -0.0489  0.0605 -0.1290
  321loPI   C6A 5132   0.889   5.310   7.747 -0.1241  0.1567  0.0817
  321loPI   C1B 5133   1.985   6.042   9.340  0.1514  0.0150 -0.0433
  321loPI   C2B 5134   1.952   5.951   8.870 -0.0894  0.2478 -0.0168
  321loPI   C3B 5135   2.036   6.281   8.514  0.2169 -0.0383 -0.0879
  321loPI   C4B 5136   1.911   6.430   8.159  0.1506  0.1532  0.2667
  322loPI    C1 5137  18.622   6.964  10.165  0.0260 -0.1712  0.0004
  322loPI    C2 5138  18.337   6.736  10.329  0.3121 -0.5513 -0.0186
  322loPI    C3 5139  18.568   6.965  10.562 -0.0770 -0.1526 -0.0135
  322loPI   PO4 5140  18.664   6.822   9.965 -0.0736 -0.0288  0.1978
  322loPI   GL1 5141  18.822   6.847   9.617  0.3824 -0.0772  0.2646
  322loPI   GL2 5142  18.541   6.953   9.488  0.0781 -0.0900 -0.0957
  322loPI   C1A 5143  19.073   6.789   9.174  0.1233 -0.1208 -0.2479
  322loPI   C2A 5144  19.154   6.785   8.800 -0.3941 -0.3468  0.1055
  322loPI   C3A 5145  19.250   6.495   8.479  0.0002  0.1372 -0.3314
  322loPI   C4A 5146  19.299   6.500   8.081 -0.0531  0.0522 -0.1084
  322loPI   C5A 5147  19.032   6.727   7.827 -0.1201 -0.0377 -0.0563
  322loPI   C6A 5148  18.829   7.057   7.548  0.0942 -0.4585 -0.0884
  322loPI   C1B 5149  18.581   6.827   9.007  0.0408  0.1121 -0.0410
  322loPI   C2B 5150  18.704   6.862   8.661 -0.0423  0.1119  0.4453
  322loPI   C3B 5151  18.758   6.794   8.261 -0.1396 -0.0048 -0.3433
  322loPI   C4B 5152  18.833   7.190   8.065  0.3566 -0.1402  0.0200
  323loPI    C1 5153   3.084  15.219   9.956  0.2105  0.0752 -0.1198
  323loPI    C2 5154   3.255  15.542  10.117  0.0175  0.1905 -0.1423
  323loPI    C3 5155   3.471  15.211  10.055  0.1053  0.1548  0.3190
  323loPI   PO4 5156   3.043  15.278   9.715 -0.0664 -0.2572 -0.0307
  323loPI   GL1 5157   3.077  15.184   9.295  0.0092 -0.1047  0.0406
  323loPI   GL2 5158   3.055  15.584   9.238 -0.0368  0.1673 -0.0205
  323loPI   C1A 5159   3.071  15.200   8.817 -0.1288  0.1396 -0.2149
  323loPI   C2A 5160   3.092  15.166   8.301 -0.1343  0.3982 -0.2804
  323loPI   C3A 5161   2.768  15.396   8.069 -0.5497  0.0683  0.0818
  323loPI   C4A 5162   2.330  15.305   7.847 -0.3428  0.0065  0.3052
  323loPI   C5A 5163   2.047  15.060   7.815 -0.0277 -0.1020 -0.0297
  323loPI   C6A 5164   1.932  14.522   7.676  0.2287  0.0301  0.1722
  323loPI   C1B 5165   2.960  15.735   8.868  0.1868 -0.0293 -0.2859
  323loPI   C2B 5166   3.061  15.680   8.449 -0.3002  0.2124 -0.0364
  323loPI   C3B 5167   3.216  15.745   8.029  0.2179 -0.1193 -0.0491
  323loPI   C4B 5168   3.454  15.902   7.687  0.2826 -0.2189 -0.3031
  324loPI    C1 5169  16.513   2.834   9.880 -0.0905 -0.0199  0.0504
  324loPI    C2 5170  16.818   3.091   9.916 -0.1919  0.1048  0.0255
  324loPI    C3 5171  16.552   3.054  10.213  0.0072 -0.2138  0.1687
  324loPI   PO4 5172  16.434   2.905   9.636  0.1558  0.2135  0.1899
  324loPI   GL1 5173  16.608   3.205   9.310  0.1499 -0.0495  0.0646
  324loPI   GL2 5174  16.762   3.389   9.349 -0.0091 -0.0516 -0.2118
  324loPI   C1A 5175  16.483   3.165   8.905 -0.0327  0.4108  0.0951
  324loPI   C2A 5176  16.219   3.285   8.595 -0.3935  0.0287  0.0826
  324loPI   C3A 5177  15.941   3.206   8.304  0.2440  0.0129 -0.1037
  324loPI   C4A 5178  16.117   3.124   7.854 -0.0018 -0.0048  0.0619
  324loPI   C5A 5179  15.932   3.218   7.412 -0.0326  0.1457  0.0582
  324loPI   C6A 5180  15.815   2.940   7.116 -0.0626  0.0971 -0.2260
  324loPI   C1B 5181  16.760   3.562   8.967  0.1577 -0.0228 -0.1472
  324loPI   C2B 5182  16.631   3.500   8.464  0.0463  0.3525  0.3153
  324loPI   C3B 5183  16.415   3.556   8.019  0.2045  0.0316  0.0150
  324loPI   C4B 5184  16.020   3.627   7.675 -0.0784  0.1458 -0.1521
  325loPI    C1 5185  15.215   0.904   9.848  0.2229 -0.1101 -0.0745
  325loPI    C2 5186  15.530   0.835  10.085 -0.0319 -0.0498  0.2891
  325loPI    C3 5187  15.297   1.154  10.149  0.0044  0.0741 -0.1651
  325loPI   PO4 5188  15.300   0.820   9.613 -0.1834 -0.0489 -0.1912
  325loPI   GL1 5189  15.351   0.873   9.152  0.1113  0.0188 -0.2202
  325loPI   GL2 5190  15.611   1.101   9.301 -0.0687 -0.2817 -0.0154
  325loPI   C1A 5191  15.451   0.580   8.897  0.1313 -0.1021 -0.3081
  325loPI   C2A 5192  15.466   0.549   8.473  0.2734 -0.3472  0.1585
  325loPI   C3A 5193  15.401   0.478   7.993  0.0304  0.1473  0.1743
  325loPI   C4A 5194  15.550   0.607   7.542 -0.0835  0.1854  0.0986
  325loPI   C5A 5195  15.901   0.473   7.357  0.0198 -0.1103 -0.0091
  325loPI   C6A 5196  16.206   0.202   7.195  0.1355 -0.2005  0.1494
  325loPI   C1B 5197  15.681   1.087   8.865  0.0188 -0.0679  0.3192
  325loPI   C2B 5198  15.839   0.873   8.476 -0.2827 -0.0066 -0.2383
  325loPI   C3B 5199  16.219   0.776   8.169  0.3009  0.0848  0.0221
  325loPI   C4B 5200  16.404   0.775   7.706  0.1023  0.1270 -0.3127
  326loPI    C1 5201   6.742  14.816  10.276 -0.0523  0.0402 -0.0141
  326loPI    C2 5202   7.114  14.717  10.387 -0.0701  0.1390  0.1353
  326loPI    C3 5203   7.042  14.837  10.012 -0.0163 -0.2338  0.0025
  326loPI   PO4 5204   6.569  14.613  10.277  0.1329  0.1372 -0.3137
  326loPI   GL1 5205   6.280  14.566   9.950  0.0236 -0.0806  0.2001
  326loPI   GL2 5206   6.374  14.884   9.818 -0.2796 -0.1551 -0.1137
  326loPI   C1A 5207   6.385  14.422   9.554 -0.2062 -0.0027  0.0502
  326loPI   C2A 5208   6.525  14.341   9.152  0.0450  0.0193  0.0260
  326loPI   C3A 5209   6.589  14.418   8.817  0.0438 -0.2461  0.0297
  326loPI   C4A 5210   6.565  14.460   8.447  0.2578  0.1639  0.0071
  326loPI   C5A 5211   6.343  14.573   8.032  0.0758 -0.0689 -0.3583
  326loPI   C6A 5212   5.960  14.587   7.811 -0.1583 -0.3869 -0.1488
  326loPI   C1B 5213   6.345  15.048   9.519  0.0029  0.0508 -0.3771
  326loPI   C2B 5214   6.376  15.139   9.099 -0.2508 -0.1749  0.4832
  326loPI   C3B 5215   6.379  15.342   8.763 -0.0246  0.1279 -0.1185
  326loPI   C4B 5216   6.496  15.163   8.390 -0.1287  0.1356 -0.2323
  327loPI    C1 5217  17.535   5.161  10.157  0.0658 -0.1438 -0.0590
  327loPI    C2 5218  17.851   5.385  10.256  0.1393 -0.1315 -0.3155
  327loPI    C3 5219  17.497   5.558  10.187  0.1017 -0.1345 -0.1342
  327loPI   PO4 5220  17.680   4.982   9.939 -0.2596 -0.1225 -0.1711
  327loPI   GL1 5221  18.043   4.987   9.620 -0.0684  0.3700 -0.0192
  327loPI   GL2 5222  18.258   5.139   9.382 -0.2566  0.3825 -0.1897
  327loPI   C1A 5223  17.766   5.074   9.229  0.3260 -0.2442 -0.2983
  327loPI   C2A 5224  17.742   5.141   8.843 -0.3485 -0.5446 -0.1841
  327loPI   C3A 5225  17.779   5.295   8.445 -0.2343 -0.3098 -0.5904
  327loPI   C4A 5226  17.931   5.224   8.088 -0.0888 -0.2269  0.0096
  327loPI   C5A 5227  18.196   4.935   7.887 -0.2287  0.0698  0.1865
  327loPI   C6A 5228  18.274   4.543   7.871 -0.1068 -0.1406 -0.1741
  327loPI   C1B 5229  18.226   4.984   8.967 -0.0895  0.2398 -0.3166
  327loPI   C2B 5230  18.077   4.859   8.590  0.0374 -0.0210  0.0455
  327loPI   C3B 5231  17.944   4.745   8.257 -0.1474  0.2631 -0.0681
  327loPI   C4B 5232  17.832   4.473   7.974 -0.0859  0.0403  0.0948
  328loPI    C1 5233   7.260  11.641  10.107  0.0609  0.1518  0.1450
  328loPI    C2 5234   7.205  11.318  10.337 -0.2580  0.1915  0.1288
  328loPI    C3 5235   7.570  11.478  10.301 -0.0880 -0.1914  0.1023
  328loPI   PO4 5236   7.221  11.672   9.759 -0.1056  0.0444  0.2072
  328loPI   GL1 5237   6.794  11.743   9.519 -0.0471 -0.4503  0.0559
  328loPI   GL2 5238   6.664  12.096   9.411  0.1139  0.0690  0.2481
  328loPI   C1A 5239   6.753  11.796   9.040 -0.2211 -0.0482  0.0598
  328loPI   C2A 5240   6.836  11.889   8.705  0.0594 -0.2870 -0.2680
  328loPI   C3A 5241   6.800  11.946   8.323 -0.0850  0.1345  0.0641
  328loPI   C4A 5242   6.762  11.869   7.798 -0.1367 -0.0942  0.1367
  328loPI   C5A 5243   6.674  12.223   7.410 -0.1087  0.1863  0.1992
  328loPI   C6A 5244   6.886  12.581   7.197 -0.3526  0.2565 -0.1807
  328loPI   C1B 5245   6.733  12.285   8.980 -0.2606 -0.1767  0.0596
  328loPI   C2B 5246   6.670  12.354   8.704 -0.5588 -0.2959 -0.0379
  328loPI   C3B 5247   6.548  12.373   8.317 -0.0415 -0.2687  0.2827
  328loPI   C4B 5248   6.564  12.413   7.918  0.0756  0.2694 -0.4730
  329loPI    C1 5249   0.974  11.413   9.643 -0.3103 -0.1585  0.0375
  329loPI    C2 5250   0.829  11.356  10.011  0.1351 -0.1821  0.2160
  329loPI    C3 5251   1.060  11.077   9.841  0.1019 -0.0806  0.0001
  329loPI   PO4 5252   0.884  11.666   9.602  0.0316  0.0111 -0.0747
  329loPI   GL1 5253   0.826  11.698   9.121 -0.0242 -0.0982 -0.1005
  329loPI   GL2 5254   0.619  11.403   9.040 -0.0488  0.0277  0.0660
  329loPI   C1A 5255   1.064  11.614   8.767 -0.0841  0.3410 -0.1363
  329loPI   C2A 5256   1.236  11.533   8.379 -0.3661 -0.2688  0.1064
  329loPI   C3A 5257   1.564  11.453   8.112  0.1126 -0.0248  0.0483
  329loPI   C4A 5258   1.693  11.229   7.795  0.2191  0.0456 -0.2923
  329loPI   C5A 5259   1.900  11.164   7.474 -0.1651 -0.2243 -0.1418
  329loPI   C6A 5260   2.344  11.054   7.439 -0.0384  0.1373 -0.0891
  329loPI   C1B 5261   0.471  11.210   8.652  0.3725 -0.2940  0.0145
  329loPI   C2B 5262   0.409  11.103   8.169 -0.2081 -0.2015  0.2913
  329loPI   C3B 5263   0.240  11.038   7.702  0.1440 -0.0214 -0.3648
  329loPI   C4B 5264  -0.011  11.185   7.397  0.2752 -0.1015 -0.5623
  330loPI    C1 5265   0.719   7.199  10.225  0.0754 -0.0691 -0.2624
  330loPI    C2 5266   0.399   7.147  10.460  0.1691 -0.1568 -0.1531
  330loPI    C3 5267   0.767   7.130  10.616  0.2236  0.1377 -0.2426
  330loPI   PO4 5268   0.739   7.050  10.006  0.4000 -0.1347  0.1128
  330loPI   GL1 5269   0.542   6.858   9.666 -0.1089  0.0590  0.0358
  330loPI   GL2 5270   0.510   6.510   9.611 -0.1097  0.0182  0.3151
  330loPI   C1A 5271   0.516   6.836   9.188  0.2464 -0.0913  0.0021
  330loPI   C2A 5272   0.529   6.954   8.650 -0.1803 -0.1145 -0.1730
  330loPI   C3A 5273   0.634   7.158   8.309 -0.4137 -0.0689 -0.0678
  330loPI   C4A 5274   0.675   7.302   7.971 -0.0749 -0.3625 -0.1845
  330loPI   C5A 5275   0.881   7.472   7.582  0.1404 -0.2103 -0.2000
  330loPI   C6A 5276   1.126   7.638   7.352 -0.0362  0.0542  0.1068
  330loPI   C1B 5277   0.814   6.314   9.241 -0.2701  0.0292  0.0076
  330loPI   C2B 5278   1.090   6.323   8.879 -0.1327 -0.0278  0.1667
  330loPI   C3B 5279   1.144   6.025   8.499  0.1616 -0.1858 -0.1708
  330loPI   C4B 5280   0.954   5.813   8.160  0.1589 -0.3049 -0.2070
  331loPI    C1 5281  10.117  18.939  10.377  0.0760 -0.0567 -0.1223
  331loPI    C2 5282  10.032  19.327  10.327 -0.1733 -0.0862  0.0532
  331loPI    C3 5283  10.189  19.199  10.672  0.4256 -0.0631 -0.1973
  331loPI   PO4 5284  10.340  18.915  10.105  0.3386 -0.1002  0.2134
  331loPI   GL1 5285  10.371  18.964   9.713  0.2752  0.1214  0.1126
  331loPI   GL2 5286  10.143  19.323   9.724  0.0549 -0.1316 -0.2943
  331loPI   C1A 5287  10.466  18.653   9.344 -0.1195  0.1805 -0.2464
  331loPI   C2A 5288  10.584  18.331   9.146 -0.2026  0.1974  0.1898
  331loPI   C3A 5289  10.668  18.192   8.779 -0.1323  0.1174  0.2190
  331loPI   C4A 5290  10.475  18.163   8.360 -0.0478 -0.1173  0.0334
  331loPI   C5A 5291  10.555  17.780   8.007 -0.1602  0.1781  0.0833
  331loPI   C6A 5292  10.832  17.516   7.746 -0.2896 -0.1091 -0.1020
  331loPI   C1B 5293  10.077  19.116   9.406  0.1800 -0.3046 -0.1941
  331loPI   C2B 5294  10.097  19.218   8.940 -0.0326  0.0680  0.0284
  331loPI   C3B 5295  10.208  19.289   8.608 -0.1161  0.0320  0.0493
  331loPI   C4B 5296  10.451  19.175   8.255  0.0070  0.1211  0.0509
  332loPI    C1 5297  12.140  14.336  10.200  0.2012  0.0031  0.0717
  332loPI    C2 5298  12.434  14.437  10.451  0.0359 -0.0355  0.2836
  332loPI    C3 5299  12.218  14.108  10.519  0.1815 -0.2105 -0.0738
  332loPI   PO4 5300  12.334  14.373   9.898  0.2861 -0.2758 -0.2742
  332loPI   GL1 5301  12.319  14.403   9.421  0.0701 -0.1157 -0.0540
  332loPI   GL2 5302  12.301  14.694   9.270 -0.0504  0.2283 -0.2698
  332loPI   C1A 5303  12.089  14.130   9.168  0.0421  0.2054  0.1292
  332loPI   C2A 5304  11.949  13.778   8.949 -0.0665  0.0738 -0.0855
  332loPI   C3A 5305  11.917  13.694   8.547 -0.1981  0.0180 -0.0616
  332loPI   C4A 5306  12.150  13.408   8.238  0.4105  0.1670 -0.0999
  332loPI   C5A 5307  12.438  13.260   8.036 -0.0324  0.1534 -0.0427
  332loPI   C6A 5308  12.789  13.400   7.940  0.0491 -0.1041 -0.0090
  332loPI   C1B 5309  12.203  14.670   8.907 -0.1339  0.1106 -0.2079
  332loPI   C2B 5310  11.999  14.604   8.449  0.4723  0.1183  0.0404
  332loPI   C3B 5311  11.763  14.615   8.070  0.1418 -0.2303 -0.0031
  332loPI   C4B 5312  11.672  14.213   7.833 -0.1231 -0.2367 -0.1299
  333loPI    C1 5313  13.713   2.235   9.849  0.0663  0.4029  0.0779
  333loPI    C2 5314  13.930   2.123  10.166  0.1142  0.1846 -0.0303
  333loPI    C3 5315  13.659   2.416  10.202 -0.0119  0.0365  0.2582
  333loPI   PO4 5316  13.891   2.288   9.639  0.4859  0.2879 -0.2410
  333loPI   GL1 5317  13.799   2.437   9.267  0.1890  0.1118  0.0288
  333loPI   GL2 5318  13.562   2.205   9.285 -0.1332 -0.0584 -0.4444
  333loPI   C1A 5319  13.694   2.775   9.007  0.1044  0.1470 -0.0522
  333loPI   C2A 5320  13.519   2.858   8.524 -0.3066 -0.1594 -0.2747
  333loPI   C3A 5321  13.700   2.648   8.144 -0.0649  0.1145  0.1797
  333loPI   C4A 5322  13.603   2.649   7.648  0.3490 -0.0321 -0.1751
  333loPI   C5A 5323  13.634   2.560   7.266 -0.1429  0.0438  0.4596
  333loPI   C6A 5324  13.713   2.472   6.788 -0.0523 -0.1115 -0.6342
  333loPI   C1B 5325  13.591   2.298   8.846  0.2889 -0.2088 -0.1498
  333loPI   C2B 5326  13.488   2.184   8.334 -0.0312 -0.4461 -0.0521
  333loPI   C3B 5327  13.710   2.209   7.900  0.1364  0.2031 -0.1768
  333loPI   C4B 5328  13.841   2.013   7.570  0.0781  0.4237  0.0831
  334loPI    C1 5329   6.547  15.851  10.512  0.0724  0.1890  0.0424
  334loPI    C2 5330   6.552  15.559  10.785  0.0496  0.0648 -0.0889
  334loPI    C3 5331   6.578  15.941  10.900  0.2319  0.0046  0.0736
  334loPI   PO4 5332   6.708  15.708  10.302 -0.1174  0.2951 -0.1611
  334loPI   GL1 5333   6.594  15.688   9.803 -0.0341 -0.0836 -0.3083
  334loPI   GL2 5334   6.245  15.501   9.708  0.1098  0.1873 -0.0495
  334loPI   C1A 5335   6.505  16.072   9.548  0.2995 -0.3154 -0.0046
  334loPI   C2A 5336   6.423  16.144   9.171  0.0020  0.1397  0.0188
  334loPI   C3A 5337   6.283  16.254   8.837  0.2379 -0.0966 -0.1855
  334loPI   C4A 5338   6.386  16.365   8.411 -0.2025 -0.0078 -0.2484
  334loPI   C5A 5339   6.430  16.566   8.009 -0.1963 -0.0763 -0.0443
  334loPI   C6A 5340   6.552  16.936   7.808 -0.2369 -0.1994 -0.1726
  334loPI   C1B 5341   6.350  15.653   9.240  0.3564 -0.1423 -0.3202
  334loPI   C2B 5342   6.132  15.782   8.876  0.1953 -0.0965  0.1908
  334loPI   C3B 5343   6.220  15.869   8.455  0.0177 -0.1383 -0.2203
  334loPI   C4B 5344   6.166  16.090   8.057  0.2965  0.1379  0.0303
  335loPI    C1 5345  14.643  13.532   9.773  0.1109  0.4301  0.2411
  335loPI    C2 5346  14.465  13.458  10.124 -0.1889  0.3223  0.0703
  335loPI    C3 5347  14.309  13.728   9.873 -0.2106  0.1048 -0.1550
  335loPI   PO4 5348  14.912  13.659   9.765  0.0132  0.2020 -0.1471
  335loPI   GL1 5349  14.913  13.893   9.422 -0.2639  0.2352  0.0680
  335loPI   GL2 5350  15.161  13.973   9.364  0.1703 -0.0853 -0.4530
  335loPI   C1A 5351  14.843  13.639   9.173 -0.0942  0.2536  0.0091
  335loPI   C2A 5352  14.909  13.641   8.737 -0.1343 -0.1663 -0.1327
  335loPI   C3A 5353  15.091  13.628   8.339  0.1047  0.2434 -0.0841
  335loPI   C4A 5354  15.156  13.532   7.946  0.1377 -0.2694  0.0106
  335loPI   C5A 5355  14.971  13.465   7.438 -0.1716  0.2717  0.0841
  335loPI   C6A 5356  14.939  13.239   7.036  0.1306 -0.1445 -0.0507
  335loPI   C1B 5357  15.066  14.089   8.902  0.1691 -0.3556 -0.0217
  335loPI   C2B 5358  15.042  14.120   8.492  0.0153  0.0609 -0.0851
  335loPI   C3B 5359  15.000  14.085   8.054 -0.2453  0.0442 -0.2069
  335loPI   C4B 5360  15.099  13.925   7.623  0.0635 -0.2375 -0.2544
  336loPI    C1 5361   9.391   9.905   9.874  0.1559 -0.0969  0.0055
  336loPI    C2 5362   9.248   9.839  10.242 -0.0145 -0.0156 -0.0449
  336loPI    C3 5363   9.215   9.556   9.961 -0.0362 -0.0140 -0.0440
  336loPI   PO4 5364   9.297  10.165   9.833  0.1569 -0.1421 -0.0533
  336loPI   GL1 5365   9.380  10.392   9.452  0.3073 -0.2597  0.2225
  336loPI   GL2 5366   9.547  10.291   9.213 -0.0191 -0.1305  0.0976
  336loPI   C1A 5367   9.339  10.816   9.270 -0.1192 -0.1430  0.1474
  336loPI   C2A 5368   9.094  10.835   8.939  0.1555  0.2029 -0.2688
  336loPI   C3A 5369   9.283  10.763   8.643  0.3022  0.1335  0.0054
  336loPI   C4A 5370   9.377  10.683   8.198 -0.0678 -0.0225 -0.0996
  336loPI   C5A 5371   9.519  10.561   7.893  0.2515 -0.0339  0.1143
  336loPI   C6A 5372   9.550  10.743   7.455  0.1407  0.1607 -0.0459
  336loPI   C1B 5373   9.356  10.302   8.788  0.1164  0.0420 -0.0721
  336loPI   C2B 5374   9.398  10.215   8.472 -0.0244 -0.0757 -0.1151
  336loPI   C3B 5375   9.256  10.111   8.079  0.0498 -0.1279  0.2575
  336loPI   C4B 5376   8.962   9.905   7.840 -0.0489  0.1329 -0.2325
  337loPI    C1 5377   6.648   1.752  10.284 -0.0336  0.1041 -0.1694
  337loPI    C2 5378   6.587   1.982  10.605  0.3166 -0.1262  0.0703
  337loPI    C3 5379   6.448   1.607  10.599  0.0829 -0.0389 -0.1598
  337loPI   PO4 5380   6.538   1.883  10.110  0.0813 -0.0752 -0.2483
  337loPI   GL1 5381   6.619   2.067   9.714 -0.4043 -0.0256  0.3716
  337loPI   GL2 5382   6.593   2.403   9.718 -0.4917 -0.1237  0.3014
  337loPI   C1A 5383   6.783   1.889   9.235 -0.2254 -0.1433  0.2750
  337loPI   C2A 5384   6.712   1.686   8.862  0.0048 -0.3273  0.4581
  337loPI   C3A 5385   6.650   1.471   8.460 -0.2320 -0.0311  0.4794
  337loPI   C4A 5386   6.953   1.114   8.515 -0.2803 -0.0008  0.1069
  337loPI   C5A 5387   7.059   0.870   8.802 -0.3682 -0.0587 -0.2913
  337loPI   C6A 5388   6.963   0.938   9.224  0.0153  0.1748  0.1116
  337loPI   C1B 5389   6.425   2.389   9.324  0.0306  0.1087 -0.2622
  337loPI   C2B 5390   6.363   2.327   8.865 -0.1051 -0.0307 -0.0365
  337loPI   C3B 5391   6.243   2.375   8.474 -0.1487 -0.2002 -0.0537
  337loPI   C4B 5392   6.397   2.138   8.037 -0.1950 -0.1337  0.0011
  338loPI    C1 5393  14.094  14.766  10.129  0.3033  0.2201 -0.1908
  338loPI    C2 5394  14.162  14.878  10.507  0.3243 -0.0669 -0.1069
  338loPI    C3 5395  14.444  14.682  10.303  0.2050 -0.1705 -0.1732
  338loPI   PO4 5396  14.020  15.093  10.012  0.0398  0.0141  0.0381
  338loPI   GL1 5397  13.946  15.296   9.547 -0.2413  0.0881 -0.2445
  338loPI   GL2 5398  13.940  15.622   9.366  0.4007 -0.3336 -0.0103
  338loPI   C1A 5399  14.140  15.025   9.218  0.0806  0.1822  0.1111
  338loPI   C2A 5400  14.321  14.999   8.775 -0.0411  0.4883  0.0998
  338loPI   C3A 5401  14.653  14.971   8.422 -0.4214 -0.1000  0.0877
  338loPI   C4A 5402  14.693  14.900   7.943 -0.2392  0.0524 -0.0314
  338loPI   C5A 5403  14.642  14.956   7.564 -0.1282 -0.0362 -0.2288
  338loPI   C6A 5404  14.544  15.086   7.220 -0.0176  0.3056  0.2073
  338loPI   C1B 5405  14.003  15.448   8.965  0.0991  0.1802 -0.1508
  338loPI   C2B 5406  13.937  15.466   8.576 -0.2684  0.2451  0.1242
  338loPI   C3B 5407  14.180  15.117   8.224  0.0857 -0.2710 -0.0750
  338loPI   C4B 5408  14.129  14.993   7.795 -0.2653 -0.1728  0.0658
  339loPI    C1 5409  14.010  13.206   9.981  0.0764 -0.1254 -0.1225
  339loPI    C2 5410  13.768  12.896   9.907  0.2060 -0.2052 -0.2158
  339loPI    C3 5411  13.789  13.051  10.276  0.2410 -0.3939 -0.1371
  339loPI   PO4 5412  13.958  13.335   9.826  0.2747 -0.3187 -0.0660
  339loPI   GL1 5413  13.777  13.388   9.494  0.1610  0.0912  0.2357
  339loPI   GL2 5414  13.585  13.633   9.400 -0.0645  0.0913  0.1731
  339loPI   C1A 5415  13.759  13.210   9.114  0.4599  0.1949 -0.0407
  339loPI   C2A 5416  13.685  13.231   8.619 -0.0399  0.1166 -0.1817
  339loPI   C3A 5417  13.642  13.171   8.191 -0.2620  0.1823  0.0086
  339loPI   C4A 5418  13.567  12.960   7.797  0.0858 -0.0746 -0.0594
  339loPI   C5A 5419  13.400  12.868   7.361  0.3739  0.1263 -0.1216
  339loPI   C6A 5420  13.483  12.825   6.956 -0.1292 -0.0034  0.0130
  339loPI   C1B 5421  13.693  13.665   8.965  0.2287  0.3521  0.1173
  339loPI   C2B 5422  13.628  13.789   8.522 -0.1004  0.1931 -0.0932
  339loPI   C3B 5423  13.711  13.663   8.181 -0.1374 -0.1448  0.1989
  339loPI   C4B 5424  13.701  13.442   7.783  0.0519  0.3923 -0.0693
  340loPI    C1 5425  17.230  13.715   9.973  0.1106  0.0668  0.0237
  340loPI    C2 5426  17.020  14.004  10.155 -0.1434 -0.0968 -0.0041
  340loPI    C3 5427  17.127  13.676  10.358  0.0652 -0.0266  0.0023
  340loPI   PO4 5428  17.196  13.764   9.667  0.1871  0.2102  0.4535
  340loPI   GL1 5429  17.260  13.937   9.253  0.1695 -0.1449 -0.1024
  340loPI   GL2 5430  17.466  13.791   9.227 -0.0213 -0.0719  0.0451
  340loPI   C1A 5431  17.047  14.077   8.882  0.1283  0.0276  0.0840
  340loPI   C2A 5432  17.034  14.157   8.424  0.0802 -0.1383 -0.1171
  340loPI   C3A 5433  16.995  14.204   7.927 -0.0548 -0.0912 -0.1558
  340loPI   C4A 5434  16.949  14.256   7.456  0.0548 -0.0029 -0.2226
  340loPI   C5A 5435  17.104  13.884   7.177 -0.2076  0.1661  0.2300
  340loPI   C6A 5436  17.483  13.975   6.802  0.1026 -0.1051 -0.0825
  340loPI   C1B 5437  17.724  13.620   8.792 -0.0040 -0.2796  0.0391
  340loPI   C2B 5438  17.841  13.525   8.523 -0.0134  0.0896  0.5198
  340loPI   C3B 5439  17.748  13.481   8.106 -0.0843 -0.0173 -0.1824
  340loPI   C4B 5440  17.513  13.287   7.888 -0.0990 -0.0303 -0.0374
  341loPI    C1 5441   7.825   7.414  10.121 -0.0188  0.1893 -0.2431
  341loPI    C2 5442   7.869   7.793  10.242  0.0628  0.1215 -0.0563
  341loPI    C3 5443   7.952   7.492  10.492  0.2792 -0.0228 -0.2966
  341loPI   PO4 5444   7.582   7.411  10.006 -0.3373  0.3003  0.0286
  341loPI   GL1 5445   7.491   7.357   9.568  0.1045 -0.0365 -0.0190
  341loPI   GL2 5446   7.781   7.414   9.534 -0.1768 -0.1655  0.0496
  341loPI   C1A 5447   7.401   7.639   9.173 -0.4598 -0.2450 -0.1531
  341loPI   C2A 5448   7.518   7.918   8.764  0.0952  0.1048 -0.0833
  341loPI   C3A 5449   7.433   8.005   8.352 -0.2777  0.0473 -0.0055
  341loPI   C4A 5450   7.268   7.881   8.017 -0.0535 -0.2890  0.0566
  341loPI   C5A 5451   7.279   7.516   7.788 -0.1407  0.0519 -0.1137
  341loPI   C6A 5452   7.043   7.320   7.430 -0.0953  0.1857  0.2140
  341loPI   C1B 5453   7.830   7.347   9.104  0.3023  0.1461 -0.2240
  341loPI   C2B 5454   7.997   7.487   8.707 -0.0744  0.4168  0.1310
  341loPI   C3B 5455   8.136   7.518   8.322 -0.0995 -0.1860  0.2302
  341loPI   C4B 5456   8.329   7.449   7.831  0.1177 -0.0144  0.1637
  342loPI    C1 5457   8.518   3.351  10.017  0.1475  0.0301  0.0780
  342loPI    C2 5458   8.418   3.661  10.249 -0.0132 -0.0813  0.1598
  342loPI    C3 5459   8.788   3.510  10.267  0.0645  0.1015  0.1226
  342loPI   PO4 5460   8.372   3.389   9.773 -0.3227 -0.2440 -0.1164
  342loPI   GL1 5461   8.548   3.405   9.448  0.1924  0.3041 -0.1972
  342loPI   GL2 5462   8.568   3.559   9.162 -0.1092 -0.1363  0.2439
  342loPI   C1A 5463   8.671   3.076   9.131  0.1160  0.0465  0.0580
  342loPI   C2A 5464   8.618   2.953   8.683 -0.2096  0.2253  0.3336
  342loPI   C3A 5465   8.653   3.083   8.306 -0.0839 -0.1651 -0.2989
  342loPI   C4A 5466   8.601   2.973   7.847  0.0944 -0.2120  0.1459
  342loPI   C5A 5467   8.580   2.625   7.754  0.0901  0.0303  0.0876
  342loPI   C6A 5468   8.691   2.277   7.891 -0.4402  0.3682 -0.2030
  342loPI   C1B 5469   8.638   3.454   8.699 -0.0920  0.2791 -0.1704
  342loPI   C2B 5470   8.931   3.487   8.306 -0.0406  0.1793  0.0774
  342loPI   C3B 5471   9.005   3.293   7.940  0.0938  0.0689 -0.0607
  342loPI   C4B 5472   9.137   3.295   7.542 -0.1839 -0.2023 -0.5526
  343loPI    C1 5473   6.040  13.263  10.209 -0.2611 -0.2381  0.0552
  343loPI    C2 5474   6.153  12.998  10.486  0.0983 -0.1191  0.0275
  343loPI    C3 5475   5.938  12.879  10.170  0.2921 -0.3868 -0.0070
  343loPI   PO4 5476   6.197  13.445  10.227  0.2590 -0.2845  0.2910
  343loPI   GL1 5477   6.430  13.690   9.897 -0.0463  0.0502  0.0656
  343loPI   GL2 5478   6.428  13.331   9.760 -0.0317  0.0765  0.0097
  343loPI   C1A 5479   6.654  13.888   9.481  0.0069  0.1525 -0.0199
  343loPI   C2A 5480   6.752  13.957   9.052  0.0811  0.2428  0.2058
  343loPI   C3A 5481   6.870  14.093   8.569 -0.1206  0.0109  0.4463
  343loPI   C4A 5482   6.959  14.287   8.212  0.2818 -0.0374 -0.2266
  343loPI   C5A 5483   6.886  14.258   7.823  0.1916 -0.0374  0.1048
  343loPI   C6A 5484   7.064  14.691   7.536 -0.0063 -0.0786 -0.2441
  343loPI   C1B 5485   6.348  13.528   9.369  0.3561  0.1495  0.0138
  343loPI   C2B 5486   6.416  13.614   8.942 -0.2153  0.0120 -0.4308
  343loPI   C3B 5487   6.774  13.650   8.678 -0.0730 -0.1890 -0.0055
  343loPI   C4B 5488   6.937  13.332   8.557  0.0213  0.4988  0.1046
  344loPI    C1 5489  13.725  10.759   9.778  0.0194  0.0790  0.3674
  344loPI    C2 5490  13.461  10.458   9.757  0.1516 -0.0169  0.0102
  344loPI    C3 5491  13.584  10.592  10.114 -0.1169 -0.2006  0.1752
  344loPI   PO4 5492  13.631  10.995   9.576 -0.0717 -0.1070  0.0434
  344loPI   GL1 5493  13.472  10.951   9.148 -0.1564  0.2173 -0.0271
  344loPI   GL2 5494  13.289  10.612   9.231  0.0520  0.0033 -0.1956
  344loPI   C1A 5495  13.679  11.154   8.865  0.0016  0.3120  0.2393
  344loPI   C2A 5496  13.819  11.069   8.500 -0.0092  0.2220  0.2702
  344loPI   C3A 5497  13.783  11.188   8.026  0.2907 -0.2269 -0.3203
  344loPI   C4A 5498  13.468  11.236   7.671  0.1930 -0.0142  0.1785
  344loPI   C5A 5499  13.060  11.004   7.608  0.0092  0.0185  0.0542
  344loPI   C6A 5500  12.900  10.741   7.213 -0.1844  0.0671 -0.2112
  344loPI   C1B 5501  13.286  10.686   8.756  0.0089  0.0810  0.0067
  344loPI   C2B 5502  13.418  10.836   8.326  0.0360  0.2659  0.0256
  344loPI   C3B 5503  13.441  10.738   7.970  0.3484  0.0075 -0.1093
  344loPI   C4B 5504  13.264  10.541   7.485  0.1589  0.0160 -0.2227
  345loPI    C1 5505   8.515  18.474   9.962  0.1326  0.1129 -0.0288
  345loPI    C2 5506   8.856  18.566  10.150  0.1633 -0.2056  0.0772
  345loPI    C3 5507   8.548  18.414  10.356 -0.1715  0.3981  0.0441
  345loPI   PO4 5508   8.598  18.375   9.744  0.0358 -0.3846  0.0772
  345loPI   GL1 5509   8.884  18.241   9.464  0.2951 -0.0074 -0.1903
  345loPI   GL2 5510   8.950  17.939   9.546 -0.1503  0.2299 -0.1954
  345loPI   C1A 5511   8.863  18.446   9.144 -0.3041  0.1742  0.0668
  345loPI   C2A 5512   8.841  18.482   8.697  0.1146  0.1713 -0.1997
  345loPI   C3A 5513   8.955  18.395   8.255 -0.3058  0.1721  0.0125
  345loPI   C4A 5514   8.933  18.576   7.909 -0.0109  0.2170  0.0373
  345loPI   C5A 5515   8.890  18.705   7.530 -0.2652 -0.1048  0.0521
  345loPI   C6A 5516   8.530  18.896   7.250  0.4403  0.1756 -0.0780
  345loPI   C1B 5517   9.113  17.996   9.106 -0.0877 -0.2020 -0.0435
  345loPI   C2B 5518   9.195  18.190   8.744 -0.2749  0.1862  0.1877
  345loPI   C3B 5519   9.222  18.006   8.445 -0.1703  0.0363 -0.2935
  345loPI   C4B 5520   9.417  18.116   7.976  0.3273 -0.0426  0.0853
  346loPI    C1 5521  11.635   8.275   9.817  0.0268 -0.0283 -0.0266
  346loPI    C2 5522  11.277   8.116   9.898  0.1061 -0.1497  0.0891
  346loPI    C3 5523  11.532   8.195  10.195  0.0251  0.3010  0.0460
  346loPI   PO4 5524  11.528   8.343   9.498  0.0634 -0.1049 -0.2420
  346loPI   GL1 5525  11.512   8.152   9.059 -0.0993 -0.4638 -0.2287
  346loPI   GL2 5526  11.336   7.902   9.352  0.1591 -0.0994  0.1327
  346loPI   C1A 5527  11.779   8.176   8.782  0.0332  0.1035  0.2749
  346loPI   C2A 5528  11.864   8.117   8.410 -0.1829  0.1169 -0.0431
  346loPI   C3A 5529  12.096   8.341   8.047  0.0942 -0.2674  0.0246
  346loPI   C4A 5530  12.292   8.500   7.634 -0.0396 -0.0755  0.1864
  346loPI   C5A 5531  12.334   8.372   7.195  0.2856 -0.0465  0.1834
  346loPI   C6A 5532  12.180   8.271   6.773 -0.1467  0.2084  0.0371
  346loPI   C1B 5533  11.046   8.003   9.043  0.0026 -0.0325 -0.1014
  346loPI   C2B 5534  10.865   7.863   8.700 -0.0553  0.3462  0.0755
  346loPI   C3B 5535  10.903   7.777   8.274  0.1729 -0.1215 -0.0751
  346loPI   C4B 5536  11.015   7.778   7.880  0.0296 -0.0759 -0.1053
  347loPI    C1 5537  16.555  12.587   9.810  0.0395  0.0566 -0.1055
  347loPI    C2 5538  16.449  12.269  10.027 -0.3250  0.2750  0.0442
  347loPI    C3 5539  16.819  12.417  10.058 -0.2391  0.0370  0.1830
  347loPI   PO4 5540  16.529  12.514   9.575  0.3705 -0.0783 -0.1737
  347loPI   GL1 5541  16.363  12.476   9.153  0.1407  0.0036 -0.1122
  347loPI   GL2 5542  16.595  12.664   9.125  0.1320  0.0828 -0.0075
  347loPI   C1A 5543  16.288  12.268   8.758 -0.4615 -0.0495  0.0574
  347loPI   C2A 5544  16.250  12.322   8.357  0.0350  0.0823  0.0040
  347loPI   C3A 5545  16.318  12.612   8.051 -0.0849 -0.1011  0.0861
  347loPI   C4A 5546  16.354  12.814   7.700  0.1385 -0.0486  0.0307
  347loPI   C5A 5547  16.519  13.105   7.374  0.0724  0.0900  0.1165
  347loPI   C6A 5548  16.556  13.037   6.976 -0.1699 -0.0529  0.0488
  347loPI   C1B 5549  16.568  12.720   8.749 -0.0693 -0.0152 -0.2906
  347loPI   C2B 5550  16.508  13.002   8.305 -0.0268 -0.1604 -0.3044
  347loPI   C3B 5551  16.429  13.340   7.914  0.0989 -0.0661 -0.2711
  347loPI   C4B 5552  16.200  13.522   7.469  0.0074  0.2944 -0.3823
  348loPI    C1 5553   2.829  13.203   9.739 -0.1083 -0.3177  0.1031
  348loPI    C2 5554   2.747  13.464  10.031  0.0943 -0.0760 -0.0521
  348loPI    C3 5555   3.095  13.266  10.031  0.0499 -0.1545 -0.0740
  348loPI   PO4 5556   2.672  13.333   9.539 -0.0792 -0.1238  0.0282
  348loPI   GL1 5557   2.572  13.622   9.274 -0.1346  0.0633  0.1526
  348loPI   GL2 5558   2.549  13.351   9.045 -0.1806  0.1198 -0.5024
  348loPI   C1A 5559   2.603  13.816   8.899  0.2964 -0.1424 -0.0164
  348loPI   C2A 5560   2.619  13.813   8.419 -0.0222 -0.3016 -0.1189
  348loPI   C3A 5561   2.426  13.718   7.988 -0.0416 -0.1094 -0.2106
  348loPI   C4A 5562   2.579  13.726   7.582  0.2330  0.1796  0.0949
  348loPI   C5A 5563   2.967  13.600   7.395  0.0569  0.1678  0.0562
  348loPI   C6A 5564   3.221  13.278   7.475 -0.2260  0.3422  0.1746
  348loPI   C1B 5565   2.645  13.322   8.606  0.0533  0.0433  0.2379
  348loPI   C2B 5566   2.744  13.336   8.181 -0.1652  0.2857 -0.1069
  348loPI   C3B 5567   2.923  13.368   7.894  0.1146  0.2570 -0.3051
  348loPI   C4B 5568   3.316  13.658   7.791 -0.0194  0.3000  0.0674
  349loPI    C1 5569   8.634   7.317   9.929 -0.0714 -0.1570 -0.2374
  349loPI    C2 5570   8.669   7.660  10.132  0.4159 -0.3428  0.0083
  349loPI    C3 5571   8.402   7.386  10.247  0.0440 -0.0652 -0.1721
  349loPI   PO4 5572   8.607   7.438   9.625 -0.0074 -0.2844 -0.0395
  349loPI   GL1 5573   8.254   7.518   9.295 -0.1111 -0.1351 -0.1292
  349loPI   GL2 5574   8.546   7.297   9.068 -0.2424  0.2059  0.1396
  349loPI   C1A 5575   8.426   7.780   8.913  0.0392  0.2083 -0.0919
  349loPI   C2A 5576   8.403   7.916   8.569  0.1349  0.0484 -0.0498
  349loPI   C3A 5577   8.326   7.971   8.162 -0.0371  0.0041  0.3762
  349loPI   C4A 5578   8.617   7.857   7.771  0.0169 -0.1471  0.0621
  349loPI   C5A 5579   8.529   7.564   7.421  0.0866 -0.1394  0.2559
  349loPI   C6A 5580   8.515   7.140   7.471 -0.2210  0.3585  0.1833
  349loPI   C1B 5581   8.618   7.375   8.540  0.0080  0.1347  0.0989
  349loPI   C2B 5582   8.664   7.598   8.185 -0.1204  0.2684  0.0731
  349loPI   C3B 5583   8.894   7.376   7.803  0.0132  0.0874  0.0690
  349loPI   C4B 5584   9.044   7.111   7.523  0.0143  0.0708 -0.0717
  350loPI    C1 5585   4.423   1.153  10.367  0.0423 -0.1923 -0.1628
  350loPI    C2 5586   4.722   0.990  10.577  0.0466 -0.2109 -0.1832
  350loPI    C3 5587   4.361   1.033  10.743  0.1055 -0.0294 -0.0997
  350loPI   PO4 5588   4.410   0.948  10.090  0.1680  0.2314  0.0728
  350loPI   GL1 5589   4.122   0.889   9.732 -0.0251  0.2168 -0.1056
  350loPI   GL2 5590   4.059   0.715   9.476  0.0241 -0.1053  0.0649
  350loPI   C1A 5591   4.211   1.174   9.387 -0.1495  0.2389  0.0731
  350loPI   C2A 5592   4.387   1.205   8.959  0.2309 -0.1907  0.2412
  350loPI   C3A 5593   4.657   1.365   8.628  0.0692  0.2807  0.0238
  350loPI   C4A 5594   4.792   1.648   8.240 -0.0187  0.0158 -0.2622
  350loPI   C5A 5595   4.881   1.993   7.961 -0.3941  0.0200 -0.1012
  350loPI   C6A 5596   4.919   2.408   7.809  0.0210  0.0546  0.2646
  350loPI   C1B 5597   3.893   0.620   9.110  0.4129 -0.0827 -0.0293
  350loPI   C2B 5598   3.828   0.775   8.619 -0.2126  0.1420 -0.1652
  350loPI   C3B 5599   3.836   0.665   8.154 -0.0050  0.1993 -0.1825
  350loPI   C4B 5600   3.743   0.958   7.784  0.0571  0.1504 -0.4250
  351loPI    C1 5601   5.488  13.363   9.964  0.1443  0.1870 -0.1607
  351loPI    C2 5602   5.571  13.333  10.354  0.2512 -0.1390 -0.2053
  351loPI    C3 5603   5.268  13.563  10.232  0.4191  0.2240  0.0418
  351loPI   PO4 5604   5.591  13.130   9.917  0.0994 -0.0243  0.0683
  351loPI   GL1 5605   5.864  12.946   9.650 -0.0350  0.0834 -0.1501
  351loPI   GL2 5606   6.180  12.929   9.568 -0.2877  0.2727 -0.3506
  351loPI   C1A 5607   5.790  13.084   9.175 -0.1367  0.3226  0.1713
  351loPI   C2A 5608   5.741  13.132   8.853  0.2054  0.0085 -0.1200
  351loPI   C3A 5609   6.049  13.244   8.490  0.0315 -0.2472 -0.0836
  351loPI   C4A 5610   6.310  13.586   8.431  0.0897  0.1200  0.0853
  351loPI   C5A 5611   6.230  14.078   8.128 -0.1389 -0.2413  0.1321
  351loPI   C6A 5612   6.275  14.102   7.610 -0.1724  0.1641  0.0774
  351loPI   C1B 5613   6.342  13.063   9.123 -0.1080 -0.0173 -0.0725
  351loPI   C2B 5614   6.487  13.171   8.707  0.0806 -0.1498  0.1562
  351loPI   C3B 5615   6.517  13.132   8.330  0.2564  0.1745 -0.3944
  351loPI   C4B 5616   6.914  13.287   7.990 -0.0211 -0.2141 -0.0779
  352loPI    C1 5617  10.176  14.415  10.090  0.3321 -0.2375 -0.1741
  352loPI    C2 5618  10.561  14.472  10.183  0.1877 -0.0419  0.3363
  352loPI    C3 5619  10.363  14.159  10.335  0.1527 -0.1684  0.0375
  352loPI   PO4 5620  10.167  14.398   9.872 -0.3139 -0.1209  0.1333
  352loPI   GL1 5621   9.953  14.508   9.517 -0.1160 -0.0195 -0.1452
  352loPI   GL2 5622  10.092  14.368   9.387  0.0724 -0.0104  0.0688
  352loPI   C1A 5623   9.651  14.838   9.398 -0.0637  0.3767 -0.1059
  352loPI   C2A 5624   9.279  14.773   9.275  0.0754  0.0277  0.1766
  352loPI   C3A 5625   9.209  14.636   8.861  0.1216 -0.0373  0.2400
  352loPI   C4A 5626   9.190  14.499   8.428 -0.2078  0.0736 -0.2501
  352loPI   C5A 5627   8.920  14.238   8.149 -0.1587  0.1463 -0.0425
  352loPI   C6A 5628   8.647  14.402   7.865 -0.4786 -0.0369  0.0035
  352loPI   C1B 5629   9.983  14.669   9.047 -0.2212 -0.6442  0.0160
  352loPI   C2B 5630   9.625  14.932   8.863  0.0475  0.0031  0.1804
  352loPI   C3B 5631   9.404  15.325   8.650  0.1425 -0.0631 -0.0742
  352loPI   C4B 5632   9.130  15.508   8.263 -0.1434  0.0307 -0.2374
  353loPI    C1 5633   7.871   0.635   9.909 -0.3407  0.1298 -0.1156
  353loPI    C2 5634   7.742   0.878  10.200 -0.1488  0.0607  0.0295
  353loPI    C3 5635   8.036   0.617  10.273 -0.0133  0.1275 -0.2611
  353loPI   PO4 5636   7.907   0.748   9.650 -0.0563 -0.1327  0.0974
  353loPI   GL1 5637   8.072   0.913   9.209  0.1428  0.4231  0.1926
  353loPI   GL2 5638   8.217   1.267   9.083 -0.1561 -0.1825  0.0279
  353loPI   C1A 5639   8.243   0.769   8.808 -0.1340  0.0011  0.0300
  353loPI   C2A 5640   8.214   0.770   8.401  0.0205  0.2297  0.0562
  353loPI   C3A 5641   8.248   0.619   7.914 -0.3649 -0.0617 -0.0989
  353loPI   C4A 5642   8.468   0.873   7.411  0.2297  0.1251  0.0285
  353loPI   C5A 5643   8.843   1.098   7.248  0.0142  0.1934  0.0710
  353loPI   C6A 5644   9.179   1.296   7.396 -0.2883  0.0823 -0.3451
  353loPI   C1B 5645   7.956   1.169   8.681  0.0017 -0.0496  0.3265
  353loPI   C2B 5646   7.874   1.035   8.217 -0.1149 -0.0564  0.5269
  353loPI   C3B 5647   7.697   1.135   7.913 -0.1510  0.1109  0.1189
  353loPI   C4B 5648   7.434   1.315   7.708  0.2068  0.0513  0.0850
  354loPI    C1 5649   8.298  10.748  10.096 -0.1594 -0.2339 -0.1332
  354loPI    C2 5650   8.649  10.580  10.190  0.0539  0.1094 -0.2968
  354loPI    C3 5651   8.340  10.554  10.443  0.1958 -0.1920 -0.1492
  354loPI   PO4 5652   8.181  10.645   9.880  0.4649  0.0852 -0.0652
  354loPI   GL1 5653   8.171  10.809   9.394  0.1778 -0.2213 -0.0191
  354loPI   GL2 5654   8.440  10.774   9.056  0.1487 -0.0357  0.0428
  354loPI   C1A 5655   8.118  11.149   9.130  0.1271 -0.0558  0.1566
  354loPI   C2A 5656   8.322  11.347   8.783 -0.3789  0.2508 -0.2642
  354loPI   C3A 5657   8.683  11.498   8.424  0.0239  0.2882 -0.0837
  354loPI   C4A 5658   8.936  11.702   7.944  0.1712  0.1371  0.1573
  354loPI   C5A 5659   9.474  11.702   7.869 -0.0659  0.0063 -0.3522
  354loPI   C6A 5660   9.914  11.900   7.647 -0.0931 -0.0258 -0.3617
  354loPI   C1B 5661   8.552  10.904   8.680 -0.0694 -0.2325 -0.2517
  354loPI   C2B 5662   8.907  10.960   8.381 -0.0089 -0.1032 -0.1654
  354loPI   C3B 5663   9.007  11.191   8.072 -0.0748 -0.1481 -0.2371
  354loPI   C4B 5664   9.265  11.156   7.732 -0.3171 -0.3180  0.1766
  355loPI    C1 5665   1.854   6.608  10.098 -0.3232 -0.2952  0.0474
  355loPI    C2 5666   1.772   6.909  10.347  0.0713 -0.0056 -0.1616
  355loPI    C3 5667   2.006   6.608  10.468  0.0402 -0.0034 -0.0951
  355loPI   PO4 5668   2.014   6.797   9.895 -0.1523  0.0351 -0.0324
  355loPI   GL1 5669   2.184   6.648   9.462  0.0568 -0.0605 -0.3649
  355loPI   GL2 5670   2.497   6.576   9.415  0.0443  0.3129  0.0560
  355loPI   C1A 5671   2.173   6.460   9.001  0.2138  0.1380 -0.1124
  355loPI   C2A 5672   2.553   6.513   8.668  0.0399  0.1308  0.0312
  355loPI   C3A 5673   2.513   6.329   8.320  0.0559 -0.3158 -0.3505
  355loPI   C4A 5674   2.431   6.320   7.859  0.0793 -0.1179  0.2765
  355loPI   C5A 5675   2.092   6.387   7.677  0.3818 -0.2878  0.0320
  355loPI   C6A 5676   1.650   6.298   7.447  0.0956  0.0006 -0.0547
  355loPI   C1B 5677   2.567   6.811   9.084 -0.3275 -0.0869 -0.1431
  355loPI   C2B 5678   2.540   7.070   8.757 -0.1398  0.0336 -0.0445
  355loPI   C3B 5679   2.703   6.979   8.388  0.0123 -0.1563  0.1862
  355loPI   C4B 5680   2.781   6.621   8.019 -0.2637 -0.2527 -0.2144
  356loPI    C1 5681  18.839   4.493   9.906  0.0058 -0.0144  0.0129
  356loPI    C2 5682  18.825   4.239  10.215  0.0223 -0.1184 -0.0712
  356loPI    C3 5683  18.552   4.530  10.183 -0.0043 -0.1331  0.0190
  356loPI   PO4 5684  18.790   4.357   9.708 -0.0139  0.1492 -0.3968
  356loPI   GL1 5685  18.948   4.066   9.461  0.0252  0.1978  0.0556
  356loPI   GL2 5686  19.162   3.869   9.394 -0.2578 -0.2537  0.1327
  356loPI   C1A 5687  18.693   4.062   9.023 -0.2122  0.2040  0.0311
  356loPI   C2A 5688  18.744   4.043   8.592  0.0963 -0.7622 -0.0019
  356loPI   C3A 5689  18.749   3.733   8.379 -0.1021 -0.3852 -0.1481
  356loPI   C4A 5690  18.942   3.769   7.974  0.1094  0.1271 -0.1126
  356loPI   C5A 5691  19.083   3.878   7.530 -0.1304 -0.0863 -0.0159
  356loPI   C6A 5692  19.199   3.999   7.081 -0.1403 -0.2585 -0.1082
  356loPI   C1B 5693  19.222   4.100   9.083 -0.3421  0.0145 -0.0286
  356loPI   C2B 5694  19.388   4.263   8.793  0.1093  0.1169 -0.0261
  356loPI   C3B 5695  19.449   4.489   8.329 -0.2309 -0.0509 -0.5134
  356loPI   C4B 5696  19.538   4.292   7.907 -0.4025 -0.0853  0.1262
  357loPI    C1 5697   1.276  12.508   9.763 -0.0795  0.2472 -0.2943
  357loPI    C2 5698   0.902  12.413   9.868  0.1664 -0.2352  0.2039
  357loPI    C3 5699   1.083  12.728  10.035  0.0198 -0.0550  0.0287
  357loPI   PO4 5700   1.264  12.450   9.442  0.2106  0.0600 -0.3664
  357loPI   GL1 5701   1.050  12.152   8.956 -0.2055 -0.0204 -0.1612
  357loPI   GL2 5702   1.329  12.265   8.955  0.1209 -0.1448 -0.1463
  357loPI   C1A 5703   1.067  12.107   8.512 -0.2368  0.1033 -0.0577
  357loPI   C2A 5704   0.946  11.824   8.148  0.1279  0.0828 -0.1400
  357loPI   C3A 5705   0.792  11.868   7.636  0.4658 -0.1713  0.0460
  357loPI   C4A 5706   0.808  11.662   7.306 -0.2516 -0.0577  0.1634
  357loPI   C5A 5707   1.140  11.517   7.043  0.1689 -0.1189  0.2280
  357loPI   C6A 5708   1.467  11.460   7.232 -0.0675 -0.0395  0.1949
  357loPI   C1B 5709   1.517  12.400   8.558  0.0759 -0.0679  0.1138
  357loPI   C2B 5710   1.612  12.459   8.139  0.1836  0.0605 -0.1155
  357loPI   C3B 5711   1.674  12.423   7.732 -0.1526 -0.2236 -0.3450
  357loPI   C4B 5712   1.745  12.646   7.414 -0.2456  0.2130 -0.1066
  358loPI    C1 5713  15.933  12.360   9.759 -0.3073 -0.0055  0.0449
  358loPI    C2 5714  15.746  12.273  10.102 -0.1988  0.1976  0.1577
  358loPI    C3 5715  16.026  12.559  10.094 -0.1646  0.1595 -0.0905
  358loPI   PO4 5716  15.749  12.304   9.546  0.3087 -0.6182 -0.1039
  358loPI   GL1 5717  15.844  12.309   9.109  0.0393  0.1191  0.2677
  358loPI   GL2 5718  15.897  12.621   9.043 -0.3564 -0.2797 -0.0518
  358loPI   C1A 5719  15.779  12.242   8.761  0.0916 -0.3309  0.0470
  358loPI   C2A 5720  15.775  12.377   8.352 -0.4404  0.0178  0.0532
  358loPI   C3A 5721  15.876  12.352   7.986 -0.0691 -0.0627  0.0986
  358loPI   C4A 5722  15.906  12.533   7.562  0.0944  0.0968 -0.2117
  358loPI   C5A 5723  16.033  12.610   7.187  0.3176  0.0094  0.0776
  358loPI   C6A 5724  16.216  12.649   6.821 -0.0737 -0.3043 -0.0330
  358loPI   C1B 5725  16.006  12.703   8.671  0.2528 -0.0080 -0.5488
  358loPI   C2B 5726  15.975  12.880   8.230  0.0883 -0.1928  0.1217
  358loPI   C3B 5727  15.947  13.007   7.835 -0.1796  0.2438  0.1244
  358loPI   C4B 5728  15.915  13.077   7.419 -0.2444  0.1270  0.0662
  359loPI    C1 5729  18.390   0.236  10.254 -0.0677 -0.0442  0.2543
  359loPI    C2 5730  18.046   0.104  10.409 -0.1567 -0.0499  0.0551
  359loPI    C3 5731  18.364   0.158  10.645 -0.2287 -0.2591  0.2026
  359loPI   PO4 5732  18.327   0.483  10.051 -0.3529 -0.1189  0.1833
  359loPI   GL1 5733  18.182   0.481   9.617  0.0561  0.2724  0.0001
  359loPI   GL2 5734  18.033   0.739   9.414  0.0046 -0.2068 -0.0416
  359loPI   C1A 5735  18.076   0.245   9.270 -0.0910 -0.0122 -0.1760
  359loPI   C2A 5736  18.062   0.395   8.891 -0.1338  0.1589  0.2703
  359loPI   C3A 5737  18.219   0.585   8.575 -0.2219 -0.1944 -0.2123
  359loPI   C4A 5738  18.216   0.679   8.208  0.2239  0.3273  0.2838
  359loPI   C5A 5739  17.886   0.522   7.847  0.0059  0.1622 -0.0644
  359loPI   C6A 5740  18.078   0.092   7.629  0.2306 -0.1690  0.0399
  359loPI   C1B 5741  18.234   1.007   9.235 -0.1085  0.3659  0.1202
  359loPI   C2B 5742  18.485   0.992   8.781 -0.1070 -0.0788  0.2745
  359loPI   C3B 5743  18.520   0.990   8.387 -0.1147  0.0470  0.0601
  359loPI   C4B 5744  18.617   1.004   7.910  0.0400 -0.0082 -0.1121
  360loPI    C1 5745   6.613   9.796   9.792  0.2027  0.1881 -0.0311
  360loPI    C2 5746   6.796   9.924  10.124  0.0862 -0.1064  0.1504
  360loPI    C3 5747   6.460   9.707  10.151  0.0313 -0.0653 -0.1636
  360loPI   PO4 5748   6.786   9.941   9.599  0.0512 -0.3527  0.3389
  360loPI   GL1 5749   6.872  10.048   9.187  0.1138 -0.2576 -0.0368
  360loPI   GL2 5750   6.907  10.240   9.172  0.5126  0.3957 -0.0404
  360loPI   C1A 5751   7.097   9.848   8.730  0.1898 -0.0388 -0.2121
  360loPI   C2A 5752   7.278   9.933   8.355 -0.0388  0.1365  0.1701
  360loPI   C3A 5753   7.439   9.966   7.931  0.1136 -0.1957  0.0197
  360loPI   C4A 5754   7.526  10.234   7.704  0.1327  0.0991  0.2958
  360loPI   C5A 5755   7.421  10.403   7.371  0.1738 -0.3712 -0.2337
  360loPI   C6A 5756   7.724  10.648   7.057 -0.1686  0.0226  0.2558
  360loPI   C1B 5757   6.779  10.295   8.753  0.1085  0.2067 -0.0010
  360loPI   C2B 5758   6.823  10.216   8.379 -0.0732 -0.0709  0.0967
  360loPI   C3B 5759   6.910   9.986   8.030  0.3067  0.1690 -0.4220
  360loPI   C4B 5760   7.048   9.959   7.635 -0.2234  0.0396 -0.3447
  361loPI    C1 5761  11.395   1.578  10.024  0.1963  0.1826 -0.0191
  361loPI    C2 5762  11.600   1.440  10.339  0.2469  0.1472 -0.0673
  361loPI    C3 5763  11.376   1.769  10.375 -0.0999 -0.1027  0.1258
  361loPI   PO4 5764  11.511   1.649   9.826  0.1058  0.2596 -0.4303
  361loPI   GL1 5765  11.353   1.577   9.347 -0.0654  0.2529 -0.1792
  361loPI   GL2 5766  11.770   1.582   9.310 -0.1676 -0.1651  0.0254
  361loPI   C1A 5767  11.211   1.425   9.042 -0.1615  0.0255 -0.1590
  361loPI   C2A 5768  11.195   1.406   8.663  0.0222  0.1915  0.1254
  361loPI   C3A 5769  11.064   1.687   8.309 -0.1662  0.1583 -0.1366
  361loPI   C4A 5770  10.822   1.582   7.917  0.3295 -0.2150  0.0759
  361loPI   C5A 5771  10.405   1.677   7.716 -0.1825 -0.0450 -0.0736
  361loPI   C6A 5772  10.142   1.426   7.416  0.2032 -0.3379  0.1578
  361loPI   C1B 5773  11.678   1.601   8.831 -0.2869 -0.1558  0.0958
  361loPI   C2B 5774  11.659   1.355   8.345 -0.2562  0.0168  0.3769
  361loPI   C3B 5775  11.360   1.312   7.980 -0.3136 -0.0375 -0.1101
  361loPI   C4B 5776  11.238   1.370   7.564  0.3900  0.0926  0.0650
  362loPI    C1 5777  13.041  11.992  10.508  0.0411 -0.0713 -0.2109
  362loPI    C2 5778  13.426  11.907  10.444  0.0479 -0.1126 -0.1170
  362loPI    C3 5779  13.245  11.774  10.775 -0.0142  0.0093 -0.1017
  362loPI   PO4 5780  12.781  11.963  10.224  0.1164 -0.0901  0.2667
  362loPI   GL1 5781  12.769  11.911   9.841 -0.0627  0.0030 -0.1313
  362loPI   GL2 5782  12.899  11.735   9.581 -0.3358  0.0759  0.0007
  362loPI   C1A 5783  12.748  12.263   9.452  0.0715  0.1328 -0.1714
  362loPI   C2A 5784  12.684  12.228   9.009 -0.3170 -0.0239 -0.3156
  362loPI   C3A 5785  12.558  12.267   8.638 -0.0753 -0.2737  0.0412
  362loPI   C4A 5786  12.478  12.308   8.164  0.0583  0.3052  0.2626
  362loPI   C5A 5787  12.225  12.422   7.755 -0.3879 -0.0909  0.0574
  362loPI   C6A 5788  11.964  12.222   7.371 -0.1178 -0.2036 -0.1652
  362loPI   C1B 5789  12.996  11.953   9.219  0.1024  0.2900 -0.0632
  362loPI   C2B 5790  12.896  11.803   8.781 -0.0277  0.3857 -0.1174
  362loPI   C3B 5791  13.054  11.802   8.347  0.5370 -0.0574  0.2956
  362loPI   C4B 5792  13.027  11.539   7.916 -0.3318 -0.0660 -0.0273
  363loPI    C1 5793  12.034   4.702   9.956 -0.0452 -0.0268 -0.0567
  363loPI    C2 5794  12.285   4.403  10.043  0.0316  0.0510 -0.0087
  363loPI    C3 5795  11.946   4.447  10.252 -0.0303 -0.0637 -0.0841
  363loPI   PO4 5796  12.030   4.799   9.736  0.2803  0.2947  0.0750
  363loPI   GL1 5797  12.236   5.083   9.359  0.1041 -0.1565  0.0815
  363loPI   GL2 5798  11.885   4.878   9.209  0.1125  0.2169 -0.2576
  363loPI   C1A 5799  12.311   5.083   8.964 -0.2078 -0.1909 -0.0291
  363loPI   C2A 5800  12.468   5.111   8.590 -0.0086  0.0430  0.4017
  363loPI   C3A 5801  12.461   4.929   8.224  0.2636 -0.2118 -0.1196
  363loPI   C4A 5802  12.480   5.243   7.844  0.3430  0.2835  0.0904
  363loPI   C5A 5803  12.667   5.411   7.449  0.2232 -0.0756  0.2662
  363loPI   C6A 5804  12.805   5.709   7.108  0.2928 -0.0333  0.0591
  363loPI   C1B 5805  11.953   4.803   8.777 -0.0273  0.0011 -0.1203
  363loPI   C2B 5806  11.911   4.852   8.270 -0.1800 -0.1328  0.4791
  363loPI   C3B 5807  12.001   5.023   7.763  0.2381 -0.0355  0.1941
  363loPI   C4B 5808  12.122   5.355   7.502  0.0988 -0.0823  0.1065
  364loPI    C1 5809   4.037   8.949   9.975  0.1213 -0.0655  0.0261
  364loPI    C2 5810   3.654   9.045  10.037  0.1551  0.1833 -0.1343
  364loPI    C3 5811   3.934   9.330  10.041  0.3138  0.0301 -0.2089
  364loPI   PO4 5812   4.069   8.828   9.726  0.0479 -0.0741 -0.3213
  364loPI   GL1 5813   4.051   8.548   9.486  0.0350  0.3226 -0.0636
  364loPI   GL2 5814   3.975   8.825   9.228  0.0514 -0.0239  0.3381
  364loPI   C1A 5815   4.232   8.418   9.090  0.4377  0.0047 -0.0620
  364loPI   C2A 5816   4.090   8.201   8.687  0.2064  0.1492 -0.1048
  364loPI   C3A 5817   4.122   8.143   8.341 -0.1744  0.2967  0.2469
  364loPI   C4A 5818   4.367   7.953   7.967  0.2378 -0.0699 -0.0393
  364loPI   C5A 5819   4.341   7.626   7.604  0.0709  0.2479 -0.0721
  364loPI   C6A 5820   4.328   7.263   7.452  0.0112 -0.1613 -0.2382
  364loPI   C1B 5821   4.025   8.837   8.938 -0.4528  0.2605  0.0662
  364loPI   C2B 5822   4.181   8.659   8.477 -0.0778 -0.0621  0.3719
  364loPI   C3B 5823   4.368   8.682   8.024 -0.2241 -0.1091 -0.0366
  364loPI   C4B 5824   4.392   8.567   7.531 -0.2600  0.2631  0.1234
  365loPI    C1 5825   8.279  16.487  10.206 -0.1221  0.3625 -0.0958
  365loPI    C2 5826   8.041  16.696  10.451 -0.0697  0.1864  0.1093
  365loPI    C3 5827   8.438  16.716  10.493 -0.0581  0.2064 -0.0056
  365loPI   PO4 5828   8.209  16.568   9.911  0.2463 -0.2096  0.3016
  365loPI   GL1 5829   8.169  16.825   9.632 -0.0229 -0.0611  0.0198
  365loPI   GL2 5830   8.360  16.954   9.565 -0.1232 -0.1529 -0.4275
  365loPI   C1A 5831   8.006  16.456   9.307 -0.0528 -0.1761 -0.2954
  365loPI   C2A 5832   8.262  16.290   9.040  0.3223  0.1435  0.3027
  365loPI   C3A 5833   8.564  16.482   8.717 -0.0043  0.0332  0.1970
  365loPI   C4A 5834   8.634  16.691   8.226 -0.0775  0.0279 -0.0033
  365loPI   C5A 5835   8.650  16.572   7.809 -0.3088 -0.1927 -0.1361
  365loPI   C6A 5836   9.075  16.475   7.487 -0.0014 -0.0830  0.3691
  365loPI   C1B 5837   8.581  16.684   9.218 -0.2149  0.0747  0.1564
  365loPI   C2B 5838   8.942  16.793   9.028  0.0151 -0.1944  0.0051
  365loPI   C3B 5839   9.259  16.830   8.712  0.2372  0.2091 -0.1735
  365loPI   C4B 5840   9.643  16.741   8.494 -0.0060  0.2268  0.1354
  366loPI    C1 5841   8.731   9.785  10.005  0.2613 -0.0135  0.0562
  366loPI    C2 5842   8.583   9.738  10.373  0.1006  0.2219  0.0238
  366loPI    C3 5843   8.750  10.085  10.268  0.0963  0.1745 -0.1427
  366loPI   PO4 5844   8.539   9.786   9.708 -0.1410 -0.4055  0.1077
  366loPI   GL1 5845   8.430   9.827   9.322  0.1865  0.2273 -0.1546
  366loPI   GL2 5846   8.552  10.018   9.108 -0.0691 -0.1252  0.0414
  366loPI   C1A 5847   8.126   9.744   8.978 -0.1528 -0.3590  0.3389
  366loPI   C2A 5848   8.140   9.698   8.544 -0.0541  0.2265 -0.1114
  366loPI   C3A 5849   8.224   9.673   8.088 -0.1445 -0.1410  0.2611
  366loPI   C4A 5850   8.478   9.789   7.793 -0.2076 -0.1305  0.0078
  366loPI   C5A 5851   8.582   9.525   7.443  0.0322 -0.0721  0.1766
  366loPI   C6A 5852   8.569   9.538   7.079  0.1422 -0.0133  0.0009
  366loPI   C1B 5853   8.374  10.264   8.851  0.0714 -0.1622 -0.1607
  366loPI   C2B 5854   8.298  10.511   8.545 -0.0594  0.1295 -0.1292
  366loPI   C3B 5855   8.447  10.721   8.188 -0.0149 -0.1664 -0.2861
  366loPI   C4B 5856   8.631  10.953   7.832 -0.0526 -0.3682 -0.1205
  367loPI    C1 5857   4.660   2.545  10.511  0.1031 -0.0469  0.0171
  367loPI    C2 5858   4.967   2.641  10.749 -0.0833 -0.0780  0.2735
  367loPI    C3 5859   4.814   2.272  10.759  0.1088 -0.1740 -0.1249
  367loPI   PO4 5860   4.670   2.626  10.294 -0.3880  0.4933  0.0952
  367loPI   GL1 5861   4.702   2.722   9.872 -0.1467  0.1650 -0.0111
  367loPI   GL2 5862   4.852   2.371   9.805  0.1849 -0.1422 -0.2311
  367loPI   C1A 5863   4.762   2.816   9.497  0.2004  0.1204 -0.0656
  367loPI   C2A 5864   4.864   2.696   9.201  0.0409  0.1820  0.0001
  367loPI   C3A 5865   5.044   2.607   8.783 -0.0643  0.1589  0.1258
  367loPI   C4A 5866   5.111   2.469   8.321 -0.3924 -0.0743 -0.0502
  367loPI   C5A 5867   5.352   2.514   7.983  0.0217  0.3019 -0.3373
  367loPI   C6A 5868   5.609   2.839   7.856 -0.2647 -0.1950 -0.0761
  367loPI   C1B 5869   4.584   2.284   9.470 -0.1494  0.0447 -0.1905
  367loPI   C2B 5870   4.345   2.070   9.238  0.2287 -0.0050  0.0284
  367loPI   C3B 5871   4.163   2.075   8.882  0.1002  0.0363 -0.1215
  367loPI   C4B 5872   3.979   2.488   8.677  0.0030 -0.1667 -0.0756
  368loPI    C1 5873   0.608   0.226   9.916  0.0975 -0.1026 -0.0090
  368loPI    C2 5874   0.750   0.203  10.290  0.3507  0.1924 -0.0821
  368loPI    C3 5875   0.404   0.391  10.218 -0.0129 -0.3887  0.0758
  368loPI   PO4 5876   0.697   0.177   9.727  0.3323 -0.3283 -0.3195
  368loPI   GL1 5877   0.466   0.217   9.451  0.3845 -0.1319 -0.0281
  368loPI   GL2 5878   0.236   0.083   9.297  0.1040  0.0400 -0.0447
  368loPI   C1A 5879   0.714   0.550   9.215 -0.1208 -0.1527 -0.1431
  368loPI   C2A 5880   0.894   0.704   8.834 -0.0829 -0.1015  0.1440
  368loPI   C3A 5881   0.946   0.692   8.296 -0.1003 -0.2252  0.0192
  368loPI   C4A 5882   0.643   0.921   7.969 -0.5146  0.3383  0.5487
  368loPI   C5A 5883   0.390   1.192   7.694  0.1228 -0.0451 -0.1960
  368loPI   C6A 5884  -0.079   1.362   7.757  0.0561 -0.2397  0.3876
  368loPI   C1B 5885   0.065   0.305   8.892  0.0024  0.1869 -0.3906
  368loPI   C2B 5886   0.058   0.309   8.477  0.2355 -0.3411  0.0168
  368loPI   C3B 5887   0.150   0.455   8.023  0.0260  0.3256  0.1355
  368loPI   C4B 5888  -0.031   0.267   7.609 -0.1711 -0.2490 -0.0727
  369loPI    C1 5889   0.814  17.523   9.428 -0.1858 -0.1850 -0.0200
  369loPI    C2 5890   0.994  17.180   9.532  0.1044 -0.0355 -0.0168
  369loPI    C3 5891   1.211  17.512   9.479 -0.1811  0.1658  0.0446
  369loPI   PO4 5892   0.568  17.505   9.098  0.3562 -0.0339 -0.0595
  369loPI   GL1 5893   0.550  17.875   8.765  0.1384  0.0676 -0.0426
  369loPI   GL2 5894   0.756  17.614   8.667 -0.0013 -0.1332  0.0586
  369loPI   C1A 5895   0.320  17.871   8.468 -0.0748  0.2933 -0.0591
  369loPI   C2A 5896   0.270  18.057   8.080 -0.1763 -0.2611  0.1829
  369loPI   C3A 5897   0.370  18.032   7.632 -0.0563  0.0214 -0.0818
  369loPI   C4A 5898   0.240  17.985   7.285  0.2539  0.0813  0.2785
  369loPI   C5A 5899   0.077  18.190   6.848 -0.5099  0.2320 -0.0546
  369loPI   C6A 5900  -0.287  18.330   6.506 -0.0991  0.2495 -0.3332
  369loPI   C1B 5901   1.038  17.522   8.309  0.2787 -0.0258  0.0472
  369loPI   C2B 5902   1.065  17.706   7.881 -0.1299  0.1029 -0.1754
  369loPI   C3B 5903   0.795  17.775   7.601  0.1901  0.1540  0.1985
  369loPI   C4B 5904   0.887  17.868   7.313  0.1740 -0.2840 -0.0951
  370loPI    C1 5905   8.144   6.675   9.783 -0.1018 -0.0991 -0.2215
  370loPI    C2 5906   8.495   6.484   9.796 -0.1416 -0.1490  0.3939
  370loPI    C3 5907   8.415   6.774  10.060 -0.3337  0.2872 -0.1250
  370loPI   PO4 5908   8.111   6.684   9.592 -0.2793 -0.2902 -0.4867
  370loPI   GL1 5909   7.921   6.938   9.270  0.1363 -0.1873 -0.3203
  370loPI   GL2 5910   8.204   6.996   9.245  0.0787 -0.3566 -0.2487
  370loPI   C1A 5911   7.744   6.919   8.872  0.1503  0.1033 -0.0225
  370loPI   C2A 5912   7.606   6.927   8.365  0.0043 -0.1315 -0.0740
  370loPI   C3A 5913   7.519   7.069   8.010  0.0799  0.1646 -0.0989
  370loPI   C4A 5914   7.263   6.934   7.620 -0.2070 -0.0220  0.0471
  370loPI   C5A 5915   7.237   6.593   7.353 -0.0053 -0.0518  0.0145
  370loPI   C6A 5916   7.445   6.205   7.421 -0.3395  0.0770  0.0754
  370loPI   C1B 5917   8.285   6.931   8.854  0.0645 -0.0565  0.2828
  370loPI   C2B 5918   8.148   7.061   8.525  0.1304 -0.3122 -0.3204
  370loPI   C3B 5919   8.052   7.091   8.070  0.1620  0.1024 -0.1630
  370loPI   C4B 5920   8.075   6.955   7.738  0.0851 -0.2193 -0.1078
  371loPI    C1 5921   9.419   5.062   9.686  0.0481  0.1923 -0.0095
  371loPI    C2 5922   9.778   4.923   9.796 -0.0967  0.0323  0.2748
  371loPI    C3 5923   9.460   4.863  10.031 -0.3427  0.0307 -0.0512
  371loPI   PO4 5924   9.441   5.016   9.403  0.3546  0.0167 -0.4260
  371loPI   GL1 5925   9.710   4.747   9.243 -0.0253  0.0487  0.1163
  371loPI   GL2 5926   9.387   4.613   9.205  0.1742  0.3398 -0.1227
  371loPI   C1A 5927   9.891   4.366   8.936  0.1848 -0.3359 -0.0655
  371loPI   C2A 5928   9.912   4.279   8.514 -0.0146  0.4628 -0.2035
  371loPI   C3A 5929   9.890   4.350   8.004 -0.1082 -0.3420  0.2998
  371loPI   C4A 5930   9.692   4.357   7.533  0.2562  0.2226  0.0761
  371loPI   C5A 5931   9.736   4.608   7.139  0.1048  0.0774  0.2764
  371loPI   C6A 5932   9.791   4.922   6.727  0.0491  0.1690  0.1900
  371loPI   C1B 5933   9.494   4.527   8.703  0.0316  0.0523  0.1678
  371loPI   C2B 5934   9.454   4.427   8.301 -0.1112 -0.0963  0.0494
  371loPI   C3B 5935   9.339   4.250   7.875 -0.0866 -0.0675 -0.1438
  371loPI   C4B 5936   9.048   4.180   7.545  0.1293  0.2074 -0.1319
  372loPI    C1 5937   8.102   4.236   9.665  0.3529 -0.1700 -0.0455
  372loPI    C2 5938   8.008   4.333  10.041 -0.0046 -0.2469 -0.1114
  372loPI    C3 5939   8.262   4.562   9.833 -0.3264  0.1802 -0.0470
  372loPI   PO4 5940   7.880   4.193   9.509 -0.0797 -0.1172 -0.1198
  372loPI   GL1 5941   7.818   3.843   9.292 -0.2668  0.1200  0.0977
  372loPI   GL2 5942   8.017   3.586   9.344  0.0692 -0.2225  0.2108
  372loPI   C1A 5943   7.665   3.525   8.958 -0.1710 -0.1249 -0.0493
  372loPI   C2A 5944   7.557   3.386   8.460  0.0524  0.1206 -0.2890
  372loPI   C3A 5945   7.818   3.390   8.078  0.1715 -0.2166  0.1905
  372loPI   C4A 5946   8.139   3.242   7.880 -0.0268  0.2147  0.4085
  372loPI   C5A 5947   8.484   3.368   7.567 -0.1705 -0.1651 -0.0266
  372loPI   C6A 5948   8.845   3.700   7.561 -0.0207  0.1304 -0.1010
  372loPI   C1B 5949   8.140   3.806   8.932  0.0029 -0.0269 -0.1935
  372loPI   C2B 5950   8.060   3.817   8.443 -0.0199  0.0513  0.2347
  372loPI   C3B 5951   8.128   3.982   8.089  0.0171  0.0265 -0.2085
  372loPI   C4B 5952   8.429   3.896   7.701  0.1308 -0.2118  0.2535
  373loPI    C1 5953   9.152   0.003  10.183 -0.1989 -0.0331  0.1778
  373loPI    C2 5954   8.861   0.254  10.294 -0.0211  0.2351  0.0480
  373loPI    C3 5955   9.108   0.100  10.568 -0.3404 -0.0717  0.1720
  373loPI   PO4 5956   9.295  -0.003   9.830 -0.0015  0.1670 -0.2774
  373loPI   GL1 5957   9.631   0.206   9.586  0.1147  0.0198 -0.1455
  373loPI   GL2 5958   9.623  -0.171   9.550  0.1423  0.1303  0.0837
  373loPI   C1A 5959   9.593   0.464   9.230 -0.0272 -0.2055 -0.1558
  373loPI   C2A 5960   9.779   0.541   8.952 -0.5306  0.4036 -0.3192
  373loPI   C3A 5961   9.767   0.528   8.561 -0.1586 -0.5372  0.0173
  373loPI   C4A 5962  10.058   0.310   8.078  0.1070 -0.2007  0.2170
  373loPI   C5A 5963  10.228  -0.033   7.838 -0.3735  0.0607  0.1157
  373loPI   C6A 5964  10.504  -0.349   7.604 -0.1848  0.3756  0.0470
  373loPI   C1B 5965   9.615  -0.045   9.104 -0.3612  0.0845 -0.2733
  373loPI   C2B 5966   9.522   0.124   8.736  0.1076 -0.2360 -0.1672
  373loPI   C3B 5967   9.534   0.133   8.278 -0.0154 -0.0113  0.0408
  373loPI   C4B 5968   9.603   0.103   7.851 -0.1616  0.1820  0.1111
  374loPI    C1 5969  15.349  18.442  10.004  0.0279  0.1173  0.1505
  374loPI    C2 5970  14.951  18.417   9.975  0.0662 -0.1110 -0.2672
  374loPI    C3 5971  15.156  18.134  10.170  0.0219  0.0440  0.0095
  374loPI   PO4 5972  15.426  18.541   9.863 -0.1893  0.0087  0.0652
  374loPI   GL1 5973  15.356  18.714   9.396 -0.1519  0.1802  0.0806
  374loPI   GL2 5974  15.235  19.132   9.336  0.3203 -0.0344 -0.3330
  374loPI   C1A 5975  15.110  18.711   9.063 -0.0878 -0.1408  0.0846
  374loPI   C2A 5976  14.909  18.516   8.701  0.1466 -0.1170  0.0233
  374loPI   C3A 5977  14.816  18.426   8.260  0.2683 -0.2599 -0.0939
  374loPI   C4A 5978  14.894  18.340   7.733  0.0635  0.0062  0.2152
  374loPI   C5A 5979  14.596  18.433   7.300 -0.0079 -0.2076 -0.0811
  374loPI   C6A 5980  14.270  18.699   7.308 -0.0498  0.1247  0.0837
  374loPI   C1B 5981  15.349  19.127   8.849  0.0145  0.2117 -0.0141
  374loPI   C2B 5982  15.250  19.156   8.474  0.1891  0.1052 -0.2564
  374loPI   C3B 5983  15.109  19.202   8.083 -0.1146  0.0666 -0.0796
  374loPI   C4B 5984  15.287  19.244   7.623 -0.0839  0.1238  0.0729
  375loPI    C1 5985   3.358   3.700  10.385  0.0382 -0.0249 -0.1789
  375loPI    C2 5986   3.209   4.032  10.550  0.1202  0.0757 -0.3049
  375loPI    C3 5987   3.327   3.729  10.782 -0.2993 -0.0162 -0.2033
  375loPI   PO4 5988   3.205   3.709  10.187 -0.1861  0.0866 -0.1442
  375loPI   GL1 5989   3.229   3.708   9.775  0.0976 -0.1730  0.0034
  375loPI   GL2 5990   3.623   3.754   9.822 -0.1197  0.2296  0.2196
  375loPI   C1A 5991   3.218   3.969   9.434 -0.2789  0.1420  0.0543
  375loPI   C2A 5992   3.411   3.990   9.033  0.2252  0.1644  0.2892
  375loPI   C3A 5993   3.622   4.058   8.690  0.1876  0.2418  0.2067
  375loPI   C4A 5994   3.929   4.116   8.294  0.4145  0.0400 -0.2296
  375loPI   C5A 5995   4.002   4.531   8.117  0.0279 -0.0432  0.0754
  375loPI   C6A 5996   3.889   4.928   8.125  0.2183  0.1857  0.1649
  375loPI   C1B 5997   3.617   3.712   9.457  0.0013  0.2731  0.0983
  375loPI   C2B 5998   3.843   3.651   8.986  0.0411 -0.0399 -0.0399
  375loPI   C3B 5999   3.883   3.601   8.535 -0.0776  0.0269  0.3513
  375loPI   C4B 6000   4.313   3.576   8.247  0.3362  0.1026  0.0678
  376loPI    C1 6001   8.013   6.125   9.518  0.1088  0.1837 -0.0884
  376loPI    C2 6002   7.941   6.254   9.889  0.3973  0.0334  0.0231
  376loPI    C3 6003   7.639   6.130   9.658  0.2304  0.0035  0.2539
  376loPI   PO4 6004   8.258   6.167   9.513  0.0156 -0.0728  0.1630
  376loPI   GL1 6005   8.463   6.372   9.276  0.3431 -0.2956  0.0795
  376loPI   GL2 6006   8.186   6.518   9.157  0.0513  0.1445  0.0603
  376loPI   C1A 6007   8.645   6.550   8.930 -0.0975 -0.0861  0.1536
  376loPI   C2A 6008   8.681   6.310   8.601 -0.1221  0.2730 -0.2016
  376loPI   C3A 6009   8.609   6.215   8.200  0.0159  0.0756 -0.0541
  376loPI   C4A 6010   8.357   6.121   7.821  0.3125  0.4031 -0.3390
  376loPI   C5A 6011   8.384   5.896   7.427  0.1817 -0.0052 -0.5033
  376loPI   C6A 6012   8.448   5.731   7.113 -0.1187 -0.0099 -0.4079
  376loPI   C1B 6013   7.769   6.405   8.932  0.0028 -0.2677  0.0919
  376loPI   C2B 6014   7.521   6.366   8.655  0.2209 -0.1651  0.2059
  376loPI   C3B 6015   7.416   6.475   8.188 -0.0238  0.2904  0.0546
  376loPI   C4B 6016   7.140   6.469   7.843 -0.2095 -0.2664  0.1510
  377loPI    C1 6017   1.087   5.871  10.567  0.0548 -0.2359 -0.0767
  377loPI    C2 6018   1.459   5.870  10.715  0.0366 -0.0809 -0.0275
  377loPI    C3 6019   1.158   5.716  10.929  0.0915 -0.3223 -0.1208
  377loPI   PO4 6020   0.942   5.734  10.304 -0.1956  0.0739 -0.0172
  377loPI   GL1 6021   1.009   5.330  10.102  0.0054  0.3045 -0.2002
  377loPI   GL2 6022   1.128   5.085  10.147  0.0295  0.0503  0.1179
  377loPI   C1A 6023   0.861   5.353   9.653  0.2425 -0.0169 -0.0632
  377loPI   C2A 6024   0.888   5.067   9.340  0.1448 -0.3438  0.4714
  377loPI   C3A 6025   0.792   5.014   8.894  0.0302  0.1782 -0.1229
  377loPI   C4A 6026   0.790   5.191   8.592 -0.0893  0.1051 -0.0508
  377loPI   C5A 6027   0.623   5.435   8.181 -0.0534 -0.0479  0.0671
  377loPI   C6A 6028   0.278   5.670   7.965  0.0833 -0.0606 -0.2114
  377loPI   C1B 6029   1.214   4.952   9.671 -0.2624  0.4762  0.1587
  377loPI   C2B 6030   1.512   4.974   9.355 -0.0451  0.0157 -0.3016
  377loPI   C3B 6031   1.640   4.788   8.960  0.2752 -0.1080  0.0699
  377loPI   C4B 6032   1.776   4.731   8.654  0.2506  0.3337 -0.0994
  378loPI    C1 6033  11.989   8.819   9.774 -0.3568 -0.0438  0.0808
  378loPI    C2 6034  12.174   8.657   9.459 -0.0453  0.0244  0.2240
  378loPI    C3 6035  12.130   8.446   9.796 -0.2073  0.0184  0.2000
  378loPI   PO4 6036  11.760   8.825   9.711 -0.0373 -0.0115  0.0776
  378loPI   GL1 6037  11.632   8.894   9.301 -0.3527  0.1788  0.0149
  378loPI   GL2 6038  11.373   8.747   9.254  0.1435 -0.1579 -0.2234
  378loPI   C1A 6039  11.786   8.689   8.982 -0.2666 -0.2039 -0.2756
  378loPI   C2A 6040  11.622   8.561   8.544 -0.0781 -0.3321 -0.1182
  378loPI   C3A 6041  11.597   8.469   8.044 -0.1212 -0.0754 -0.0753
  378loPI   C4A 6042  11.719   8.467   7.617  0.4260 -0.0042  0.2219
  378loPI   C5A 6043  11.945   8.725   7.293 -0.0147 -0.2523  0.0656
  378loPI   C6A 6044  12.354   8.930   7.285  0.0462  0.1429 -0.1580
  378loPI   C1B 6045  11.234   8.527   8.951 -0.0843  0.2240  0.3788
  378loPI   C2B 6046  11.168   8.376   8.567  0.1101  0.2932  0.0725
  378loPI   C3B 6047  11.168   8.219   8.109  0.0528  0.2943  0.2929
  378loPI   C4B 6048  11.167   8.278   7.736 -0.0555 -0.0639 -0.1823
  379loPI    C1 6049  11.197  17.896   9.941 -0.0496 -0.0634 -0.1290
  379loPI    C2 6050  11.288  17.544  10.108 -0.1499 -0.0682 -0.0840
  379loPI    C3 6051  10.910  17.675  10.110 -0.0960  0.0891 -0.0063
  379loPI   PO4 6052  11.280  18.001   9.742 -0.1147 -0.1439  0.2419
  379loPI   GL1 6053  11.338  17.932   9.300 -0.3605  0.1915  0.0431
  379loPI   GL2 6054  11.423  17.625   9.290 -0.0380 -0.1742  0.0815
  379loPI   C1A 6055  11.126  18.186   9.007  0.1352 -0.0560 -0.1058
  379loPI   C2A 6056  11.187  18.231   8.621  0.1426  0.1334  0.0723
  379loPI   C3A 6057  11.348  18.217   8.214  0.1780 -0.1085 -0.3508
  379loPI   C4A 6058  11.401  18.404   7.880 -0.1627 -0.0781  0.0019
  379loPI   C5A 6059  11.399  18.280   7.419 -0.0886 -0.0399 -0.0768
  379loPI   C6A 6060  11.324  17.832   7.376 -0.0769  0.1045 -0.0949
  379loPI   C1B 6061  11.023  17.664   8.975 -0.0758 -0.1007  0.4386
  379loPI   C2B 6062  10.866  17.785   8.564 -0.1822  0.2210 -0.1861
  379loPI   C3B 6063  11.057  17.819   8.238 -0.1467 -0.0086 -0.0451
  379loPI   C4B 6064  11.131  17.911   7.803 -0.0940  0.1180  0.2006
  380loPI    C1 6065  10.302  15.062  10.512  0.1629  0.0308  0.2330
  380loPI    C2 6066   9.921  15.095  10.627  0.0242  0.0657 -0.2192
  380loPI    C3 6067  10.178  15.391  10.702 -0.0172  0.0128  0.1488
  380loPI   PO4 6068  10.269  14.946  10.206 -0.1333 -0.0145 -0.1134
  380loPI   GL1 6069  10.260  15.235   9.735 -0.2997  0.0914 -0.2417
  380loPI   GL2 6070  10.374  15.643   9.822  0.1085  0.1058  0.2457
  380loPI   C1A 6071  10.186  15.087   9.274  0.0825  0.4089 -0.0320
  380loPI   C2A 6072  10.099  15.021   8.791 -0.2846 -0.0785  0.1675
  380loPI   C3A 6073   9.859  15.197   8.438  0.1896  0.2743  0.2380
  380loPI   C4A 6074   9.531  15.166   8.147  0.3893 -0.1476  0.1696
  380loPI   C5A 6075   9.239  15.117   7.796 -0.1730 -0.1364  0.1431
  380loPI   C6A 6076   8.827  15.156   7.714  0.1742 -0.1159 -0.1260
  380loPI   C1B 6077  10.077  15.660   9.469  0.0038  0.1501 -0.0095
  380loPI   C2B 6078  10.182  15.688   9.051 -0.2918  0.0955 -0.0286
  380loPI   C3B 6079  10.507  15.808   8.796 -0.1872  0.3258  0.2771
  380loPI   C4B 6080  10.625  16.206   8.435  0.1927  0.2381 -0.1696
  381loPI    C1 6081   0.644  13.557   9.894  0.0580  0.2150  0.2170
  381loPI    C2 6082   1.026  13.478   9.807  0.0383  0.1808  0.1612
  381loPI    C3 6083   0.890  13.422  10.179  0.0329 -0.0180  0.1306
  381loPI   PO4 6084   0.587  13.690   9.673  0.1793  0.1272  0.2011
  381loPI   GL1 6085   0.771  13.648   9.281 -0.0305  0.0751  0.4026
  381loPI   GL2 6086   1.129  13.609   9.357  0.1158 -0.0737 -0.0925
  381loPI   C1A 6087   0.680  13.652   8.723  0.0013 -0.0704 -0.0996
  381loPI   C2A 6088   0.823  13.659   8.321 -0.0048 -0.0348 -0.1949
  381loPI   C3A 6089   0.869  13.352   8.054 -0.0537  0.0627 -0.1441
  381loPI   C4A 6090   0.871  13.042   7.785 -0.0884  0.2882  0.3374
  381loPI   C5A 6091   0.794  12.631   7.539  0.1975  0.0934  0.1048
  381loPI   C6A 6092   0.711  12.274   7.303 -0.2977  0.1074  0.0269
  381loPI   C1B 6093   1.095  13.478   8.942 -0.1609  0.0536 -0.1608
  381loPI   C2B 6094   1.168  13.319   8.544 -0.2594  0.2865  0.0392
  381loPI   C3B 6095   1.184  13.032   8.241 -0.2661  0.2162 -0.1196
  381loPI   C4B 6096   1.221  12.706   7.876 -0.1682  0.2386 -0.2335
  382loPI    C1 6097   0.910   6.381  10.446  0.1999 -0.1051  0.2284
  382loPI    C2 6098   0.951   6.767  10.353  0.0959 -0.1405  0.0285
  382loPI    C3 6099   0.633   6.645  10.561  0.3421 -0.0574  0.4666
  382loPI   PO4 6100   1.113   6.329  10.367  0.0343  0.0784 -0.0772
  382loPI   GL1 6101   1.139   6.139   9.981  0.0264  0.1246  0.3208
  382loPI   GL2 6102   0.805   6.242   9.949  0.3263 -0.2068 -0.2891
  382loPI   C1A 6103   1.274   6.301   9.590 -0.2537  0.4086 -0.2054
  382loPI   C2A 6104   1.299   6.098   9.227 -0.0628  0.0100  0.0136
  382loPI   C3A 6105   1.443   5.855   8.917  0.0854  0.0136  0.4631
  382loPI   C4A 6106   1.642   5.913   8.448 -0.0078  0.0759  0.0315
  382loPI   C5A 6107   1.684   5.995   8.049  0.0726 -0.2308 -0.0023
  382loPI   C6A 6108   2.128   5.953   7.947  0.1053  0.3093  0.1999
  382loPI   C1B 6109   0.828   5.944   9.636  0.1766  0.3170 -0.0527
  382loPI   C2B 6110   0.867   5.694   9.197  0.0263  0.1580  0.0094
  382loPI   C3B 6111   1.053   5.521   8.811 -0.0218 -0.0459  0.1922
  382loPI   C4B 6112   1.242   5.498   8.471 -0.2962  0.1853 -0.0023
  383loPI    C1 6113   5.069   9.767   9.921  0.0351 -0.1158 -0.2212
  383loPI    C2 6114   5.045   9.509  10.225  0.2826 -0.0849 -0.1735
  383loPI    C3 6115   5.146   9.889  10.294  0.1602 -0.0336 -0.2737
  383loPI   PO4 6116   5.239   9.655   9.753 -0.1005 -0.1673 -0.1488
  383loPI   GL1 6117   5.329   9.596   9.388 -0.1185 -0.0881  0.4601
  383loPI   GL2 6118   5.132   9.280   9.198 -0.0478 -0.0131  0.0094
  383loPI   C1A 6119   5.402   9.736   8.993  0.1587  0.1207  0.0517
  383loPI   C2A 6120   5.473   9.787   8.543 -0.3724 -0.1976  0.5190
  383loPI   C3A 6121   5.326   9.762   8.151 -0.0396 -0.1322  0.3284
  383loPI   C4A 6122   5.230   9.671   7.781 -0.1464 -0.2864  0.0463
  383loPI   C5A 6123   5.255   9.868   7.363  0.1016 -0.0074 -0.0142
  383loPI   C6A 6124   5.129   9.473   7.194 -0.1248 -0.0159 -0.0762
  383loPI   C1B 6125   5.100   9.332   8.811  0.1673  0.1113 -0.4836
  383loPI   C2B 6126   5.122   9.416   8.477 -0.0508  0.2166  0.0423
  383loPI   C3B 6127   4.828   9.391   8.092  0.0553 -0.0155  0.0656
  383loPI   C4B 6128   4.836   9.338   7.725  0.0103 -0.0941 -0.0545
  384loPI    C1 6129  15.709  13.312   9.664  0.0730 -0.3182  0.2133
  384loPI    C2 6130  15.728  13.673   9.833  0.0978 -0.2299  0.0246
  384loPI    C3 6131  15.378  13.533   9.700  0.1278 -0.1771 -0.1119
  384loPI   PO4 6132  15.903  13.237   9.544 -0.2720 -0.1064 -0.1144
  384loPI   GL1 6133  16.033  13.213   9.198  0.0042  0.1750 -0.2446
  384loPI   GL2 6134  16.258  13.061   9.053  0.3622 -0.0151  0.0597
  384loPI   C1A 6135  16.224  13.580   8.934  0.1047  0.0137  0.2682
  384loPI   C2A 6136  16.011  13.850   8.588 -0.0731 -0.3609  0.2547
  384loPI   C3A 6137  16.077  13.863   8.151  0.3953  0.0698  0.1209
  384loPI   C4A 6138  16.080  13.966   7.632  0.0853  0.3806  0.0009
  384loPI   C5A 6139  16.171  13.878   7.120  0.1922  0.1360 -0.1886
  384loPI   C6A 6140  16.056  14.086   6.711  0.0461  0.1217  0.0599
  384loPI   C1B 6141  15.983  13.222   8.719 -0.3234 -0.1462  0.1388
  384loPI   C2B 6142  15.978  13.370   8.288  0.4128 -0.1696  0.3000
  384loPI   C3B 6143  15.814  13.529   7.867  0.2458 -0.0679  0.0744
  384loPI   C4B 6144  15.448  13.348   7.590  0.1452 -0.2570 -0.0340
  385loPI    C1 6145  11.142  12.804  10.201  0.0435 -0.0918 -0.1528
  385loPI    C2 6146  10.779  12.971  10.193  0.0916  0.0207 -0.0297
  385loPI    C3 6147  11.071  13.137  10.410  0.1035 -0.2970  0.2040
  385loPI   PO4 6148  11.086  12.738   9.822  0.1496  0.2071  0.3212
  385loPI   GL1 6149  11.209  12.847   9.398  0.0360 -0.1240 -0.1438
  385loPI   GL2 6150  11.520  12.541   9.478  0.1059  0.1785 -0.1433
  385loPI   C1A 6151  11.548  12.790   9.078 -0.2414  0.5743  0.0468
  385loPI   C2A 6152  11.738  12.633   8.665  0.1560 -0.1478  0.1926
  385loPI   C3A 6153  11.514  12.713   8.273  0.1412 -0.0282 -0.1787
  385loPI   C4A 6154  11.421  12.872   7.848 -0.2573  0.1570 -0.1249
  385loPI   C5A 6155  11.282  12.486   7.510  0.2364 -0.1303 -0.3259
  385loPI   C6A 6156  11.111  12.195   7.178 -0.3439  0.0425  0.2716
  385loPI   C1B 6157  11.729  12.345   9.277  0.0169  0.3558  0.0045
  385loPI   C2B 6158  11.560  12.218   8.877 -0.0911  0.3181 -0.1948
  385loPI   C3B 6159  11.571  12.139   8.376  0.0448  0.1774 -0.3066
  385loPI   C4B 6160  11.737  12.241   7.942 -0.0199  0.3461 -0.0583
  386loPI    C1 6161   3.539  13.320   9.944 -0.0833  0.3131 -0.1341
  386loPI    C2 6162   3.902  13.232  10.086 -0.1766  0.2462  0.0676
  386loPI    C3 6163   3.576  13.087  10.267 -0.2932 -0.0805 -0.3865
  386loPI   PO4 6164   3.458  13.278   9.687  0.0699 -0.0727 -0.0022
  386loPI   GL1 6165   3.198  13.116   9.377 -0.0160  0.1683  0.0220
  386loPI   GL2 6166   2.995  13.216   9.183 -0.2267  0.3751  0.0922
  386loPI   C1A 6167   3.074  12.715   9.227  0.0595  0.0128 -0.2635
  386loPI   C2A 6168   2.916  12.469   8.901  0.2006 -0.2059  0.0873
  386loPI   C3A 6169   2.898  12.223   8.571 -0.1499  0.1326 -0.1259
  386loPI   C4A 6170   2.948  12.109   8.162  0.0051  0.0209  0.0556
  386loPI   C5A 6171   3.085  11.793   7.842  0.0088  0.0181 -0.0151
  386loPI   C6A 6172   2.850  11.871   7.450  0.0404  0.2297 -0.2415
  386loPI   C1B 6173   2.933  12.960   8.791  0.2944  0.3341  0.1300
  386loPI   C2B 6174   2.718  12.830   8.385 -0.0876  0.1193  0.0867
  386loPI   C3B 6175   2.531  12.869   7.935 -0.3085 -0.3036  0.1175
  386loPI   C4B 6176   2.570  13.238   7.542 -0.0563  0.2255  0.1078
  387loPI    C1 6177  17.844  15.813   9.750  0.0020  0.0456 -0.1195
  387loPI    C2 6178  18.194  15.978   9.851  0.0140 -0.0880  0.0620
  387loPI    C3 6179  17.935  15.868  10.135 -0.1312 -0.0863 -0.0683
  387loPI   PO4 6180  17.870  15.754   9.544  0.0586 -0.4008  0.0358
  387loPI   GL1 6181  17.885  15.790   9.093 -0.1030  0.0546 -0.2431
  387loPI   GL2 6182  17.797  15.542   8.965 -0.0665 -0.1937  0.1962
  387loPI   C1A 6183  18.018  16.010   8.734 -0.0448 -0.1366 -0.0184
  387loPI   C2A 6184  18.121  16.342   8.443 -0.0960  0.0264 -0.0128
  387loPI   C3A 6185  18.323  16.623   8.165  0.1878 -0.2967  0.3394
  387loPI   C4A 6186  18.537  16.792   7.807  0.1026  0.4706  0.0659
  387loPI   C5A 6187  18.508  16.838   7.261  0.0500  0.0513  0.2257
  387loPI   C6A 6188  18.582  17.213   7.009 -0.3167  0.1501 -0.1060
  387loPI   C1B 6189  17.568  15.352   8.651  0.0432  0.0963 -0.0180
  387loPI   C2B 6190  17.582  15.335   8.199 -0.3914  0.4466  0.0495
  387loPI   C3B 6191  17.465  15.397   7.710  0.3660 -0.0723  0.0479
  387loPI   C4B 6192  17.385  15.299   7.278  0.2681  0.0894  0.0917
  388loPI    C1 6193  13.133   4.792   9.994  0.1581  0.5427  0.1043
  388loPI    C2 6194  13.495   4.623  10.015 -0.0752  0.0109 -0.0106
  388loPI    C3 6195  13.302   4.725  10.350 -0.0129 -0.1340  0.0703
  388loPI   PO4 6196  13.115   4.868   9.728  0.0040 -0.0674 -0.2247
  388loPI   GL1 6197  12.973   4.570   9.356  0.3177 -0.2416 -0.1783
  388loPI   GL2 6198  12.762   4.381   9.359 -0.0084  0.4583  0.0814
  388loPI   C1A 6199  13.325   4.772   9.138 -0.0846  0.0353 -0.4616
  388loPI   C2A 6200  13.359   4.835   8.711  0.0335 -0.1454 -0.1402
  388loPI   C3A 6201  13.362   4.829   8.226  0.0160 -0.1618  0.3106
  388loPI   C4A 6202  13.462   4.817   7.806 -0.2965  0.0766 -0.3652
  388loPI   C5A 6203  13.721   4.645   7.480  0.2927 -0.0162 -0.2091
  388loPI   C6A 6204  13.650   4.278   7.072  0.0125 -0.0544  0.0196
  388loPI   C1B 6205  12.398   4.629   9.205 -0.1239 -0.3008  0.0365
  388loPI   C2B 6206  12.359   4.599   8.724  0.5793 -0.0586  0.2322
  388loPI   C3B 6207  12.267   4.462   8.360  0.1292  0.1875 -0.0274
  388loPI   C4B 6208  12.127   4.485   8.012  0.0231 -0.1239 -0.2830
  389loPI    C1 6209   3.655   7.373  10.015 -0.2612 -0.1125 -0.1209
  389loPI    C2 6210   3.611   7.631  10.318  0.1296  0.0325 -0.1808
  389loPI    C3 6211   3.590   7.238  10.386 -0.5005  0.0708 -0.0938
  389loPI   PO4 6212   3.847   7.457   9.754  0.2259 -0.0157 -0.1819
  389loPI   GL1 6213   3.749   7.427   9.373 -0.0262  0.1630  0.1650
  389loPI   GL2 6214   3.713   7.106   9.162  0.0504 -0.1225  0.0562
  389loPI   C1A 6215   3.790   7.829   9.124 -0.3165 -0.2526 -0.0240
  389loPI   C2A 6216   3.649   8.044   8.749  0.2892 -0.0599 -0.4404
  389loPI   C3A 6217   3.582   8.037   8.314 -0.0124  0.2582 -0.0796
  389loPI   C4A 6218   3.741   8.242   7.997 -0.1788 -0.1287 -0.1124
  389loPI   C5A 6219   3.661   8.331   7.591  0.1396 -0.0910  0.0024
  389loPI   C6A 6220   3.744   8.542   7.332  0.0654  0.0257 -0.2179
  389loPI   C1B 6221   3.897   7.351   8.847  0.0057  0.0133 -0.3174
  389loPI   C2B 6222   3.765   7.340   8.366  0.0886  0.1811 -0.0987
  389loPI   C3B 6223   3.790   7.264   7.909 -0.3820  0.1951 -0.0871
  389loPI   C4B 6224   3.821   7.401   7.599 -0.0022 -0.1281  0.0100
  390loPI    C1 6225   2.483  12.499   9.877 -0.0697  0.0836  0.1430
  390loPI    C2 6226   2.404  12.448  10.266 -0.2083 -0.0745  0.0952
  390loPI    C3 6227   2.111  12.551  10.014 -0.0777  0.2372  0.0655
  390loPI   PO4 6228   2.709  12.697   9.825  0.0618  0.2930 -0.1238
  390loPI   GL1 6229   2.661  12.751   9.438  0.0362  0.1602  0.0397
  390loPI   GL2 6230   2.564  12.409   9.374 -0.1119  0.0475  0.1412
  390loPI   C1A 6231   2.529  12.841   9.107  0.2219 -0.3534  0.0144
  390loPI   C2A 6232   2.388  12.876   8.753  0.3936 -0.1125 -0.1583
  390loPI   C3A 6233   2.308  13.071   8.329  0.2645  0.0084 -0.0039
  390loPI   C4A 6234   2.179  13.209   7.928  0.0676 -0.1616  0.1668
  390loPI   C5A 6235   2.127  13.468   7.546 -0.1902 -0.4942  0.0309
  390loPI   C6A 6236   2.034  13.537   7.119 -0.2122 -0.1587 -0.0200
  390loPI   C1B 6237   2.390  12.396   8.949 -0.1371  0.1086  0.2169
  390loPI   C2B 6238   2.476  12.378   8.486  0.2951  0.3350  0.1301
  390loPI   C3B 6239   2.446  12.372   8.105  0.1255 -0.1279  0.1196
  390loPI   C4B 6240   2.701  12.380   7.816  0.1506  0.0621  0.0086
  391loPI    C1 6241   4.415   7.975   9.850  0.1443  0.0895  0.1558
  391loPI    C2 6242   4.084   8.048   9.638  0.3149  0.1606 -0.0908
  391loPI    C3 6243   4.055   7.901  10.009  0.0045  0.2853 -0.0620
  391loPI   PO4 6244   4.604   7.807   9.641  0.1057  0.3852  0.1070
  391loPI   GL1 6245   5.127   7.784   9.592  0.1811 -0.1265 -0.0798
  391loPI   GL2 6246   5.407   7.865   9.649  0.0353  0.0992  0.2681
  391loPI   C1A 6247   5.075   7.969   9.270  0.0944 -0.0258 -0.1070
  391loPI   C2A 6248   5.027   7.946   8.811 -0.0970  0.0145 -0.1047
  391loPI   C3A 6249   4.981   7.991   8.310  0.1924 -0.2366  0.0004
  391loPI   C4A 6250   4.768   7.687   8.026 -0.0284  0.3380  0.1336
  391loPI   C5A 6251   4.810   7.738   7.696 -0.0926 -0.0463 -0.1268
  391loPI   C6A 6252   4.682   8.118   7.426 -0.1301  0.0594 -0.1268
  391loPI   C1B 6253   5.641   7.756   9.181 -0.1598  0.0783 -0.0339
  391loPI   C2B 6254   6.107   7.715   9.073 -0.0196 -0.0433  0.0696
  391loPI   C3B 6255   6.385   7.852   8.808 -0.2148  0.2926  0.1495
  391loPI   C4B 6256   6.512   8.044   8.382 -0.1241 -0.1220  0.0785
  392loPI    C1 6257   0.113  14.908   9.353  0.2171 -0.0890 -0.0520
  392loPI    C2 6258  -0.230  14.912   9.560 -0.0222  0.1087 -0.4403
  392loPI    C3 6259   0.052  15.186   9.635  0.1034 -0.1193 -0.0460
  392loPI   PO4 6260   0.099  14.907   9.152  0.3681 -0.2729 -0.1131
  392loPI   GL1 6261   0.393  14.879   8.838  0.1384 -0.1918  0.0435
  392loPI   GL2 6262   0.551  14.991   8.708  0.3129  0.2171  0.0941
  392loPI   C1A 6263   0.430  14.462   8.537  0.1535  0.2564  0.0824
  392loPI   C2A 6264   0.239  14.448   8.131  0.0634  0.0803  0.2142
  392loPI   C3A 6265   0.156  14.119   7.840  0.1348 -0.0100  0.3047
  392loPI   C4A 6266   0.189  14.128   7.395 -0.0107 -0.1236  0.1539
  392loPI   C5A 6267   0.629  13.973   7.128  0.1524  0.0592 -0.1894
  392loPI   C6A 6268   1.039  13.957   7.134 -0.3379 -0.1984 -0.1057
  392loPI   C1B 6269   0.547  14.946   8.296 -0.6180 -0.2911  0.0939
  392loPI   C2B 6270   0.266  14.974   7.996 -0.1066 -0.0222  0.1054
  392loPI   C3B 6271   0.054  15.132   7.605  0.1980 -0.0833 -0.1368
  392loPI   C4B 6272   0.160  15.117   7.155 -0.1383  0.3435 -0.3377
  393loPI    C1 6273  17.261  17.295   9.929  0.0983  0.0728  0.1350
  393loPI    C2 6274  16.872  17.383   9.962  0.0401 -0.1088 -0.0455
  393loPI    C3 6275  17.023  17.066  10.155  0.1179  0.0118  0.0943
  393loPI   PO4 6276  17.382  17.261   9.707  0.0270  0.0946 -0.1382
  393loPI   GL1 6277  17.453  17.347   9.278 -0.2493  0.0731  0.0205
  393loPI   GL2 6278  17.611  17.594   9.111 -0.2672  0.4899 -0.2917
  393loPI   C1A 6279  17.243  17.214   8.972 -0.1361  0.2130  0.2434
  393loPI   C2A 6280  16.952  17.247   8.702 -0.1450 -0.0785  0.0006
  393loPI   C3A 6281  16.628  17.607   8.468  0.0505  0.1021  0.0618
  393loPI   C4A 6282  16.498  17.893   8.145 -0.0505 -0.1182  0.0523
  393loPI   C5A 6283  16.482  17.914   7.690 -0.0208 -0.2730  0.0265
  393loPI   C6A 6284  16.416  17.653   7.247 -0.0161  0.0591  0.1982
  393loPI   C1B 6285  17.579  17.583   8.738  0.1716  0.4327  0.3036
  393loPI   C2B 6286  17.195  17.671   8.409 -0.1609 -0.0781  0.2873
  393loPI   C3B 6287  17.088  17.619   7.915  0.2545 -0.0092 -0.0375
  393loPI   C4B 6288  17.344  17.412   7.712  0.2522 -0.0386  0.4316
  394loPI    C1 6289   2.362   1.208  10.547 -0.0302  0.0546 -0.0484
  394loPI    C2 6290   2.693   1.060  10.717 -0.0500  0.0036 -0.0538
  394loPI    C3 6291   2.473   0.830  10.475 -0.0532  0.0582 -0.1030
  394loPI   PO4 6292   2.455   1.440  10.301 -0.0064 -0.1648 -0.0654
  394loPI   GL1 6293   2.257   1.707   9.823 -0.0617 -0.1206  0.1334
  394loPI   GL2 6294   2.506   1.593   9.645 -0.1700 -0.0919 -0.0125
  394loPI   C1A 6295   1.966   1.406   9.592  0.2609 -0.2121 -0.0674
  394loPI   C2A 6296   2.091   1.358   9.180 -0.0923  0.0884 -0.0128
  394loPI   C3A 6297   2.168   1.672   8.778 -0.2576  0.1644  0.1633
  394loPI   C4A 6298   2.410   1.574   8.418  0.1444  0.2849  0.4266
  394loPI   C5A 6299   2.755   1.626   8.216  0.0016 -0.3158 -0.1185
  394loPI   C6A 6300   2.749   1.962   8.044  0.0654  0.2275 -0.0725
  394loPI   C1B 6301   2.275   1.928   9.317  0.1957  0.0867 -0.1693
  394loPI   C2B 6302   2.105   2.141   8.956  0.1200  0.2111  0.0037
  394loPI   C3B 6303   2.073   2.073   8.427  0.0072  0.2223  0.0138
  394loPI   C4B 6304   2.265   1.943   8.094 -0.0862  0.1237  0.2650
  395loPI    C1 6305  13.362   5.851   9.776 -0.0224 -0.1700 -0.0022
  395loPI    C2 6306  13.642   5.571   9.718 -0.0644 -0.1878 -0.1216
  395loPI    C3 6307  13.425   5.569  10.053  0.0267 -0.2186 -0.0624
  395loPI   PO4 6308  13.275   5.867   9.469  0.1830  0.3109 -0.0645
  395loPI   GL1 6309  13.202   5.813   9.048 -0.2358 -0.2364 -0.4666
  395loPI   GL2 6310  13.563   5.864   9.078 -0.0757 -0.0335  0.0452
  395loPI   C1A 6311  13.045   5.800   8.673 -0.1981  0.1540  0.0155
  395loPI   C2A 6312  13.066   6.030   8.266  0.0632 -0.2139  0.0287
  395loPI   C3A 6313  13.145   6.212   7.890  0.2751 -0.0527 -0.2154
  395loPI   C4A 6314  13.168   6.506   7.548  0.1471  0.0433  0.1769
  395loPI   C5A 6315  12.962   6.548   7.200 -0.0203 -0.0701  0.1753
  395loPI   C6A 6316  13.187   6.714   6.853  0.1357 -0.1628  0.2282
  395loPI   C1B 6317  13.719   5.948   8.752  0.0968 -0.0164  0.0564
  395loPI   C2B 6318  14.087   5.931   8.445  0.0587 -0.0731 -0.0422
  395loPI   C3B 6319  14.180   6.064   8.053  0.1919 -0.1664 -0.3784
  395loPI   C4B 6320  14.406   5.979   7.681  0.0227  0.1497 -0.2760
  396loPI    C1 6321  11.220   3.484   9.929  0.1162  0.1483 -0.1257
  396loPI    C2 6322  11.574   3.671   9.934  0.1796  0.0268  0.1547
  396loPI    C3 6323  11.398   3.566  10.278 -0.0247 -0.1115  0.0107
  396loPI   PO4 6324  11.144   3.588   9.658 -0.0817 -0.0216 -0.5526
  396loPI   GL1 6325  11.164   3.733   9.295  0.2387 -0.2065 -0.3890
  396loPI   GL2 6326  11.104   3.979   9.125 -0.0970 -0.0702 -0.0049
  396loPI   C1A 6327  11.404   3.559   8.870 -0.0418  0.0192  0.1653
  396loPI   C2A 6328  11.505   3.512   8.464  0.1880  0.0758  0.2702
  396loPI   C3A 6329  11.671   3.477   8.091 -0.0389 -0.0507 -0.0908
  396loPI   C4A 6330  11.820   3.638   7.610  0.0665  0.2331 -0.1201
  396loPI   C5A 6331  11.975   3.969   7.236  0.0134  0.1956 -0.0720
  396loPI   C6A 6332  11.779   4.270   7.167  0.0190 -0.2504  0.0647
  396loPI   C1B 6333  11.040   3.932   8.703 -0.0571 -0.0510  0.2795
  396loPI   C2B 6334  11.013   3.701   8.349  0.0231  0.0112  0.1444
  396loPI   C3B 6335  11.061   3.414   8.041 -0.1487 -0.2065  0.0994
  396loPI   C4B 6336  10.936   3.201   7.565  0.0071  0.1501 -0.0426
  397loPI    C1 6337   2.339  10.516  10.220 -0.0460  0.1732 -0.1325
  397loPI    C2 6338   2.045  10.392  10.462 -0.0328  0.1765 -0.1149
  397loPI    C3 6339   2.426  10.379  10.586 -0.0200  0.1165 -0.1596
  397loPI   PO4 6340   2.289  10.527   9.965  0.3519 -0.2251  0.0422
  397loPI   GL1 6341   2.462  10.530   9.556 -0.0474  0.0441  0.1392
  397loPI   GL2 6342   2.759  10.682   9.439  0.0440  0.0045  0.0663
  397loPI   C1A 6343   2.174  10.756   9.305  0.0234  0.0071 -0.4154
  397loPI   C2A 6344   2.024  10.830   8.928 -0.2663  0.3878 -0.1541
  397loPI   C3A 6345   2.028  10.809   8.582 -0.0787  0.2490 -0.0734
  397loPI   C4A 6346   2.115  10.636   8.135  0.3765 -0.0838  0.0692
  397loPI   C5A 6347   2.321  10.599   7.656  0.0865 -0.0136 -0.2382
  397loPI   C6A 6348   2.580  10.517   7.391 -0.1138 -0.2864  0.0402
  397loPI   C1B 6349   2.467  10.589   8.973  0.1598  0.1534 -0.3840
  397loPI   C2B 6350   2.367  10.321   8.596 -0.3024  0.1077 -0.0839
  397loPI   C3B 6351   2.309  10.110   8.164  0.2995  0.2531 -0.4265
  397loPI   C4B 6352   2.150   9.992   7.819  0.1456 -0.2716  0.1276
  398loPI    C1 6353  12.414   9.043   9.699  0.0280 -0.0396  0.1700
  398loPI    C2 6354  12.770   9.225   9.687 -0.0474  0.1211  0.3297
  398loPI    C3 6355  12.556   9.224  10.026 -0.2009  0.0287  0.2339
  398loPI   PO4 6356  12.226   9.204   9.451  0.0534 -0.2708 -0.5262
  398loPI   GL1 6357  12.317   9.370   9.094  0.1423  0.2545 -0.3784
  398loPI   GL2 6358  11.958   9.263   9.039  0.1661  0.0819 -0.2373
  398loPI   C1A 6359  12.588   9.236   8.776  0.1340  0.1652 -0.4158
  398loPI   C2A 6360  12.494   9.041   8.355 -0.2020 -0.0835  0.1264
  398loPI   C3A 6361  12.371   8.859   7.973 -0.1751  0.1598  0.3248
  398loPI   C4A 6362  12.528   9.183   7.772  0.2983 -0.0326 -0.1079
  398loPI   C5A 6363  12.496   9.383   7.443  0.2013 -0.2995 -0.1085
  398loPI   C6A 6364  12.606   9.782   7.380 -0.1743 -0.1193 -0.2474
  398loPI   C1B 6365  12.108   9.355   8.597  0.0297  0.1065  0.1252
  398loPI   C2B 6366  12.174   9.365   8.084 -0.0169  0.0635  0.2603
  398loPI   C3B 6367  11.701   9.521   7.749 -0.0665  0.0217  0.1817
  398loPI   C4B 6368  11.330   9.831   7.569 -0.2154 -0.1258  0.1149
  399loPI    C1 6369  17.697   7.975   9.796  0.1536 -0.0241  0.1276
  399loPI    C2 6370  17.347   8.056   9.973  0.0469 -0.0139 -0.0835
  399loPI    C3 6371  17.450   7.677   9.896  0.0394 -0.0109 -0.1084
  399loPI   PO4 6372  17.753   8.168   9.536  0.0100  0.2576  0.0304
  399loPI   GL1 6373  17.891   8.168   9.140 -0.2570  0.2322 -0.0619
  399loPI   GL2 6374  17.767   8.167   8.889 -0.0260 -0.1816 -0.0027
  399loPI   C1A 6375  18.241   8.085   8.772  0.2396 -0.1368 -0.0723
  399loPI   C2A 6376  18.326   8.057   8.355  0.1675 -0.1906  0.2184
  399loPI   C3A 6377  18.515   8.081   7.945 -0.0468 -0.1098 -0.0140
  399loPI   C4A 6378  18.704   8.143   7.558  0.0162 -0.0458  0.0247
  399loPI   C5A 6379  19.132   7.957   7.434  0.1387  0.1092 -0.1157
  399loPI   C6A 6380  19.559   7.875   7.467  0.0840  0.3970  0.3831
  399loPI   C1B 6381  17.755   8.143   8.473 -0.0307 -0.3091 -0.0049
  399loPI   C2B 6382  17.772   8.086   8.088 -0.3811 -0.0082  0.0031
  399loPI   C3B 6383  17.897   7.800   7.787  0.0667  0.2104 -0.1986
  399loPI   C4B 6384  18.244   7.815   7.561  0.1625  0.0428 -0.1691
  400loPI    C1 6385  17.925  12.699   9.452 -0.0529  0.2187  0.1163
  400loPI    C2 6386  17.779  12.352   9.319  0.1029  0.2300 -0.0887
  400loPI    C3 6387  17.825  12.412   9.712 -0.2205  0.1394 -0.0342
  400loPI   PO4 6388  17.836  12.843   9.285  0.2134 -0.0508 -0.0214
  400loPI   GL1 6389  18.068  13.158   9.045  0.6275 -0.5109  0.0332
  400loPI   GL2 6390  18.331  12.861   9.113  0.2976 -0.3452 -0.1202
  400loPI   C1A 6391  17.997  13.073   8.669 -0.4332 -0.2553 -0.1351
  400loPI   C2A 6392  17.954  13.053   8.245 -0.0980  0.1068 -0.0953
  400loPI   C3A 6393  18.000  13.151   7.701  0.1895 -0.0453  0.4184
  400loPI   C4A 6394  18.017  13.178   7.259  0.2563  0.0181  0.1294
  400loPI   C5A 6395  18.171  13.375   6.766 -0.1154  0.0613 -0.2186
  400loPI   C6A 6396  17.963  13.670   6.411 -0.1346  0.3438 -0.2163
  400loPI   C1B 6397  18.487  12.890   8.664 -0.0903 -0.2841 -0.3263
  400loPI   C2B 6398  18.657  12.800   8.384 -0.1926 -0.1059  0.1994
  400loPI   C3B 6399  18.886  12.585   8.079  0.1821  0.0500  0.1993
  400loPI   C4B 6400  18.815  12.344   7.644 -0.1332 -0.2172 -0.2570
  401loPI    C1 6401  15.305  17.639   9.985 -0.0903  0.3463  0.1850
  401loPI    C2 6402  15.422  17.645  10.367 -0.1934 -0.1084  0.2300
  401loPI    C3 6403  15.034  17.607  10.277 -0.1763  0.0634  0.0778
  401loPI   PO4 6404  15.498  17.517   9.831 -0.3281  0.1274 -0.0288
  401loPI   GL1 6405  15.457  17.275   9.510 -0.1024 -0.3353 -0.4036
  401loPI   GL2 6406  15.176  17.135   9.526 -0.0724 -0.0339 -0.1114
  401loPI   C1A 6407  15.450  17.240   9.115 -0.2937  0.0919 -0.1462
  401loPI   C2A 6408  15.343  17.297   8.659  0.2271 -0.3127 -0.2873
  401loPI   C3A 6409  15.134  17.609   8.411 -0.3819 -0.0362 -0.1155
  401loPI   C4A 6410  15.037  17.723   8.042  0.3372 -0.2869  0.2086
  401loPI   C5A 6411  14.871  17.825   7.641  0.1860  0.1494  0.1558
  401loPI   C6A 6412  14.828  17.592   7.258 -0.0182 -0.3951  0.1836
  401loPI   C1B 6413  14.936  17.271   9.204  0.2033  0.0290 -0.0990
  401loPI   C2B 6414  14.899  17.155   8.776 -0.0733  0.2008 -0.0885
  401loPI   C3B 6415  14.740  17.286   8.378  0.2560 -0.2014 -0.3069
  401loPI   C4B 6416  14.672  17.308   7.875  0.0797  0.1725 -0.2918
  402loPI    C1 6417   9.975   5.277   9.491  0.4183  0.1650  0.3223
  402loPI    C2 6418  10.146   5.470   9.185  0.1615  0.0944  0.1305
  402loPI    C3 6419  10.122   5.645   9.543  0.2503  0.2742  0.0497
  402loPI   PO4 6420  10.122   5.083   9.428 -0.2286 -0.3891  0.2852
  402loPI   GL1 6421  10.245   4.955   9.044  0.1325 -0.0304  0.2821
  402loPI   GL2 6422  10.577   5.051   8.992  0.0438  0.2026 -0.0056
  402loPI   C1A 6423  10.300   5.162   8.629  0.4327 -0.0688  0.0630
  402loPI   C2A 6424  10.208   5.401   8.329  0.1287 -0.5031  0.2307
  402loPI   C3A 6425  10.311   5.620   7.940  0.1313  0.3023 -0.0437
  402loPI   C4A 6426  10.454   5.863   7.523  0.1570  0.0662 -0.0643
  402loPI   C5A 6427  10.349   5.993   7.142  0.0859  0.0827  0.0563
  402loPI   C6A 6428  10.333   5.747   6.781  0.2156 -0.4551 -0.3653
  402loPI   C1B 6429  10.407   4.691   8.688  0.4630  0.0189  0.2545
  402loPI   C2B 6430  10.317   4.561   8.251 -0.0457 -0.2820 -0.1573
  402loPI   C3B 6431  10.406   4.555   7.819  0.0995 -0.4034  0.0498
  402loPI   C4B 6432  10.582   4.805   7.610 -0.1249  0.0204  0.1715
  403loPI    C1 6433  15.690  15.785   9.688 -0.0991  0.1674 -0.1555
  403loPI    C2 6434  15.507  16.083   9.883 -0.0280  0.1209 -0.0165
  403loPI    C3 6435  15.825  15.903  10.045 -0.1402 -0.1087 -0.0471
  403loPI   PO4 6436  15.519  15.799   9.483 -0.2221  0.3674 -0.2294
  403loPI   GL1 6437  15.346  15.943   9.113  0.0062  0.1989 -0.0761
  403loPI   GL2 6438  15.295  16.280   9.053  0.3128 -0.3446 -0.0179
  403loPI   C1A 6439  15.366  15.770   8.738  0.0462 -0.0008 -0.1011
  403loPI   C2A 6440  15.178  15.852   8.347 -0.0827 -0.0091  0.3698
  403loPI   C3A 6441  14.993  16.016   7.895  0.2312  0.1195  0.0136
  403loPI   C4A 6442  15.050  16.142   7.451 -0.0967 -0.0839 -0.0973
  403loPI   C5A 6443  15.406  16.144   7.177  0.0946  0.0204  0.1076
  403loPI   C6A 6444  15.715  16.090   6.851  0.1700  0.1597 -0.0891
  403loPI   C1B 6445  15.205  16.310   8.525  0.0210  0.1018 -0.0134
  403loPI   C2B 6446  15.289  16.364   8.162  0.1540 -0.1009  0.0619
  403loPI   C3B 6447  15.132  16.556   7.812  0.4285  0.3690 -0.2236
  403loPI   C4B 6448  15.254  16.887   7.691  0.0354 -0.3734  0.0751
  404loPI    C1 6449   7.562  12.859  10.039  0.0496  0.2544 -0.1034
  404loPI    C2 6450   7.955  12.788  10.060  0.0059  0.0091 -0.0872
  404loPI    C3 6451   7.715  12.528   9.874 -0.1840  0.0250  0.1326
  404loPI   PO4 6452   7.557  13.078   9.938 -0.0276  0.0563  0.0159
  404loPI   GL1 6453   7.821  13.207   9.657  0.2422  0.2903  0.0074
  404loPI   GL2 6454   7.823  12.886   9.477 -0.1077  0.2586  0.0233
  404loPI   C1A 6455   7.491  13.342   9.303 -0.1647  0.2826 -0.1115
  404loPI   C2A 6456   7.577  13.315   8.891  0.0379 -0.0161 -0.0460
  404loPI   C3A 6457   7.422  13.401   8.367 -0.1401 -0.1396  0.1638
  404loPI   C4A 6458   7.568  13.181   7.942 -0.0712 -0.2355 -0.2235
  404loPI   C5A 6459   7.636  13.251   7.478  0.2210 -0.0761  0.3563
  404loPI   C6A 6460   7.532  13.258   7.056 -0.1126  0.1719  0.2912
  404loPI   C1B 6461   7.776  12.900   8.943 -0.0382  0.1300  0.0895
  404loPI   C2B 6462   7.889  12.956   8.549 -0.1179 -0.2001  0.3039
  404loPI   C3B 6463   8.213  13.065   8.155 -0.1699  0.0771  0.1492
  404loPI   C4B 6464   8.460  13.014   7.700  0.2785  0.3265  0.1342
  405loPI    C1 6465   6.172  14.952  10.338 -0.3150  0.0762  0.1655
  405loPI    C2 6466   6.065  14.890  10.718  0.1885 -0.2248  0.2676
  405loPI    C3 6467   6.427  15.037  10.634  0.0779 -0.1514 -0.0987
  405loPI   PO4 6468   5.981  15.054  10.191 -0.0242 -0.1262 -0.0797
  405loPI   GL1 6469   5.932  15.163   9.828  0.2975 -0.1565  0.1889
  405loPI   GL2 6470   5.931  14.816   9.689  0.0681 -0.1380  0.2457
  405loPI   C1A 6471   5.625  15.003   9.307 -0.1657  0.0107  0.0737
  405loPI   C2A 6472   5.535  14.947   8.869  0.0037  0.0353  0.1529
  405loPI   C3A 6473   5.217  14.980   8.488 -0.0464  0.3243 -0.1303
  405loPI   C4A 6474   5.169  15.079   8.036 -0.3532  0.1642  0.2303
  405loPI   C5A 6475   5.212  15.570   7.820 -0.1549  0.0595 -0.0419
  405loPI   C6A 6476   5.002  15.808   7.449 -0.3691 -0.0829  0.0675
  405loPI   C1B 6477   6.009  14.714   9.232 -0.0483 -0.0099 -0.1268
  405loPI   C2B 6478   6.175  14.702   8.924  0.1090  0.1580 -0.0442
  405loPI   C3B 6479   6.131  14.899   8.538 -0.5018  0.2009 -0.0987
  405loPI   C4B 6480   5.753  14.978   8.235  0.0976 -0.2637  0.1949
  406loPI    C1 6481   5.585  16.612  10.179  0.1097  0.0008 -0.0750
  406loPI    C2 6482   5.735  16.243  10.207  0.1516  0.0353  0.1810
  406loPI    C3 6483   5.968  16.559  10.280  0.0609  0.1046  0.1730
  406loPI   PO4 6484   5.454  16.591   9.960  0.0304  0.0190  0.0482
  406loPI   GL1 6485   5.398  16.570   9.489  0.1073 -0.0124  0.1383
  406loPI   GL2 6486   5.129  16.379   9.475 -0.1350 -0.0155 -0.2512
  406loPI   C1A 6487   5.505  16.744   9.057 -0.0964  0.0590 -0.1730
  406loPI   C2A 6488   5.580  16.792   8.664  0.0085 -0.2602  0.0946
  406loPI   C3A 6489   5.665  16.868   8.301  0.0765 -0.0119  0.0284
  406loPI   C4A 6490   5.676  16.814   7.841  0.1733 -0.0470  0.2848
  406loPI   C5A 6491   5.575  16.934   7.362  0.1552  0.2186  0.1420
  406loPI   C6A 6492   5.192  17.083   7.004  0.1182 -0.0087  0.1844
  406loPI   C1B 6493   5.376  16.303   9.100 -0.2028 -0.2853  0.0472
  406loPI   C2B 6494   5.363  16.349   8.649  0.2010  0.0233 -0.0476
  406loPI   C3B 6495   5.227  16.577   8.321  0.2188  0.0347 -0.2140
  406loPI   C4B 6496   5.220  16.987   8.031  0.1372  0.1035  0.1018
  407loPI    C1 6497   9.701   9.576  10.127  0.0121  0.0954  0.1694
  407loPI    C2 6498   9.539   9.228  10.238 -0.1515  0.0563 -0.1791
  407loPI    C3 6499   9.543   9.536  10.492  0.0149 -0.2029  0.1405
  407loPI   PO4 6500   9.709   9.602   9.779 -0.0484  0.1792  0.2790
  407loPI   GL1 6501   9.363   9.569   9.464 -0.3051 -0.5009 -0.0869
  407loPI   GL2 6502   9.451   9.838   9.352 -0.0358  0.0299  0.0308
  407loPI   C1A 6503   9.244   9.385   9.111  0.2264  0.0799  0.3202
  407loPI   C2A 6504   8.938   9.072   8.966  0.2116 -0.2895 -0.1665
  407loPI   C3A 6505   9.073   8.746   8.703 -0.1826  0.1378 -0.1735
  407loPI   C4A 6506   9.199   8.582   8.394 -0.1189  0.2655 -0.0178
  407loPI   C5A 6507   9.204   8.619   7.883 -0.1851 -0.0167 -0.0829
  407loPI   C6A 6508   9.531   8.948   7.620  0.1116  0.0219 -0.1784
  407loPI   C1B 6509   9.161   9.920   9.109 -0.0182 -0.1419  0.0028
  407loPI   C2B 6510   9.137   9.822   8.605  0.1326  0.0773  0.2547
  407loPI   C3B 6511   9.236   9.641   8.207  0.2037  0.0212  0.0862
  407loPI   C4B 6512   9.201   9.462   7.792 -0.0538 -0.0730  0.1267
  408loPI    C1 6513   6.545  11.230   9.887 -0.1881  0.1250  0.0380
  408loPI    C2 6514   6.694  10.863   9.943 -0.1187  0.1279 -0.1198
  408loPI    C3 6515   6.459  11.029  10.221  0.0106  0.0433  0.0417
  408loPI   PO4 6516   6.662  11.271   9.602 -0.0895 -0.2176 -0.0765
  408loPI   GL1 6517   6.829  11.320   9.238  0.2844 -0.0070  0.4076
  408loPI   GL2 6518   7.124  11.405   9.335  0.1749  0.1716  0.0630
  408loPI   C1A 6519   6.959  11.313   8.707  0.0477  0.0309 -0.2400
  408loPI   C2A 6520   7.062  11.339   8.321  0.2193  0.4917 -0.2520
  408loPI   C3A 6521   7.414  11.316   8.152  0.0568 -0.0537  0.0779
  408loPI   C4A 6522   7.675  11.259   7.778  0.0664  0.4018  0.0368
  408loPI   C5A 6523   8.100  11.399   7.573  0.0326  0.2660  0.2286
  408loPI   C6A 6524   8.234  11.485   7.120 -0.2326  0.2034  0.0585
  408loPI   C1B 6525   7.321  11.598   8.862  0.0868  0.1169  0.4891
  408loPI   C2B 6526   7.313  11.797   8.367 -0.2451 -0.0757  0.1868
  408loPI   C3B 6527   7.261  11.933   7.927 -0.0605 -0.1237  0.0517
  408loPI   C4B 6528   7.238  11.894   7.537 -0.2489 -0.0198  0.3017
  409loPI    C1 6529  14.400   2.785  10.117 -0.0377  0.1371  0.1334
  409loPI    C2 6530  14.084   2.587   9.972  0.0695  0.1101 -0.0684
  409loPI    C3 6531  14.155   2.590  10.366 -0.0815 -0.0314 -0.0389
  409loPI   PO4 6532  14.588   2.731   9.970  0.3508 -0.1320  0.1090
  409loPI   GL1 6533  14.623   2.889   9.429 -0.1403 -0.2625  0.1390
  409loPI   GL2 6534  14.288   2.691   9.374 -0.2859  0.3494  0.4487
  409loPI   C1A 6535  14.763   3.152   9.094 -0.1027 -0.0712  0.0148
  409loPI   C2A 6536  14.549   3.196   8.713  0.3581 -0.1353  0.2074
  409loPI   C3A 6537  14.635   3.148   8.382 -0.0253 -0.0972 -0.0517
  409loPI   C4A 6538  14.566   3.100   7.863 -0.0144 -0.1445 -0.3359
  409loPI   C5A 6539  14.746   3.300   7.469  0.2361  0.1526  0.2059
  409loPI   C6A 6540  14.967   3.266   7.064  0.1207  0.0628 -0.1898
  409loPI   C1B 6541  14.244   2.967   9.000  0.3127 -0.1293  0.2403
  409loPI   C2B 6542  14.086   3.084   8.625 -0.1305 -0.2032 -0.1436
  409loPI   C3B 6543  14.180   2.917   8.216 -0.1480  0.2448 -0.0448
  409loPI   C4B 6544  14.134   2.957   7.874 -0.0490 -0.0598  0.0774
  410loPI    C1 6545   6.178   6.276  10.272 -0.0285 -0.0089 -0.0251
  410loPI    C2 6546   6.419   6.147  10.563  0.2693  0.3083 -0.1242
  410loPI    C3 6547   6.209   6.483  10.613 -0.0850  0.0846 -0.0764
  410loPI   PO4 6548   6.305   6.246  10.063 -0.1037  0.3565  0.0238
  410loPI   GL1 6549   6.236   6.156   9.693 -0.2163 -0.0975 -0.1937
  410loPI   GL2 6550   6.003   6.094   9.645 -0.0596 -0.2125 -0.0026
  410loPI   C1A 6551   6.393   6.392   9.282  0.2567  0.2007  0.0815
  410loPI   C2A 6552   6.110   6.486   8.944 -0.1520  0.0929  0.0364
  410loPI   C3A 6553   6.251   6.594   8.510  0.1064  0.1747 -0.1534
  410loPI   C4A 6554   6.538   6.698   8.158 -0.2810 -0.0186 -0.3879
  410loPI   C5A 6555   6.725   6.712   7.765  0.1656  0.1879  0.2540
  410loPI   C6A 6556   6.848   6.859   7.415  0.1018  0.0145  0.4314
  410loPI   C1B 6557   6.026   5.998   9.227  0.1142  0.2387  0.1713
  410loPI   C2B 6558   5.979   6.030   8.825  0.0856 -0.2260  0.0238
  410loPI   C3B 6559   5.938   6.208   8.369 -0.3204  0.0242  0.1380
  410loPI   C4B 6560   5.857   6.183   8.018 -0.2436  0.1769  0.1083
  411loPI    C1 6561  11.720   1.183   9.688  0.0496  0.0326  0.0443
  411loPI    C2 6562  12.023   0.966   9.832  0.2577  0.2646 -0.0370
  411loPI    C3 6563  11.948   1.329   9.982  0.0544  0.2315 -0.0562
  411loPI   PO4 6564  11.681   1.115   9.508 -0.0359 -0.0567  0.2870
  411loPI   GL1 6565  11.877   1.131   9.094  0.2267  0.2458 -0.2607
  411loPI   GL2 6566  12.102   0.870   9.232  0.2886  0.0330  0.1052
  411loPI   C1A 6567  11.734   1.053   8.747  0.0612  0.1559  0.0838
  411loPI   C2A 6568  11.598   0.848   8.387 -0.1615  0.0468 -0.0730
  411loPI   C3A 6569  11.416   0.750   7.989 -0.4565 -0.4853 -0.0553
  411loPI   C4A 6570  11.124   0.672   7.595 -0.0829  0.1599 -0.0093
  411loPI   C5A 6571  10.802   0.487   7.312  0.0008 -0.3746  0.1537
  411loPI   C6A 6572  10.373   0.391   7.648 -0.2454 -0.1897  0.1576
  411loPI   C1B 6573  12.317   0.752   8.826  0.1694  0.1252 -0.0425
  411loPI   C2B 6574  12.323   0.765   8.424 -0.0302  0.0597 -0.1479
  411loPI   C3B 6575  12.102   1.038   8.141  0.2348  0.2195 -0.4112
  411loPI   C4B 6576  11.801   1.066   7.925  0.0866 -0.4892 -0.3389
  412loPI    C1 6577  18.346   9.635   9.369 -0.0843 -0.0262  0.1161
  412loPI    C2 6578  18.213   9.932   9.136 -0.0514 -0.0109  0.1167
  412loPI    C3 6579  17.996   9.811   9.450 -0.1178 -0.0625  0.0514
  412loPI   PO4 6580  18.624   9.782   9.417 -0.2451 -0.2018  0.2131
  412loPI   GL1 6581  18.726  10.112   9.217 -0.0260 -0.2164  0.0283
  412loPI   GL2 6582  19.055  10.054   9.245 -0.4459 -0.0152 -0.3425
  412loPI   C1A 6583  18.507  10.164   8.845 -0.0916  0.2940 -0.2286
  412loPI   C2A 6584  18.528  10.121   8.403 -0.1442  0.2286 -0.1110
  412loPI   C3A 6585  18.508   9.997   7.996  0.2227 -0.1253 -0.1325
  412loPI   C4A 6586  18.556  10.062   7.532 -0.1597  0.1148 -0.0744
  412loPI   C5A 6587  18.408   9.796   7.212  0.1909  0.0140  0.0698
  412loPI   C6A 6588  18.204   9.417   7.215  0.3674  0.1381 -0.0850
  412loPI   C1B 6589  19.023   9.988   8.857  0.0356 -0.1381 -0.0878
  412loPI   C2B 6590  18.954   9.916   8.350  0.2630  0.1273  0.0412
  412loPI   C3B 6591  18.876   9.742   7.894  0.1461 -0.0646  0.0779
  412loPI   C4B 6592  18.767   9.598   7.545  0.0889  0.1886  0.1391
  413loPI    C1 6593  12.825   2.094   9.886 -0.2642  0.1004  0.0555
  413loPI    C2 6594  12.560   2.217  10.160 -0.0524  0.1803  0.2279
  413loPI    C3 6595  12.741   1.863  10.202 -0.2946  0.0247 -0.0079
  413loPI   PO4 6596  12.653   2.021   9.682 -0.1477  0.0224  0.2854
  413loPI   GL1 6597  12.619   2.151   9.293 -0.2151 -0.5019 -0.0478
  413loPI   GL2 6598  13.014   2.010   9.223 -0.0275 -0.0377 -0.4372
  413loPI   C1A 6599  12.609   1.783   8.967  0.0279  0.0598  0.0152
  413loPI   C2A 6600  12.539   1.731   8.587 -0.0218  0.1107 -0.3895
  413loPI   C3A 6601  12.491   1.748   8.162  0.1515 -0.2676  0.0932
  413loPI   C4A 6602  12.399   1.868   7.704 -0.2801 -0.0058 -0.0661
  413loPI   C5A 6603  12.453   2.144   7.174 -0.0481  0.2413 -0.1473
  413loPI   C6A 6604  12.803   2.119   6.886  0.0712 -0.0994  0.1870
  413loPI   C1B 6605  12.973   2.099   8.773  0.0019 -0.2861  0.1793
  413loPI   C2B 6606  12.904   2.022   8.325  0.2363  0.2865 -0.1224
  413loPI   C3B 6607  12.846   2.049   7.839  0.0973 -0.4062  0.0810
  413loPI   C4B 6608  12.859   2.128   7.426  0.1220  0.0214  0.2225
  414loPI    C1 6609   4.757  14.624  10.086  0.0081  0.1091  0.2470
  414loPI    C2 6610   4.507  14.895  10.241 -0.2492  0.1599 -0.2375
  414loPI    C3 6611   4.858  15.011  10.089 -0.0285  0.1188  0.2240
  414loPI   PO4 6612   4.596  14.562   9.806 -0.0217  0.0134 -0.2155
  414loPI   GL1 6613   4.719  14.692   9.279 -0.2245 -0.1499  0.2147
  414loPI   GL2 6614   4.548  14.928   9.334  0.0200  0.2109  0.1184
  414loPI   C1A 6615   4.761  14.331   9.024 -0.0150 -0.2554 -0.2319
  414loPI   C2A 6616   4.870  14.257   8.568 -0.2025 -0.0739 -0.0220
  414loPI   C3A 6617   4.808  14.201   8.178  0.0219  0.1431  0.0878
  414loPI   C4A 6618   4.644  14.286   7.697  0.2209 -0.2959 -0.1850
  414loPI   C5A 6619   4.575  14.457   7.313  0.1564 -0.2254  0.0809
  414loPI   C6A 6620   4.344  14.814   6.997 -0.3784  0.0305 -0.0242
  414loPI   C1B 6621   4.514  15.092   9.014  0.0185 -0.0488 -0.2926
  414loPI   C2B 6622   4.420  15.034   8.575 -0.0935  0.2225  0.0518
  414loPI   C3B 6623   4.315  15.133   8.108  0.1860 -0.1836 -0.1636
  414loPI   C4B 6624   4.179  15.216   7.688 -0.2026 -0.0556 -0.3588
  415loPI    C1 6625  10.295  12.057   9.831  0.2354 -0.0598  0.0704
  415loPI    C2 6626  10.328  12.105  10.227  0.2397 -0.1243  0.0780
  415loPI    C3 6627  10.044  11.866  10.077  0.0647  0.1093  0.0304
  415loPI   PO4 6628  10.509  12.070   9.735 -0.0687  0.2457 -0.0305
  415loPI   GL1 6629  10.349  11.872   9.320 -0.1617 -0.0002  0.1045
  415loPI   GL2 6630  10.431  12.238   9.274  0.1822  0.2076  0.3700
  415loPI   C1A 6631  10.104  11.975   8.971  0.1911  0.5024 -0.3608
  415loPI   C2A 6632  10.096  11.937   8.567  0.0119 -0.0230 -0.3136
  415loPI   C3A 6633  10.326  11.820   8.186  0.0769 -0.1331 -0.1178
  415loPI   C4A 6634  10.568  11.622   7.884  0.0394 -0.0746  0.1705
  415loPI   C5A 6635  10.272  11.550   7.557 -0.1098  0.0864  0.2802
  415loPI   C6A 6636  10.351  11.283   7.243  0.0787  0.3129 -0.0980
  415loPI   C1B 6637  10.472  12.359   8.841  0.1838  0.1185 -0.1215
  415loPI   C2B 6638  10.528  12.841   8.657 -0.0144  0.2942  0.1434
  415loPI   C3B 6639  10.285  12.870   8.319 -0.0463 -0.0576 -0.0923
  415loPI   C4B 6640   9.986  12.728   8.002 -0.3271 -0.0640  0.1340
  416loPI    C1 6641   1.645   8.094  10.279 -0.1515  0.0752  0.0295
  416loPI    C2 6642   1.489   8.461  10.252 -0.0804  0.0971 -0.0909
  416loPI    C3 6643   1.456   8.254  10.593 -0.2432  0.1594 -0.0678
  416loPI   PO4 6644   1.868   8.125  10.141 -0.1774 -0.0592 -0.2970
  416loPI   GL1 6645   2.085   8.240   9.750  0.0580 -0.1640 -0.0508
  416loPI   GL2 6646   2.322   8.410   9.581 -0.1322  0.0753  0.1249
  416loPI   C1A 6647   1.963   8.040   9.383 -0.0926  0.0354 -0.1766
  416loPI   C2A 6648   1.827   7.702   9.308  0.0314 -0.1175  0.0491
  416loPI   C3A 6649   1.868   7.452   8.941  0.3153 -0.0163 -0.1376
  416loPI   C4A 6650   1.987   7.303   8.546  0.0006 -0.4547  0.0714
  416loPI   C5A 6651   2.411   7.413   8.392 -0.0072  0.2319 -0.1169
  416loPI   C6A 6652   2.775   7.684   8.304  0.5153  0.0393  0.3765
  416loPI   C1B 6653   2.444   8.754   9.189 -0.0218 -0.3490  0.0310
  416loPI   C2B 6654   2.513   8.923   8.785 -0.1591 -0.0694 -0.1275
  416loPI   C3B 6655   2.668   8.880   8.487  0.0176  0.0860  0.1789
  416loPI   C4B 6656   2.743   8.479   8.295  0.1777 -0.1298  0.0057
  417loPI    C1 6657  12.326  18.562   9.923  0.2248 -0.1334  0.1565
  417loPI    C2 6658  12.645  18.789  10.007  0.0118  0.2142  0.0456
  417loPI    C3 6659  12.383  18.697  10.295  0.1459  0.0292  0.1104
  417loPI   PO4 6660  12.426  18.328   9.752 -0.4339 -0.0467  0.0715
  417loPI   GL1 6661  12.239  18.077   9.384 -0.1700 -0.0304 -0.2204
  417loPI   GL2 6662  12.564  18.172   9.291  0.0664  0.1876  0.2310
  417loPI   C1A 6663  12.268  17.948   8.947 -0.1215 -0.2340  0.0662
  417loPI   C2A 6664  12.591  17.940   8.771 -0.1006 -0.1132 -0.0995
  417loPI   C3A 6665  12.714  17.786   8.374 -0.1603 -0.0265  0.1923
  417loPI   C4A 6666  12.947  17.841   7.871 -0.1361  0.0543  0.0294
  417loPI   C5A 6667  12.996  18.059   7.467  0.2569  0.1200  0.2010
  417loPI   C6A 6668  13.112  18.264   7.120  0.3080  0.0954  0.2649
  417loPI   C1B 6669  12.881  18.308   8.849 -0.3345  0.0694  0.0185
  417loPI   C2B 6670  12.713  18.298   8.418  0.1708  0.1270  0.0635
  417loPI   C3B 6671  12.507  18.107   8.003  0.1094 -0.2251  0.0153
  417loPI   C4B 6672  12.374  17.735   7.850 -0.0885  0.1637 -0.0296
  418loPI    C1 6673   6.600  13.269  10.420  0.1165 -0.0126 -0.0463
  418loPI    C2 6674   6.938  13.215  10.627  0.1011 -0.0611 -0.0339
  418loPI    C3 6675   6.641  13.433  10.783  0.2283  0.2034 -0.1544
  418loPI   PO4 6676   6.763  13.406  10.149  0.0278 -0.1083  0.0989
  418loPI   GL1 6677   6.955  13.323   9.780  0.0827 -0.0743 -0.0904
  418loPI   GL2 6678   7.209  13.359   9.800 -0.2535 -0.0772  0.3518
  418loPI   C1A 6679   7.121  13.732   9.434 -0.1328  0.1583 -0.2416
  418loPI   C2A 6680   7.440  14.054   9.237 -0.3517 -0.1504  0.1527
  418loPI   C3A 6681   7.535  14.187   8.853  0.1942 -0.3261  0.0282
  418loPI   C4A 6682   7.676  14.246   8.450 -0.2035 -0.3912 -0.3196
  418loPI   C5A 6683   7.459  14.288   8.145 -0.2164 -0.2820 -0.1811
  418loPI   C6A 6684   7.437  14.676   7.954  0.1185 -0.0290 -0.2476
  418loPI   C1B 6685   7.617  13.665   9.674  0.0204 -0.0255 -0.1447
  418loPI   C2B 6686   7.929  13.773   9.278  0.0951 -0.1881  0.1523
  418loPI   C3B 6687   8.297  13.765   9.268 -0.1072 -0.0646  0.1462
  418loPI   C4B 6688   8.598  13.974   9.227  0.0508  0.2071  0.3932
  419loPI    C1 6689  13.551   0.013   9.863 -0.1011 -0.0266  0.0180
  419loPI    C2 6690  13.234  -0.202   9.977 -0.1087  0.0087  0.0639
  419loPI    C3 6691  13.571  -0.215  10.191 -0.1634  0.1721  0.1618
  419loPI   PO4 6692  13.394   0.032   9.531 -0.0549 -0.1368  0.1280
  419loPI   GL1 6693  13.536   0.048   9.123 -0.0975  0.1499 -0.3640
  419loPI   GL2 6694  13.337  -0.336   9.156 -0.4041 -0.0759 -0.3832
  419loPI   C1A 6695  13.490  -0.083   8.697  0.1031 -0.2556 -0.0397
  419loPI   C2A 6696  13.429   0.056   8.270 -0.2584  0.1366 -0.3784
  419loPI   C3A 6697  13.638   0.094   7.900  0.1170 -0.0146  0.2116
  419loPI   C4A 6698  13.577   0.097   7.498 -0.2620  0.3487 -0.1991
  419loPI   C5A 6699  13.676   0.475   7.224 -0.0559  0.2065  0.0347
  419loPI   C6A 6700  13.681   0.537   6.769  0.3081 -0.2628 -0.0269
  419loPI   C1B 6701  13.050  -0.312   8.798 -0.4333 -0.1394  0.1539
  419loPI   C2B 6702  13.126  -0.416   8.423 -0.2909  0.0192  0.0880
  419loPI   C3B 6703  13.526  -0.388   8.195 -0.2037 -0.0763 -0.0453
  419loPI   C4B 6704  13.667  -0.667   7.989  0.2932 -0.1804  0.4173
  420loPI    C1 6705  13.796   1.284   9.821  0.2031  0.1803  0.2315
  420loPI    C2 6706  13.400   1.326   9.789  0.1895 -0.1862 -0.1935
  420loPI    C3 6707  13.552   1.039  10.022  0.2087 -0.0461 -0.0310
  420loPI   PO4 6708  13.822   1.364   9.581  0.0487 -0.1343 -0.1156
  420loPI   GL1 6709  13.954   1.082   9.331  0.1569  0.2685 -0.1237
  420loPI   GL2 6710  13.728   0.979   9.165  0.0751 -0.0300  0.5311
  420loPI   C1A 6711  14.045   1.157   8.844  0.3971 -0.0575  0.2274
  420loPI   C2A 6712  14.083   1.255   8.408  0.0241 -0.2537  0.2343
  420loPI   C3A 6713  14.167   1.277   7.987 -0.1151  0.0687 -0.3741
  420loPI   C4A 6714  14.151   1.099   7.625  0.0160 -0.0814 -0.1623
  420loPI   C5A 6715  14.448   0.872   7.315  0.0234  0.4586  0.5561
  420loPI   C6A 6716  14.779   0.978   6.999 -0.0924 -0.0743 -0.2303
  420loPI   C1B 6717  13.630   0.854   8.750  0.3747  0.1346 -0.0809
  420loPI   C2B 6718  13.681   0.786   8.413 -0.1332  0.1496 -0.2853
  420loPI   C3B 6719  13.718   0.587   8.093 -0.0614  0.2512 -0.2676
  420loPI   C4B 6720  13.905   0.656   7.714  0.0090 -0.1599 -0.0118
  421loPI    C1 6721   8.920   6.176   9.806 -0.1349 -0.2024 -0.0362
  421loPI    C2 6722   8.694   6.104  10.129 -0.0879 -0.0248  0.0375
  421loPI    C3 6723   9.091   6.060  10.149 -0.0968 -0.1430 -0.0350
  421loPI   PO4 6724   8.740   6.039   9.597 -0.0668 -0.2553  0.0967
  421loPI   GL1 6725   8.821   6.069   9.136  0.1602  0.0782  0.3289
  421loPI   GL2 6726   8.963   6.205   9.006 -0.0491  0.1605 -0.0991
  421loPI   C1A 6727   8.759   5.810   8.758 -0.1732 -0.1347  0.1132
  421loPI   C2A 6728   8.635   5.688   8.352  0.1620  0.2042  0.1738
  421loPI   C3A 6729   8.756   5.604   7.859  0.2423 -0.0961  0.0611
  421loPI   C4A 6730   8.571   5.348   7.435 -0.0900  0.1064 -0.3488
  421loPI   C5A 6731   8.338   4.980   7.239 -0.3631 -0.0482  0.0151
  421loPI   C6A 6732   8.136   4.707   7.414  0.0209  0.1796 -0.2019
  421loPI   C1B 6733   9.179   6.504   8.646 -0.0517 -0.1367 -0.1676
  421loPI   C2B 6734   8.957   6.563   8.208 -0.1118  0.2978 -0.1267
  421loPI   C3B 6735   8.830   6.897   8.052  0.1154  0.1138 -0.0817
  421loPI   C4B 6736   8.564   7.127   8.089 -0.0084  0.0478  0.1962
  422loPI    C1 6737   4.400  18.361  10.042  0.2430 -0.4247  0.0746
  422loPI    C2 6738   4.125  18.173  10.263  0.1557  0.2082  0.5301
  422loPI    C3 6739   4.501  18.204  10.396  0.3055 -0.1109  0.1985
  422loPI   PO4 6740   4.193  18.449   9.849  0.1162 -0.0247 -0.0091
  422loPI   GL1 6741   4.188  18.123   9.604 -0.3375 -0.0839  0.1643
  422loPI   GL2 6742   4.577  18.096   9.541 -0.3613 -0.1859  0.2190
  422loPI   C1A 6743   4.221  18.186   9.190  0.1629  0.0460 -0.2138
  422loPI   C2A 6744   4.294  18.311   8.745  0.0905  0.1796  0.0999
  422loPI   C3A 6745   4.041  18.441   8.365 -0.1091 -0.0394 -0.0031
  422loPI   C4A 6746   3.648  18.494   8.168  0.0336 -0.2241  0.0327
  422loPI   C5A 6747   3.706  18.411   7.777  0.0229 -0.1231 -0.3215
  422loPI   C6A 6748   3.826  18.491   7.340 -0.0682 -0.4062  0.1696
  422loPI   C1B 6749   4.791  18.063   9.114 -0.0610 -0.2084  0.1114
  422loPI   C2B 6750   4.814  18.204   8.687  0.1574 -0.0153  0.1666
  422loPI   C3B 6751   4.682  18.518   8.554 -0.1067  0.0508  0.4069
  422loPI   C4B 6752   4.857  18.915   8.543 -0.1304 -0.2012 -0.0604
  423loPI    C1 6753  16.371  18.832   9.616 -0.1371  0.1914 -0.0115
  423loPI    C2 6754  16.298  18.930   9.997  0.1217 -0.0081  0.0931
  423loPI    C3 6755  16.311  18.545   9.889 -0.2109  0.0505 -0.1741
  423loPI   PO4 6756  16.611  19.000   9.516 -0.1776  0.0350 -0.1549
  423loPI   GL1 6757  16.975  18.728   9.321 -0.1123  0.4974 -0.2483
  423loPI   GL2 6758  17.238  18.642   9.293  0.1698 -0.0418  0.0857
  423loPI   C1A 6759  16.676  18.748   8.981  0.1372 -0.2019 -0.1109
  423loPI   C2A 6760  16.664  18.639   8.513  0.3420  0.2123 -0.3056
  423loPI   C3A 6761  16.555  18.478   8.089 -0.2076  0.1567  0.0396
  423loPI   C4A 6762  16.710  18.401   7.676  0.0575  0.0068 -0.3645
  423loPI   C5A 6763  16.760  18.153   7.338 -0.1654  0.2075  0.0351
  423loPI   C6A 6764  16.784  17.996   6.936  0.0998 -0.2896  0.1561
  423loPI   C1B 6765  17.211  18.966   8.890 -0.0716  0.2601 -0.0327
  423loPI   C2B 6766  17.548  19.047   8.689 -0.3833 -0.1766  0.2111
  423loPI   C3B 6767  18.032  18.966   8.557  0.0517 -0.5187 -0.0577
  423loPI   C4B 6768  18.410  18.746   8.283 -0.1601  0.1256  0.1093
  424loPI    C1 6769  10.536   7.212   9.646  0.3555 -0.0367 -0.0492
  424loPI    C2 6770  10.536   7.262  10.043 -0.1519 -0.0294 -0.0441
  424loPI    C3 6771  10.655   7.560   9.804 -0.1789  0.0913  0.0917
  424loPI   PO4 6772  10.267   6.998   9.610  0.3558 -0.0775  0.1059
  424loPI   GL1 6773  10.192   6.715   9.288  0.0044  0.1546 -0.2880
  424loPI   GL2 6774  10.522   6.707   9.322 -0.1166 -0.0039  0.3048
  424loPI   C1A 6775   9.920   6.863   8.908  0.1279  0.0301 -0.0098
  424loPI   C2A 6776   9.858   7.007   8.519  0.2771  0.1921  0.1056
  424loPI   C3A 6777   9.804   7.047   8.086  0.1260 -0.2077  0.3427
  424loPI   C4A 6778   9.977   7.224   7.732  0.0445  0.0020  0.1371
  424loPI   C5A 6779  10.177   7.350   7.419 -0.0850 -0.1284  0.1572
  424loPI   C6A 6780  10.353   7.762   7.403  0.0837  0.1306 -0.0346
  424loPI   C1B 6781  10.654   6.701   8.886  0.1346  0.0679 -0.1119
  424loPI   C2B 6782  10.732   6.893   8.453  0.2329 -0.1129 -0.1816
  424loPI   C3B 6783  10.876   6.758   8.093  0.0805 -0.0180 -0.0479
  424loPI   C4B 6784  10.713   6.528   7.745  0.0098 -0.2171  0.0643
  425loPI    C1 6785   8.972   8.015   9.904 -0.0810 -0.4489 -0.1036
  425loPI    C2 6786   9.367   7.955   9.915 -0.0432 -0.2040 -0.0677
  425loPI    C3 6787   9.148   7.900  10.245 -0.0168 -0.1944 -0.0485
  425loPI   PO4 6788   8.927   8.277   9.643  0.2829  0.0930  0.2420
  425loPI   GL1 6789   8.791   8.551   9.355  0.3762  0.1926  0.0296
  425loPI   GL2 6790   8.974   8.837   9.539 -0.3072 -0.0101  0.2283
  425loPI   C1A 6791   8.646   8.668   8.989  0.0375 -0.2699 -0.0603
  425loPI   C2A 6792   8.668   8.813   8.454  0.1432 -0.1522 -0.1670
  425loPI   C3A 6793   8.783   8.889   8.008 -0.2974  0.1119 -0.2400
  425loPI   C4A 6794   8.703   8.700   7.654  0.0031 -0.1700 -0.5119
  425loPI   C5A 6795   8.338   8.623   7.318 -0.0128 -0.3182 -0.1370
  425loPI   C6A 6796   8.272   9.084   7.250  0.2552 -0.0202 -0.2570
  425loPI   C1B 6797   9.242   8.681   9.187 -0.1435 -0.3087 -0.0646
  425loPI   C2B 6798   9.317   8.321   8.892 -0.1250  0.0106 -0.1748
  425loPI   C3B 6799   9.436   8.129   8.624 -0.0577 -0.1791  0.1991
  425loPI   C4B 6800   9.510   8.094   8.260  0.2828  0.2300  0.0545
  426loPI    C1 6801   7.327   0.127   9.294 -0.2910 -0.0225 -0.1987
  426loPI    C2 6802   7.287  -0.255   9.403 -0.0646  0.0327  0.0892
  426loPI    C3 6803   7.069   0.028   9.583  0.0564  0.0836  0.1570
  426loPI   PO4 6804   7.580   0.175   9.338  0.0698  0.0309 -0.1510
  426loPI   GL1 6805   7.947   0.412   9.133 -0.0632 -0.0799 -0.1687
  426loPI   GL2 6806   7.992   0.160   9.120  0.1205 -0.3682  0.0231
  426loPI   C1A 6807   7.752   0.462   8.698 -0.3619  0.1518  0.1078
  426loPI   C2A 6808   7.780   0.513   8.313  0.1212  0.2322 -0.1154
  426loPI   C3A 6809   7.778   0.555   7.864 -0.1429  0.1362 -0.0482
  426loPI   C4A 6810   7.676   0.217   7.613 -0.0906  0.0056 -0.1869
  426loPI   C5A 6811   7.700  -0.228   7.658  0.0716  0.0559  0.0164
  426loPI   C6A 6812   7.949  -0.619   7.694 -0.1045  0.3306  0.0039
  426loPI   C1B 6813   8.156   0.211   8.725 -0.2265  0.0697  0.2607
  426loPI   C2B 6814   8.332   0.046   8.369  0.3610 -0.1551 -0.2221
  426loPI   C3B 6815   8.494  -0.238   8.145  0.2831  0.0888  0.2364
  426loPI   C4B 6816   8.353  -0.314   7.732 -0.2348 -0.1513  0.4239
  427loPI    C1 6817  17.401   9.845   9.724 -0.0204 -0.0250 -0.0334
  427loPI    C2 6818  17.056   9.968   9.564 -0.0202  0.2724  0.1867
  427loPI    C3 6819  17.360  10.225   9.606  0.2655 -0.0099 -0.0924
  427loPI   PO4 6820  17.508   9.639   9.568 -0.1021  0.3767  0.2546
  427loPI   GL1 6821  17.643   9.417   9.389  0.0085 -0.1088  0.0823
  427loPI   GL2 6822  17.859   9.286   9.364  0.1505  0.6045 -0.1454
  427loPI   C1A 6823  17.693   9.420   8.925  0.0202  0.2751 -0.0673
  427loPI   C2A 6824  17.733   9.467   8.424 -0.0749 -0.0203  0.2418
  427loPI   C3A 6825  17.913   9.634   8.064 -0.0359 -0.0394  0.0415
  427loPI   C4A 6826  17.709   9.625   7.592  0.1836 -0.3224  0.0136
  427loPI   C5A 6827  17.809   9.674   7.051  0.2969 -0.2503 -0.0794
  427loPI   C6A 6828  17.801   9.426   6.779  0.2747 -0.0917 -0.0611
  427loPI   C1B 6829  17.882   8.946   8.951 -0.0716 -0.1662 -0.0010
  427loPI   C2B 6830  17.863   8.999   8.554  0.0464  0.0914  0.2963
  427loPI   C3B 6831  18.160   9.031   8.215 -0.0821  0.0683  0.2052
  427loPI   C4B 6832  18.588   9.052   8.010  0.1969 -0.4518  0.0426
  428loPI    C1 6833   3.607   5.998   9.805  0.0609 -0.1776  0.0963
  428loPI    C2 6834   3.970   6.064   9.650 -0.0071 -0.1194 -0.0408
  428loPI    C3 6835   3.933   5.931  10.026  0.1485  0.1128  0.0590
  428loPI   PO4 6836   3.478   6.255   9.686 -0.0209  0.0879 -0.0549
  428loPI   GL1 6837   3.154   6.165   9.375  0.1383 -0.1108 -0.2344
  428loPI   GL2 6838   2.857   6.116   9.508 -0.1090 -0.1103  0.1232
  428loPI   C1A 6839   3.243   5.887   9.161  0.1224  0.1297  0.0110
  428loPI   C2A 6840   3.443   5.844   8.887  0.0739  0.4598  0.1393
  428loPI   C3A 6841   3.752   5.939   8.482 -0.2549 -0.0509  0.1593
  428loPI   C4A 6842   3.828   6.156   8.160 -0.0537 -0.0821  0.3449
  428loPI   C5A 6843   3.946   6.159   7.785  0.0598  0.1388 -0.0849
  428loPI   C6A 6844   3.973   5.938   7.441 -0.2366  0.2249  0.0402
  428loPI   C1B 6845   2.858   6.282   9.047 -0.0911  0.1101  0.2880
  428loPI   C2B 6846   2.909   6.173   8.663  0.0175 -0.4928  0.2134
  428loPI   C3B 6847   3.171   5.818   8.449 -0.0599 -0.0617  0.1596
  428loPI   C4B 6848   3.279   5.636   8.143 -0.2414  0.0564  0.2480
  429loPI    C1 6849   8.476   8.069   9.958 -0.0313  0.0047  0.2249
  429loPI    C2 6850   8.293   8.248  10.265  0.0759  0.3571  0.0892
  429loPI    C3 6851   8.680   8.150  10.292 -0.0550 -0.1409  0.2752
  429loPI   PO4 6852   8.216   8.190   9.795  0.1739  0.2485 -0.1114
  429loPI   GL1 6853   8.034   8.096   9.392 -0.1065  0.0717  0.1512
  429loPI   GL2 6854   8.346   8.140   9.221 -0.4191  0.2679 -0.2254
  429loPI   C1A 6855   7.967   7.885   8.987  0.1514 -0.3680 -0.0386
  429loPI   C2A 6856   7.928   7.968   8.508 -0.0082  0.2913 -0.1113
  429loPI   C3A 6857   7.825   7.930   8.066  0.0301 -0.4087 -0.4406
  429loPI   C4A 6858   7.809   7.519   7.850  0.0777  0.2586 -0.0138
  429loPI   C5A 6859   7.637   7.248   7.527  0.0477  0.0697  0.0660
  429loPI   C6A 6860   7.485   7.190   7.128  0.0010 -0.0882  0.3925
  429loPI   C1B 6861   8.164   8.316   8.879  0.2916 -0.1186  0.2202
  429loPI   C2B 6862   8.244   8.372   8.510 -0.3083  0.0370  0.2585
  429loPI   C3B 6863   8.338   8.436   8.078 -0.3241 -0.0166  0.0013
  429loPI   C4B 6864   8.460   8.330   7.724  0.3665  0.1600 -0.2634
  430loPI    C1 6865   0.014   6.464  10.166  0.3096  0.1954 -0.1591
  430loPI    C2 6866   0.106   6.730  10.450 -0.1006  0.2590 -0.0802
  430loPI    C3 6867  -0.256   6.561  10.444 -0.0200  0.0904 -0.4367
  430loPI   PO4 6868  -0.007   6.552   9.958  0.1985 -0.1307  0.0234
  430loPI   GL1 6869   0.044   6.359   9.559 -0.0807  0.2321  0.2277
  430loPI   GL2 6870  -0.179   6.244   9.353 -0.1980 -0.0337 -0.1908
  430loPI   C1A 6871   0.313   6.370   9.180 -0.5065 -0.1888 -0.2769
  430loPI   C2A 6872   0.626   6.468   8.767  0.0658 -0.0968  0.3643
  430loPI   C3A 6873   0.715   6.623   8.290  0.0536  0.1550 -0.1096
  430loPI   C4A 6874   0.858   6.793   7.818  0.0893 -0.2029  0.2038
  430loPI   C5A 6875   0.825   7.034   7.410 -0.2799 -0.0185 -0.0145
  430loPI   C6A 6876   1.157   7.133   7.280 -0.1114 -0.0595 -0.2959
  430loPI   C1B 6877  -0.196   6.365   8.925  0.0885 -0.3002 -0.2172
  430loPI   C2B 6878  -0.318   6.283   8.484  0.1536  0.1310  0.1513
  430loPI   C3B 6879  -0.453   5.916   8.208  0.0563 -0.0406  0.1104
  430loPI   C4B 6880  -0.287   5.729   7.845 -0.0471 -0.1603  0.1565
  431loPI    C1 6881   0.876   4.210  10.304 -0.1213 -0.3840  0.1345
  431loPI    C2 6882   0.728   4.423  10.609  0.1645 -0.0053  0.0159
  431loPI    C3 6883   0.991   4.130  10.678  0.1600  0.0198  0.1406
  431loPI   PO4 6884   0.656   4.255  10.115 -0.3195 -0.2012 -0.0869
  431loPI   GL1 6885   0.691   4.137   9.675 -0.1064 -0.0239  0.1329
  431loPI   GL2 6886   0.536   4.116   9.413  0.1333  0.2549  0.0605
  431loPI   C1A 6887   1.060   4.271   9.541  0.2162  0.2069  0.2038
  431loPI   C2A 6888   1.135   4.612   9.313 -0.0537  0.0133  0.2588
  431loPI   C3A 6889   1.177   4.605   8.962  0.3131 -0.1157 -0.0489
  431loPI   C4A 6890   1.278   4.588   8.472 -0.0269 -0.2527  0.1848
  431loPI   C5A 6891   1.230   4.361   7.996 -0.0697  0.0406  0.0810
  431loPI   C6A 6892   1.231   4.229   7.586  0.1640  0.0772 -0.0694
  431loPI   C1B 6893   0.963   4.115   9.095 -0.2876  0.0446 -0.2210
  431loPI   C2B 6894   1.071   4.202   8.648 -0.1388  0.0486  0.1627
  431loPI   C3B 6895   1.272   4.029   8.374  0.1723  0.1229 -0.0205
  431loPI   C4B 6896   1.465   3.946   7.948  0.1782  0.1209 -0.1223
  432loPI    C1 6897  16.816   1.370  10.149 -0.0817  0.2388  0.0507
  432loPI    C2 6898  16.639   1.162  10.441  0.1296  0.0921  0.0766
  432loPI    C3 6899  16.791   1.523  10.518 -0.2137  0.2489  0.0381
  432loPI   PO4 6900  16.639   1.303   9.942  0.1695  0.2523  0.3586
  432loPI   GL1 6901  16.512   1.416   9.484  0.2822 -0.0254  0.1403
  432loPI   GL2 6902  16.362   1.561   9.588 -0.1509 -0.0477  0.0756
  432loPI   C1A 6903  16.509   1.556   9.096 -0.0046  0.0793  0.1380
  432loPI   C2A 6904  16.785   1.760   8.778 -0.0199  0.1019  0.0473
  432loPI   C3A 6905  16.863   1.819   8.347 -0.1335  0.0069 -0.1029
  432loPI   C4A 6906  16.818   1.941   7.987 -0.0509  0.2885  0.1429
  432loPI   C5A 6907  17.099   1.977   7.504 -0.4027  0.0374 -0.0838
  432loPI   C6A 6908  17.017   2.316   7.221 -0.0676  0.4418 -0.4250
  432loPI   C1B 6909  16.068   1.288   9.237 -0.4173 -0.0236  0.2744
  432loPI   C2B 6910  16.024   1.516   8.834 -0.2285  0.2439 -0.1420
  432loPI   C3B 6911  15.922   1.839   8.630  0.1639  0.0362  0.0297
  432loPI   C4B 6912  16.082   2.218   8.341 -0.2551  0.1193  0.0122
  433loPI    C1 6913   3.926   0.592  10.104  0.2490 -0.1830  0.1271
  433loPI    C2 6914   3.941   0.974  10.221  0.2042 -0.1505  0.0278
  433loPI    C3 6915   4.134   0.693  10.430 -0.0168 -0.1190  0.2796
  433loPI   PO4 6916   3.791   0.555   9.894 -0.0707  0.3923  0.0258
  433loPI   GL1 6917   3.568   0.608   9.462  0.2157  0.3882  0.0152
  433loPI   GL2 6918   3.325   0.531   9.648  0.1696  0.0407  0.3245
  433loPI   C1A 6919   3.365   0.669   9.045 -0.1706  0.0453 -0.2042
  433loPI   C2A 6920   3.224   0.815   8.730  0.0644 -0.0107  0.1425
  433loPI   C3A 6921   2.961   0.633   8.356 -0.0591 -0.2640 -0.2151
  433loPI   C4A 6922   2.821   0.472   7.954  0.1191 -0.3698  0.1495
  433loPI   C5A 6923   2.796   0.554   7.526 -0.2696  0.1257 -0.0136
  433loPI   C6A 6924   2.956   0.476   7.240 -0.4431 -0.0665 -0.2039
  433loPI   C1B 6925   2.968   0.641   9.314  0.2401  0.2049 -0.1700
  433loPI   C2B 6926   2.749   0.663   8.925 -0.1463 -0.0136  0.2130
  433loPI   C3B 6927   2.507   0.707   8.511 -0.1961  0.3168 -0.2894
  433loPI   C4B 6928   2.424   0.758   8.144  0.0392  0.0555  0.2340
  434loPI    C1 6929   0.213  15.613   9.470 -0.2288 -0.1323 -0.2194
  434loPI    C2 6930   0.300  15.939   9.255  0.0072 -0.1184 -0.1058
  434loPI    C3 6931   0.344  15.944   9.652 -0.2916 -0.1893 -0.0694
  434loPI   PO4 6932   0.218  15.421   9.213  0.0931  0.0423 -0.0599
  434loPI   GL1 6933  -0.069  15.648   8.955  0.3037  0.4535  0.1796
  434loPI   GL2 6934   0.233  15.778   8.819  0.0130 -0.0877  0.1678
  434loPI   C1A 6935  -0.286  15.562   8.634  0.2753 -0.0955  0.2044
  434loPI   C2A 6936  -0.463  15.601   8.117  0.1885 -0.3817 -0.1115
  434loPI   C3A 6937  -0.734  15.618   7.920 -0.0717  0.0650  0.0918
  434loPI   C4A 6938  -0.739  15.743   7.518 -0.1219  0.2407  0.0695
  434loPI   C5A 6939  -0.587  16.048   7.251  0.0189 -0.3335  0.2378
  434loPI   C6A 6940  -0.575  16.368   7.016 -0.3593 -0.0042 -0.1731
  434loPI   C1B 6941   0.305  16.027   8.579 -0.0277  0.0494  0.0377
  434loPI   C2B 6942   0.670  16.106   8.374 -0.2098 -0.1268  0.1192
  434loPI   C3B 6943   0.827  16.225   8.024 -0.0665  0.0300 -0.2688
  434loPI   C4B 6944   1.010  16.229   7.684 -0.1053 -0.0156  0.1197
  435loPI    C1 6945   4.286   6.219  10.128  0.1411 -0.0195 -0.0688
  435loPI    C2 6946   4.376   6.352  10.494  0.2813  0.3558 -0.2353
  435loPI    C3 6947   3.997   6.265  10.401  0.2612  0.1447  0.0323
  435loPI   PO4 6948   4.380   6.326  10.006  0.4739  0.2824  0.0187
  435loPI   GL1 6949   4.356   6.560   9.618  0.3468 -0.0395 -0.0054
  435loPI   GL2 6950   4.617   6.850   9.660 -0.1227 -0.1720 -0.4093
  435loPI   C1A 6951   4.451   6.606   9.200  0.0309  0.0928 -0.1113
  435loPI   C2A 6952   4.502   6.631   8.757 -0.2704  0.0397  0.0320
  435loPI   C3A 6953   4.560   6.885   8.432 -0.1461 -0.1877 -0.1818
  435loPI   C4A 6954   4.732   6.827   8.003 -0.3063 -0.2975  0.1397
  435loPI   C5A 6955   5.061   6.520   7.724  0.2025  0.0530 -0.0752
  435loPI   C6A 6956   5.398   6.423   7.543 -0.0485 -0.0959 -0.2023
  435loPI   C1B 6957   4.812   6.968   9.176 -0.1198  0.1433 -0.2736
  435loPI   C2B 6958   4.942   6.946   8.784 -0.0327  0.2273  0.2228
  435loPI   C3B 6959   5.274   6.751   8.487 -0.2732 -0.2576  0.0306
  435loPI   C4B 6960   5.501   6.580   8.158 -0.0012  0.2347 -0.0852
  436loPI    C1 6961  10.085  13.619  10.279  0.0843  0.0276 -0.0514
  436loPI    C2 6962  10.081  13.301  10.522 -0.1856  0.1138  0.0607
  436loPI    C3 6963  10.149  13.665  10.671  0.0644  0.1182 -0.0587
  436loPI   PO4 6964   9.962  13.549  10.056 -0.0467  0.0134  0.1652
  436loPI   GL1 6965   9.628  13.435   9.805 -0.2093 -0.2302  0.0405
  436loPI   GL2 6966   9.561  13.731   9.701  0.1304 -0.0657 -0.0236
  436loPI   C1A 6967   9.689  13.267   9.406 -0.1624  0.1750  0.1727
  436loPI   C2A 6968   9.884  13.255   8.981  0.0491 -0.0052  0.1965
  436loPI   C3A 6969   9.968  13.208   8.580 -0.1605  0.0373  0.1006
  436loPI   C4A 6970  10.015  13.310   8.201 -0.0106 -0.0518 -0.1100
  436loPI   C5A 6971  10.333  13.495   7.886 -0.0805  0.0389  0.0101
  436loPI   C6A 6972  10.424  13.956   7.761 -0.0818 -0.1859  0.1373
  436loPI   C1B 6973   9.300  13.729   9.409 -0.0519 -0.0878  0.0873
  436loPI   C2B 6974   9.245  13.853   8.972  0.0202  0.1202  0.3437
  436loPI   C3B 6975   9.249  13.972   8.479 -0.3463 -0.1873 -0.1599
  436loPI   C4B 6976   8.991  13.797   8.152 -0.1547  0.0136  0.0773
  437loPI    C1 6977  10.773  16.259  10.024  0.0029 -0.0485 -0.0325
  437loPI    C2 6978  10.571  16.152  10.352  0.2751  0.0018  0.1549
  437loPI    C3 6979  10.816  16.467  10.363  0.1317  0.1280 -0.1559
  437loPI   PO4 6980  10.663  16.032   9.829 -0.0275 -0.3043 -0.1621
  437loPI   GL1 6981  10.479  16.086   9.461 -0.1322  0.1087 -0.1158
  437loPI   GL2 6982  10.759  15.915   9.332  0.2094 -0.2628 -0.0535
  437loPI   C1A 6983  10.382  16.160   9.082  0.2037  0.3074  0.0955
  437loPI   C2A 6984  10.297  16.494   8.715 -0.0582  0.1394 -0.0770
  437loPI   C3A 6985  10.116  16.425   8.297  0.0283  0.0398 -0.0830
  437loPI   C4A 6986   9.919  16.081   7.893 -0.0760 -0.0941 -0.1023
  437loPI   C5A 6987   9.912  15.724   7.693  0.3017  0.3096  0.0329
  437loPI   C6A 6988   9.951  15.369   7.975 -0.1180 -0.1655 -0.2847
  437loPI   C1B 6989  10.910  16.139   8.980  0.2006 -0.0442  0.0125
  437loPI   C2B 6990  10.978  16.368   8.738  0.1305  0.3672 -0.1952
  437loPI   C3B 6991  11.048  16.373   8.284  0.0958 -0.0361 -0.2352
  437loPI   C4B 6992  10.708  16.381   7.982  0.0100 -0.1350  0.1098
  438loPI    C1 6993   8.265   5.408   9.818 -0.0962 -0.1056 -0.0200
  438loPI    C2 6994   8.494   5.160  10.032 -0.1086 -0.0589  0.0476
  438loPI    C3 6995   8.205   5.370  10.211  0.0220  0.1438  0.0246
  438loPI   PO4 6996   8.267   5.242   9.554 -0.2948 -0.0894  0.1584
  438loPI   GL1 6997   8.291   5.291   9.070 -0.1320  0.5109 -0.2355
  438loPI   GL2 6998   8.587   5.324   9.113  0.0541  0.1322  0.0759
  438loPI   C1A 6999   8.297   5.621   8.743 -0.1131 -0.2235 -0.0435
  438loPI   C2A 7000   8.140   5.783   8.322 -0.3713  0.2181 -0.1861
  438loPI   C3A 7001   7.857   5.975   8.016  0.4702 -0.1677  0.3300
  438loPI   C4A 7002   7.641   5.853   7.789 -0.0423 -0.1113 -0.3030
  438loPI   C5A 7003   7.676   5.766   7.333 -0.2864  0.2521 -0.2317
  438loPI   C6A 7004   7.713   5.572   6.986  0.0770 -0.0122 -0.2581
  438loPI   C1B 7005   8.691   5.268   8.704 -0.0472  0.3049  0.0857
  438loPI   C2B 7006   8.894   5.135   8.218  0.0683 -0.0568 -0.1860
  438loPI   C3B 7007   9.060   5.188   7.784 -0.1535 -0.2941  0.2947
  438loPI   C4B 7008   9.100   5.253   7.372 -0.0123 -0.0915 -0.3243
  439loPI    C1 7009   1.962  13.771   9.703  0.1131  0.0340  0.1127
  439loPI    C2 7010   1.879  14.141   9.830 -0.0516  0.0420 -0.0164
  439loPI    C3 7011   1.937  13.847  10.095 -0.0074  0.1414  0.0846
  439loPI   PO4 7012   2.154  13.928   9.406  0.2578  0.1512  0.2176
  439loPI   GL1 7013   1.993  14.201   9.051  0.2401  0.4267  0.1950
  439loPI   GL2 7014   2.315  14.270   9.070  0.0750  0.0931 -0.1341
  439loPI   C1A 7015   1.851  14.369   8.739 -0.0123  0.0645 -0.1736
  439loPI   C2A 7016   1.509  14.411   8.492  0.0584  0.0552 -0.0549
  439loPI   C3A 7017   1.272  14.502   8.106 -0.0033 -0.0944  0.0875
  439loPI   C4A 7018   1.133  14.657   7.661 -0.1650 -0.2682 -0.1834
  439loPI   C5A 7019   0.943  14.454   7.376  0.0022 -0.0850 -0.0287
  439loPI   C6A 7020   0.748  14.437   6.970 -0.0512 -0.1679  0.0112
  439loPI   C1B 7021   2.279  14.146   8.669  0.1097  0.1584  0.0457
  439loPI   C2B 7022   2.216  14.039   8.342 -0.1732 -0.0297 -0.1842
  439loPI   C3B 7023   1.811  14.381   8.118 -0.3498 -0.0939  0.1210
  439loPI   C4B 7024   1.874  14.751   8.123 -0.1579 -0.2394  0.2037
  440loPI    C1 7025   7.337  16.816  10.155 -0.0182 -0.0324 -0.1713
  440loPI    C2 7026   7.390  16.440  10.280 -0.0872  0.1170  0.3277
  440loPI    C3 7027   7.580  16.740  10.463  0.1899  0.3057 -0.2465
  440loPI   PO4 7028   7.266  16.707   9.851 -0.1008 -0.2838  0.2671
  440loPI   GL1 7029   7.433  16.689   9.400  0.1252 -0.0944  0.0948
  440loPI   GL2 7030   7.557  16.894   9.481  0.1857  0.0680  0.1559
  440loPI   C1A 7031   7.535  16.557   8.959  0.2170  0.1670 -0.1878
  440loPI   C2A 7032   7.929  16.575   8.844  0.1880 -0.0392 -0.0622
  440loPI   C3A 7033   8.100  16.675   8.491 -0.2388  0.0526  0.1805
  440loPI   C4A 7034   8.294  17.115   8.255 -0.0681  0.1406  0.0170
  440loPI   C5A 7035   8.391  17.000   7.855  0.4026  0.2083  0.3042
  440loPI   C6A 7036   8.243  16.678   7.483  0.1081 -0.1499 -0.1731
  440loPI   C1B 7037   7.608  17.063   9.007 -0.4438  0.2292 -0.2548
  440loPI   C2B 7038   7.887  17.097   8.578  0.1346  0.1455 -0.1709
  440loPI   C3B 7039   7.839  17.060   8.163  0.0723 -0.0013  0.0602
  440loPI   C4B 7040   7.498  17.089   7.814  0.1482 -0.3624 -0.0078
  441loPI    C1 7041  18.798   2.776   9.770 -0.0798 -0.0703 -0.0110
  441loPI    C2 7042  18.932   2.401   9.802 -0.1870 -0.1246 -0.1842
  441loPI    C3 7043  18.614   2.518  10.014 -0.1152 -0.1121 -0.0819
  441loPI   PO4 7044  19.028   2.903   9.778  0.0578 -0.2147  0.1641
  441loPI   GL1 7045  19.245   2.669   9.520  0.2757 -0.0550 -0.1378
  441loPI   GL2 7046  18.996   3.008   9.344  0.0239  0.2467  0.0432
  441loPI   C1A 7047  19.492   3.030   9.392  0.0793  0.2551 -0.1167
  441loPI   C2A 7048  19.711   3.106   8.968 -0.1410 -0.1652 -0.1534
  441loPI   C3A 7049  19.685   3.389   8.631  0.2843  0.1682 -0.2662
  441loPI   C4A 7050  19.535   3.602   8.244  0.1360  0.1835 -0.2420
  441loPI   C5A 7051  19.599   3.642   7.840 -0.1774  0.1019 -0.1643
  441loPI   C6A 7052  19.881   3.991   7.648  0.2797 -0.0758  0.1843
  441loPI   C1B 7053  19.193   2.780   8.977 -0.0940  0.2638  0.0040
  441loPI   C2B 7054  19.028   2.815   8.511  0.4197  0.1355 -0.0631
  441loPI   C3B 7055  19.010   2.901   8.035  0.0329 -0.0988 -0.2286
  441loPI   C4B 7056  18.876   3.042   7.643 -0.0072 -0.1608 -0.1057
  442loPI    C1 7057   4.835   6.310  10.525  0.0350 -0.2978  0.0089
  442loPI    C2 7058   5.210   6.217  10.628  0.1131  0.0483  0.0500
  442loPI    C3 7059   4.973   6.408  10.887 -0.0501 -0.0514 -0.0237
  442loPI   PO4 7060   4.841   6.141  10.142 -0.1764 -0.3620 -0.1544
  442loPI   GL1 7061   4.716   5.838   9.894 -0.0125 -0.0944 -0.1567
  442loPI   GL2 7062   4.452   5.876   9.807  0.0650 -0.1093  0.0719
  442loPI   C1A 7063   4.746   5.570   9.553  0.2090  0.2140 -0.0781
  442loPI   C2A 7064   4.645   5.555   9.069  0.1131  0.2801 -0.1403
  442loPI   C3A 7065   4.514   5.557   8.664  0.4664 -0.0510 -0.1990
  442loPI   C4A 7066   4.541   5.501   8.278 -0.3159  0.0683  0.2648
  442loPI   C5A 7067   4.432   5.348   7.879 -0.0196  0.0476  0.1628
  442loPI   C6A 7068   4.166   5.123   7.747  0.2464 -0.0023  0.0208
  442loPI   C1B 7069   4.664   6.070   9.449  0.3494 -0.0051 -0.0611
  442loPI   C2B 7070   4.534   6.128   8.986 -0.2764 -0.1078  0.1447
  442loPI   C3B 7071   4.478   6.067   8.556  0.1188 -0.0740 -0.1947
  442loPI   C4B 7072   4.207   5.848   8.246 -0.1080 -0.0840 -0.1481
  443loPI    C1 7073  17.874  16.348   9.655  0.0441 -0.1498  0.2615
  443loPI    C2 7074  17.514  16.307   9.486  0.1083 -0.0024  0.0858
  443loPI    C3 7075  17.572  16.190   9.864 -0.1703  0.1376  0.1753
  443loPI   PO4 7076  18.052  16.293   9.467  0.1179 -0.0227 -0.0551
  443loPI   GL1 7077  18.068  16.491   9.093  0.0119  0.2112 -0.1262
  443loPI   GL2 7078  17.851  16.354   8.969  0.1204 -0.3330 -0.3691
  443loPI   C1A 7079  18.391  16.422   8.862  0.0735  0.0225 -0.4059
  443loPI   C2A 7080  18.716  16.502   8.453  0.1558 -0.1352  0.0953
  443loPI   C3A 7081  18.950  16.508   8.054 -0.1416 -0.3467  0.2781
  443loPI   C4A 7082  19.073  16.773   7.690  0.2645 -0.5315  0.2777
  443loPI   C5A 7083  19.453  16.936   7.370  0.2970  0.3236 -0.2536
  443loPI   C6A 7084  19.835  16.721   7.399  0.0308 -0.2742  0.2801
  443loPI   C1B 7085  17.538  15.989   8.791 -0.1092  0.2135 -0.0814
  443loPI   C2B 7086  17.376  15.803   8.428 -0.0140 -0.5385 -0.2006
  443loPI   C3B 7087  17.345  15.913   8.145  0.0017 -0.2641 -0.4468
  443loPI   C4B 7088  17.103  15.707   7.920  0.2775 -0.1285  0.2397
  444loPI    C1 7089  15.614  10.827   9.702  0.0554 -0.1841  0.0678
  444loPI    C2 7090  15.671  10.553   9.987 -0.0813  0.0611  0.3350
  444loPI    C3 7091  15.341  10.780   9.990 -0.0843  0.0665 -0.0199
  444loPI   PO4 7092  15.536  10.683   9.459 -0.2589 -0.0842 -0.1684
  444loPI   GL1 7093  15.748  10.508   9.099 -0.2965  0.3290 -0.1254
  444loPI   GL2 7094  15.637  10.230   9.166 -0.0569 -0.1795  0.2063
  444loPI   C1A 7095  15.624  10.706   8.814 -0.0556 -0.0637 -0.1036
  444loPI   C2A 7096  15.508  10.942   8.440 -0.2203 -0.0563  0.0864
  444loPI   C3A 7097  15.379  11.155   8.073 -0.0998 -0.1650  0.0086
  444loPI   C4A 7098  15.449  11.330   7.664  0.0622  0.1053  0.2138
  444loPI   C5A 7099  15.747  11.142   7.286  0.0741 -0.1752  0.5323
  444loPI   C6A 7100  16.014  10.701   7.154 -0.2137  0.1451  0.4636
  444loPI   C1B 7101  15.577  10.090   8.759 -0.2923 -0.4162 -0.0265
  444loPI   C2B 7102  15.616   9.918   8.324 -0.2064 -0.1901 -0.1199
  444loPI   C3B 7103  15.816  10.036   7.915  0.1368  0.0185  0.0663
  444loPI   C4B 7104  16.023  10.228   7.616  0.1091 -0.0981 -0.1038
  445loPI    C1 7105   2.023  12.195   9.678 -0.2125  0.0631  0.3047
  445loPI    C2 7106   1.637  12.114   9.615 -0.2229  0.4077 -0.1223
  445loPI    C3 7107   1.760  12.493   9.638  0.1082  0.3020 -0.1007
  445loPI   PO4 7108   2.147  11.962   9.632  0.1904 -0.2085 -0.0048
  445loPI   GL1 7109   2.339  11.918   9.254 -0.5601 -0.1650 -0.2342
  445loPI   GL2 7110   2.442  11.648   9.470 -0.0454 -0.0979  0.0590
  445loPI   C1A 7111   2.538  11.905   8.727 -0.0051  0.1639 -0.0723
  445loPI   C2A 7112   2.416  11.805   8.328 -0.0534  0.1992 -0.1954
  445loPI   C3A 7113   2.531  11.778   7.887 -0.2452 -0.2134 -0.0749
  445loPI   C4A 7114   2.746  11.415   7.706 -0.2165  0.0587  0.0918
  445loPI   C5A 7115   3.021  11.433   7.351 -0.1870 -0.0115  0.1847
  445loPI   C6A 7116   3.424  11.557   7.238 -0.2753 -0.1443 -0.0244
  445loPI   C1B 7117   2.535  11.557   9.116  0.0270  0.2755  0.0414
  445loPI   C2B 7118   2.516  11.415   8.672  0.0093 -0.0618 -0.1102
  445loPI   C3B 7119   2.192  11.179   8.308  0.1335 -0.2347  0.0191
  445loPI   C4B 7120   2.168  11.058   7.873 -0.0034  0.1990 -0.0364
  446loPI    C1 7121   7.982  11.140  10.334 -0.2044 -0.0231  0.3656
  446loPI    C2 7122   8.380  11.143  10.376 -0.1440 -0.0109 -0.1476
  446loPI    C3 7123   8.148  11.015  10.676  0.2693 -0.4921 -0.0193
  446loPI   PO4 7124   8.015  11.331  10.098 -0.2162  0.2239 -0.3347
  446loPI   GL1 7125   7.727  11.603   9.844 -0.0697 -0.0090  0.0419
  446loPI   GL2 7126   7.570  11.451   9.495  0.0062 -0.1967  0.1221
  446loPI   C1A 7127   8.089  11.570   9.493 -0.1152 -0.4112  0.1166
  446loPI   C2A 7128   8.187  11.659   9.128 -0.1238 -0.3052 -0.1357
  446loPI   C3A 7129   8.187  11.839   8.825  0.1006 -0.0945 -0.3616
  446loPI   C4A 7130   8.232  11.770   8.396  0.0134  0.1290  0.1856
  446loPI   C5A 7131   8.301  11.747   7.869  0.0686  0.2292 -0.1364
  446loPI   C6A 7132   8.190  11.868   7.420 -0.1551 -0.2399 -0.1976
  446loPI   C1B 7133   7.661  11.347   9.103 -0.0456 -0.1658 -0.2199
  446loPI   C2B 7134   7.799  11.275   8.771 -0.0471 -0.3179 -0.0195
  446loPI   C3B 7135   7.890  11.266   8.326 -0.0995  0.4027  0.0470
  446loPI   C4B 7136   8.277  11.205   8.299 -0.1946  0.2570 -0.1953
  447loPI    C1 7137   9.810   8.158   9.984  0.1853 -0.0937  0.0036
  447loPI    C2 7138   9.552   8.196  10.288  0.0222  0.1281 -0.1592
  447loPI    C3 7139   9.757   7.856  10.241 -0.1185  0.0095  0.0669
  447loPI   PO4 7140   9.747   8.276   9.818  0.3726 -0.1533  0.0531
  447loPI   GL1 7141   9.952   8.234   9.450 -0.1823 -0.3617  0.1566
  447loPI   GL2 7142  10.171   8.408   9.336 -0.0321 -0.4036  0.0645
  447loPI   C1A 7143   9.776   8.037   9.005 -0.2006  0.0029 -0.1291
  447loPI   C2A 7144   9.884   7.913   8.640  0.3430  0.1737 -0.0726
  447loPI   C3A 7145  10.036   8.148   8.272  0.0979 -0.0298  0.1033
  447loPI   C4A 7146  10.204   8.480   8.017 -0.0464  0.0063 -0.0674
  447loPI   C5A 7147  10.286   8.404   7.618  0.1474 -0.3768 -0.0678
  447loPI   C6A 7148  10.448   8.240   7.264 -0.1158 -0.0813  0.4462
  447loPI   C1B 7149  10.213   8.336   8.832 -0.1967 -0.1972 -0.1365
  447loPI   C2B 7150  10.253   8.545   8.469 -0.0695  0.4255 -0.1001
  447loPI   C3B 7151  10.669   8.734   8.267  0.2020  0.4887  0.0953
  447loPI   C4B 7152  10.677   8.446   7.876  0.1252  0.0557  0.0477
  448loPI    C1 7153  18.589   2.038   9.618 -0.0349 -0.0130 -0.0730
  448loPI    C2 7154  18.245   1.856   9.708  0.0839 -0.1627  0.0853
  448loPI    C3 7155  18.416   2.101   9.974  0.0849 -0.0650 -0.0049
  448loPI   PO4 7156  18.715   1.853   9.526  0.2840  0.1641  0.1609
  448loPI   GL1 7157  18.974   1.787   9.204  0.0387  0.0769 -0.0565
  448loPI   GL2 7158  18.812   2.134   9.070 -0.1097  0.3811  0.2318
  448loPI   C1A 7159  19.204   1.745   8.883 -0.0436 -0.1865 -0.0625
  448loPI   C2A 7160  19.405   1.827   8.487  0.4451  0.2202  0.0924
  448loPI   C3A 7161  19.638   2.122   8.114  0.0445  0.1118  0.1159
  448loPI   C4A 7162  19.831   2.011   7.639 -0.0199  0.0652 -0.3307
  448loPI   C5A 7163  20.172   2.357   7.509  0.0512 -0.2577  0.2074
  448loPI   C6A 7164  20.542   2.776   7.366 -0.0550 -0.2576  0.3428
  448loPI   C1B 7165  18.883   2.001   8.592  0.1636  0.0527  0.2114
  448loPI   C2B 7166  18.977   1.944   8.097 -0.1777  0.1000  0.0517
  448loPI   C3B 7167  18.869   1.895   7.599  0.0696  0.0527  0.0239
  448loPI   C4B 7168  18.690   1.584   7.282 -0.0494 -0.1176 -0.3052
  449loPI    C1 7169   1.913   0.736  10.132  0.0790  0.1873  0.1793
  449loPI    C2 7170   2.070   0.472  10.389 -0.0346 -0.1682 -0.1084
  449loPI    C3 7171   1.695   0.600  10.439  0.0907  0.1101  0.1537
  449loPI   PO4 7172   1.933   0.679   9.933  0.4201 -0.3951 -0.3070
  449loPI   GL1 7173   2.149   0.881   9.503  0.0447  0.2923  0.1980
  449loPI   GL2 7174   1.742   0.934   9.550  0.0747 -0.1244 -0.0976
  449loPI   C1A 7175   2.273   0.792   9.123 -0.2921 -0.2876 -0.0370
  449loPI   C2A 7176   2.443   1.152   8.782  0.0399 -0.3216  0.1789
  449loPI   C3A 7177   2.701   1.151   8.401  0.1675 -0.0498 -0.1212
  449loPI   C4A 7178   2.828   1.063   8.035  0.2797  0.2948  0.1954
  449loPI   C5A 7179   2.845   1.058   7.595  0.1712 -0.0270 -0.2153
  449loPI   C6A 7180   2.433   0.925   7.500  0.5516  0.2623 -0.1672
  449loPI   C1B 7181   1.798   0.882   9.117  0.2036  0.1457  0.2203
  449loPI   C2B 7182   1.946   0.938   8.727  0.3142 -0.0527 -0.1148
  449loPI   C3B 7183   2.192   1.122   8.321 -0.0681 -0.1525  0.0768
  449loPI   C4B 7184   2.428   1.389   7.876 -0.2144 -0.1171 -0.0059
  450loPI    C1 7185   5.289   8.598   9.981  0.0489 -0.1160 -0.1549
  450loPI    C2 7186   5.452   8.554  10.344  0.0906 -0.3631 -0.2023
  450loPI    C3 7187   5.078   8.429  10.276 -0.1161  0.1765 -0.1012
  450loPI   PO4 7188   5.448   8.504   9.852  0.0676 -0.0841  0.0546
  450loPI   GL1 7189   5.299   8.433   9.388  0.2122 -0.3449  0.1664
  450loPI   GL2 7190   5.190   8.723   9.497  0.1282  0.0185 -0.0707
  450loPI   C1A 7191   5.484   8.209   9.036  0.0926 -0.1940  0.0951
  450loPI   C2A 7192   5.807   7.981   8.744 -0.1392 -0.1410  0.3707
  450loPI   C3A 7193   5.827   7.640   8.423 -0.3071  0.3353  0.1143
  450loPI   C4A 7194   5.719   7.470   7.989 -0.0795 -0.0506 -0.1220
  450loPI   C5A 7195   5.731   7.055   7.781 -0.1691  0.0433  0.0569
  450loPI   C6A 7196   5.822   6.593   7.677  0.1537  0.0957  0.0939
  450loPI   C1B 7197   5.291   8.866   8.997 -0.0496  0.0499  0.0646
  450loPI   C2B 7198   5.339   8.958   8.557 -0.4147 -0.0724 -0.0321
  450loPI   C3B 7199   5.445   8.902   8.145  0.0304 -0.0325 -0.0934
  450loPI   C4B 7200   5.537   8.901   7.651  0.0942 -0.0658  0.0432
  451loPI    C1 7201   6.103  10.705   9.991  0.0777  0.0444 -0.0236
  451loPI    C2 7202   5.901  10.360   9.980  0.3108 -0.1070  0.2834
  451loPI    C3 7203   5.727  10.690  10.125  0.0801 -0.0861 -0.0308
  451loPI   PO4 7204   6.275  10.736   9.695 -0.1945  0.1597 -0.0865
  451loPI   GL1 7205   6.302  10.759   9.311  0.0485  0.0028 -0.2546
  451loPI   GL2 7206   6.451  10.457   9.353  0.1835  0.0072 -0.2405
  451loPI   C1A 7207   6.251  10.652   8.856 -0.2273 -0.2523  0.0352
  451loPI   C2A 7208   6.339  10.652   8.384  0.0598  0.2392  0.0933
  451loPI   C3A 7209   6.236  10.698   7.930  0.0616  0.1302  0.2051
  451loPI   C4A 7210   5.859  10.994   7.788  0.1237  0.0311 -0.0882
  451loPI   C5A 7211   5.777  10.963   7.357 -0.0728 -0.0353 -0.2386
  451loPI   C6A 7212   5.904  10.726   6.896 -0.3291  0.5247  0.0766
  451loPI   C1B 7213   6.330  10.215   9.053  0.1588  0.2319 -0.0275
  451loPI   C2B 7214   6.304  10.107   8.532  0.1800  0.0846 -0.1208
  451loPI   C3B 7215   6.360  10.232   8.135 -0.0331  0.0866 -0.1693
  451loPI   C4B 7216   6.346  10.206   7.659  0.0026 -0.2225  0.2772
  452loPI    C1 7217   2.243   6.181  10.273 -0.1037 -0.0914  0.2864
  452loPI    C2 7218   2.583   6.046  10.434 -0.0418 -0.2079  0.0620
  452loPI    C3 7219   2.250   5.826  10.459 -0.0252 -0.2395  0.0059
  452loPI   PO4 7220   2.266   6.212  10.017  0.0663 -0.1285 -0.0885
  452loPI   GL1 7221   2.356   6.099   9.614 -0.1852  0.1201  0.0205
  452loPI   GL2 7222   2.167   5.748   9.712 -0.6142  0.0791 -0.1707
  452loPI   C1A 7223   2.473   6.050   9.226 -0.2538 -0.0600  0.0954
  452loPI   C2A 7224   2.427   6.051   8.761  0.0928  0.0949 -0.0047
  452loPI   C3A 7225   2.116   5.791   8.418 -0.3940 -0.1610 -0.0508
  452loPI   C4A 7226   1.904   5.533   8.067 -0.3681  0.3122 -0.2149
  452loPI   C5A 7227   2.065   5.477   7.714  0.7081 -0.1159  0.0726
  452loPI   C6A 7228   2.301   5.653   7.513  0.1821 -0.0055  0.1339
  452loPI   C1B 7229   2.308   5.620   9.321 -0.0334 -0.2669 -0.4975
  452loPI   C2B 7230   2.360   5.562   8.912  0.2264  0.3447 -0.2029
  452loPI   C3B 7231   2.412   5.364   8.507  0.0893  0.2440 -0.1844
  452loPI   C4B 7232   2.331   5.168   8.080 -0.0704 -0.1856  0.0366
  453loPI    C1 7233   3.064  10.194   9.978  0.1941  0.0507 -0.1079
  453loPI    C2 7234   2.768  10.125  10.238  0.0844  0.1043 -0.2177
  453loPI    C3 7235   3.064  10.377  10.334 -0.1005  0.3375 -0.2506
  453loPI   PO4 7236   2.908  10.220   9.744 -0.0295  0.0583  0.0383
  453loPI   GL1 7237   2.890  10.173   9.354 -0.0164  0.0722 -0.1759
  453loPI   GL2 7238   3.079   9.928   9.375  0.2810  0.1907 -0.2687
  453loPI   C1A 7239   2.773  10.208   9.108  0.0215  0.2025  0.0361
  453loPI   C2A 7240   2.887  10.303   8.716  0.1528  0.0460 -0.1615
  453loPI   C3A 7241   2.942  10.171   8.281 -0.0209 -0.1589  0.2417
  453loPI   C4A 7242   3.062   9.984   7.833  0.1767 -0.1302  0.1616
  453loPI   C5A 7243   3.230   9.915   7.455 -0.0809 -0.0638  0.3229
  453loPI   C6A 7244   3.201  10.009   7.013  0.0152 -0.0281  0.2203
  453loPI   C1B 7245   3.497   9.924   9.382 -0.0546 -0.2754 -0.0442
  453loPI   C2B 7246   3.846  10.032   8.912 -0.2649 -0.0235 -0.3532
  453loPI   C3B 7247   3.886  10.113   8.527  0.0622  0.1093 -0.0082
  453loPI   C4B 7248   4.052  10.142   8.040 -0.2141 -0.0125 -0.0426
  454loPI    C1 7249  14.491  18.963  10.048  0.0122  0.0208  0.1603
  454loPI    C2 7250  14.469  18.695  10.344 -0.6665 -0.2883 -0.1463
  454loPI    C3 7251  14.260  19.035  10.367 -0.2121 -0.0107  0.0080
  454loPI   PO4 7252  14.586  18.823   9.890  0.1087  0.3871 -0.1336
  454loPI   GL1 7253  14.397  18.546   9.464  0.3986  0.2447  0.2191
  454loPI   GL2 7254  14.579  18.270   9.553  0.2222  0.0919  0.0973
  454loPI   C1A 7255  14.604  18.736   9.121 -0.2622 -0.0652 -0.0654
  454loPI   C2A 7256  14.802  19.046   8.920  0.0974  0.2442  0.1355
  454loPI   C3A 7257  14.638  19.169   8.544  0.2696  0.1370 -0.2073
  454loPI   C4A 7258  14.537  19.357   8.203 -0.1028 -0.4054 -0.1963
  454loPI   C5A 7259  14.773  19.301   7.780 -0.0224  0.2317 -0.0363
  454loPI   C6A 7260  14.888  19.531   7.387  0.0839 -0.1726 -0.2565
  454loPI   C1B 7261  14.454  18.147   9.102  0.1879 -0.1891 -0.2646
  454loPI   C2B 7262  14.521  18.169   8.711 -0.0916 -0.0878 -0.2417
  454loPI   C3B 7263  14.328  18.273   8.354 -0.0936  0.1933 -0.0262
  454loPI   C4B 7264  14.316  18.543   7.964 -0.0940 -0.1512 -0.0397
  455loPI    C1 7265   1.374  10.367   9.817 -0.1651 -0.4593 -0.1604
  455loPI    C2 7266   1.709  10.357  10.035 -0.1398  0.1056 -0.1592
  455loPI    C3 7267   1.361  10.245  10.198  0.0028 -0.2375 -0.0818
  455loPI   PO4 7268   1.521  10.304   9.585 -0.1416 -0.0263 -0.1646
  455loPI   GL1 7269   1.702  10.539   9.239 -0.1129 -0.2094 -0.0220
  455loPI   GL2 7270   1.999  10.368   9.136  0.0916 -0.0349  0.3317
  455loPI   C1A 7271   1.494  10.666   8.985 -0.1462 -0.1393  0.1959
  455loPI   C2A 7272   1.295  10.680   8.629  0.3707 -0.2612 -0.1009
  455loPI   C3A 7273   1.202  10.449   8.379 -0.1717  0.0677  0.2626
  455loPI   C4A 7274   1.209  10.332   8.005 -0.1468  0.1716 -0.3947
  455loPI   C5A 7275   1.059  10.345   7.646  0.1388 -0.1464  0.0891
  455loPI   C6A 7276   0.701  10.251   7.472 -0.3187 -0.1936  0.0540
  455loPI   C1B 7277   1.811  10.356   8.747 -0.0868  0.1993 -0.3137
  455loPI   C2B 7278   1.763  10.428   8.423  0.0263  0.2043 -0.0733
  455loPI   C3B 7279   1.767  10.201   8.148 -0.0124 -0.2053  0.0054
  455loPI   C4B 7280   1.697  10.066   7.700 -0.1793 -0.0733 -0.0907
  456loPI    C1 7281   2.508   9.153  10.022 -0.0699 -0.1501 -0.0009
  456loPI    C2 7282   2.461   9.214  10.414  0.1095 -0.0928  0.0128
  456loPI    C3 7283   2.190   9.001  10.211 -0.0095 -0.0817  0.1575
  456loPI   PO4 7284   2.516   9.316   9.870  0.2899  0.2888 -0.0948
  456loPI   GL1 7285   2.582   9.702   9.426 -0.0879  0.1183 -0.3790
  456loPI   GL2 7286   2.394   9.952   9.309  0.0505 -0.1744  0.0987
  456loPI   C1A 7287   2.828   9.471   9.181  0.4265 -0.0533  0.1653
  456loPI   C2A 7288   3.041   9.753   8.872 -0.0499  0.1996 -0.1497
  456loPI   C3A 7289   3.189   9.735   8.451  0.2812  0.0400 -0.0737
  456loPI   C4A 7290   3.172   9.575   8.107 -0.0160 -0.0929 -0.2142
  456loPI   C5A 7291   3.110   9.175   7.939  0.1153  0.2273 -0.1713
  456loPI   C6A 7292   2.831   8.830   7.950  0.2358 -0.2655  0.1579
  456loPI   C1B 7293   2.439   9.931   8.861 -0.1204 -0.2580  0.0295
  456loPI   C2B 7294   2.632   9.848   8.481 -0.1311  0.2559  0.0539
  456loPI   C3B 7295   2.695   9.813   8.050  0.1130  0.0037 -0.0312
  456loPI   C4B 7296   2.856   9.553   7.705  0.0255 -0.2581 -0.2848
  457loPI    C1 7297   8.583  12.448  10.271 -0.1228  0.1303  0.2842
  457loPI    C2 7298   8.711  12.786  10.443  0.1642  0.1217  0.0968
  457loPI    C3 7299   8.951  12.467  10.426  0.1740  0.1479 -0.3858
  457loPI   PO4 7300   8.435  12.555  10.019 -0.2526 -0.1827  0.0616
  457loPI   GL1 7301   8.345  12.764   9.582 -0.3522  0.2361  0.0056
  457loPI   GL2 7302   8.561  12.446   9.544  0.1795 -0.0523  0.0366
  457loPI   C1A 7303   8.363  12.790   9.114  0.3706  0.4673 -0.3871
  457loPI   C2A 7304   8.315  12.908   8.785  0.0611  0.0148  0.1732
  457loPI   C3A 7305   8.672  12.955   8.410  0.6066  0.4767 -0.0929
  457loPI   C4A 7306   8.865  12.933   7.967  0.1044  0.2285  0.0061
  457loPI   C5A 7307   9.190  13.255   7.745 -0.0713 -0.0187 -0.0731
  457loPI   C6A 7308   9.587  13.009   7.775 -0.1013 -0.1009 -0.2198
  457loPI   C1B 7309   8.894  12.613   9.391  0.2786  0.4004  0.1504
  457loPI   C2B 7310   9.145  12.644   9.064 -0.1258 -0.2245  0.2104
  457loPI   C3B 7311   9.032  12.764   8.622 -0.1106 -0.3009  0.2557
  457loPI   C4B 7312   8.876  12.482   8.195  0.0278 -0.0901  0.0202
  458loPI    C1 7313  15.876   3.900   9.842  0.1027  0.0358  0.0745
  458loPI    C2 7314  15.813   3.524   9.965 -0.3218 -0.0075 -0.2503
  458loPI    C3 7315  16.150   3.715  10.067 -0.0788 -0.4901 -0.1208
  458loPI   PO4 7316  15.704   3.874   9.612  0.1471 -0.1300 -0.1715
  458loPI   GL1 7317  15.909   3.900   9.299 -0.1679  0.0014  0.0276
  458loPI   GL2 7318  15.739   3.708   9.138 -0.4139 -0.0313  0.1985
  458loPI   C1A 7319  15.922   4.144   8.885 -0.2006  0.1496 -0.0953
  458loPI   C2A 7320  16.310   4.297   8.755  0.2909  0.2689 -0.1944
  458loPI   C3A 7321  16.471   4.283   8.389  0.1265 -0.1540 -0.1822
  458loPI   C4A 7322  16.566   4.353   8.104  0.3001 -0.0394  0.0517
  458loPI   C5A 7323  16.727   4.639   7.866 -0.3838 -0.1479 -0.0717
  458loPI   C6A 7324  16.830   4.624   7.499  0.2721 -0.1873 -0.1317
  458loPI   C1B 7325  15.832   3.727   8.630  0.1372  0.2098 -0.2353
  458loPI   C2B 7326  15.822   3.661   8.185 -0.1587  0.2165 -0.0576
  458loPI   C3B 7327  15.651   3.304   7.850  0.1095  0.0902 -0.1037
  458loPI   C4B 7328  15.517   2.950   7.622 -0.3479  0.1879  0.0315
  459loPI    C1 7329   6.434   6.753  10.049  0.1393  0.0954 -0.0680
  459loPI    C2 7330   6.834   6.750  10.040  0.1497  0.0860  0.2713
  459loPI    C3 7331   6.639   6.552  10.328 -0.1052 -0.0426  0.0151
  459loPI   PO4 7332   6.359   6.987   9.989  0.0183  0.1332  0.1078
  459loPI   GL1 7333   6.194   7.201   9.723  0.1331  0.0026  0.1113
  459loPI   GL2 7334   5.861   7.206   9.876  0.2374  0.0292  0.1626
  459loPI   C1A 7335   6.506   7.390   9.438  0.0311  0.2669  0.1581
  459loPI   C2A 7336   6.454   7.388   8.976 -0.0570 -0.2416  0.1676
  459loPI   C3A 7337   6.333   7.461   8.495  0.0679  0.0257  0.0593
  459loPI   C4A 7338   6.327   7.622   8.078 -0.0548 -0.0562  0.3482
  459loPI   C5A 7339   6.275   7.831   7.790 -0.1744 -0.3556 -0.1958
  459loPI   C6A 7340   6.029   7.573   7.411 -0.1905  0.2548  0.0467
  459loPI   C1B 7341   5.822   7.349   9.387 -0.0303 -0.0045  0.3444
  459loPI   C2B 7342   5.750   7.328   8.914 -0.1950 -0.4811  0.1668
  459loPI   C3B 7343   5.541   7.223   8.564  0.2320  0.5704 -0.0873
  459loPI   C4B 7344   5.451   7.097   8.176 -0.1048 -0.1547 -0.2102
  460loPI    C1 7345  18.344   1.570  10.110 -0.1574 -0.3003  0.1371
  460loPI    C2 7346  18.275   1.717  10.476 -0.2510 -0.2064  0.0822
  460loPI    C3 7347  18.620   1.531  10.397 -0.0900  0.0683  0.1272
  460loPI   PO4 7348  18.105   1.422   9.924  0.1155  0.0537  0.1813
  460loPI   GL1 7349  18.115   1.536   9.384  0.0755  0.1450  0.1507
  460loPI   GL2 7350  18.457   1.473   9.264 -0.0241  0.0736  0.1039
  460loPI   C1A 7351  18.106   1.389   8.935 -0.0146  0.1626 -0.0531
  460loPI   C2A 7352  18.025   1.045   8.643 -0.0067 -0.4372 -0.0406
  460loPI   C3A 7353  17.817   0.983   8.256 -0.2660 -0.0446  0.2529
  460loPI   C4A 7354  17.811   1.081   7.835  0.1097 -0.1199 -0.0577
  460loPI   C5A 7355  17.713   1.212   7.357  0.1554 -0.0071  0.3967
  460loPI   C6A 7356  18.102   1.304   7.202 -0.1278  0.0190 -0.2050
  460loPI   C1B 7357  18.587   1.586   8.872 -0.1589  0.3641  0.3943
  460loPI   C2B 7358  18.340   1.510   8.457  0.1352 -0.1885  0.3342
  460loPI   C3B 7359  18.191   1.308   8.163 -0.1135 -0.0796 -0.0665
  460loPI   C4B 7360  18.237   1.201   7.666 -0.0935  0.1802 -0.0207
  461loPI    C1 7361   0.630   9.712   9.675 -0.2559 -0.0366 -0.0925
  461loPI    C2 7362   0.765   9.485   9.976 -0.0706 -0.1277 -0.2418
  461loPI    C3 7363   0.377   9.583   9.957 -0.0265  0.1660  0.2125
  461loPI   PO4 7364   0.762   9.611   9.475 -0.1736 -0.0441  0.0997
  461loPI   GL1 7365   1.140   9.496   9.221 -0.2149 -0.1926 -0.0703
  461loPI   GL2 7366   1.060   9.801   9.102 -0.1670 -0.1069  0.1663
  461loPI   C1A 7367   1.294   9.447   8.762 -0.3515  0.1681  0.2226
  461loPI   C2A 7368   0.980   9.505   8.368  0.1200  0.1436 -0.0418
  461loPI   C3A 7369   1.025   9.290   7.953 -0.1289  0.0918  0.1680
  461loPI   C4A 7370   0.943   8.959   7.627 -0.2460 -0.1853  0.3500
  461loPI   C5A 7371   0.952   8.558   7.332 -0.1920 -0.0143  0.1545
  461loPI   C6A 7372   0.785   8.187   7.209  0.0649 -0.4563 -0.3743
  461loPI   C1B 7373   0.879   9.662   8.822 -0.0415 -0.2822 -0.0539
  461loPI   C2B 7374   0.505   9.659   8.536 -0.1487  0.0384 -0.2384
  461loPI   C3B 7375   0.424   9.501   8.064 -0.2848 -0.2907  0.0260
  461loPI   C4B 7376   0.584   9.317   7.648 -0.0375 -0.1258  0.2353
  462loPI    C1 7377  17.907  11.835   9.812  0.0946 -0.0287 -0.0039
  462loPI    C2 7378  18.112  11.492   9.832  0.0249 -0.0709 -0.0091
  462loPI    C3 7379  17.901  11.618  10.148 -0.0524 -0.0972 -0.0496
  462loPI   PO4 7380  17.915  11.856   9.541  0.2852 -0.1419 -0.1521
  462loPI   GL1 7381  17.765  11.817   9.161  0.2913  0.0665 -0.0621
  462loPI   GL2 7382  17.507  11.685   9.217 -0.4218 -0.0733 -0.0078
  462loPI   C1A 7383  17.573  11.821   8.748 -0.1056  0.2322 -0.0677
  462loPI   C2A 7384  17.618  11.886   8.286  0.3290  0.3069 -0.1619
  462loPI   C3A 7385  17.562  12.025   7.917 -0.1121  0.1944 -0.3357
  462loPI   C4A 7386  17.385  11.939   7.591  0.1563  0.0332  0.3279
  462loPI   C5A 7387  17.020  12.117   7.319 -0.1656  0.2212  0.2356
  462loPI   C6A 7388  16.675  11.968   7.116 -0.0740 -0.1992 -0.0534
  462loPI   C1B 7389  17.364  11.468   9.028 -0.1910 -0.0300 -0.1581
  462loPI   C2B 7390  17.304  11.334   8.600  0.2691 -0.1867 -0.3439
  462loPI   C3B 7391  17.386  11.413   8.230  0.0817 -0.0141 -0.2043
  462loPI   C4B 7392  17.316  11.392   7.765 -0.0372  0.1920 -0.2574
  463loPI    C1 7393  14.794   7.347   9.610  0.1694 -0.0756  0.2758
  463loPI    C2 7394  14.626   7.478   9.272  0.1726 -0.1292  0.2533
  463loPI    C3 7395  14.538   7.113   9.410  0.0218 -0.0337  0.4133
  463loPI   PO4 7396  15.014   7.426   9.628 -0.3097 -0.1286 -0.0053
  463loPI   GL1 7397  15.212   7.458   9.306 -0.4078 -0.2925 -0.0356
  463loPI   GL2 7398  15.460   7.730   9.395 -0.4401  0.0383 -0.1433
  463loPI   C1A 7399  15.307   7.240   8.950  0.2201  0.1496  0.0195
  463loPI   C2A 7400  15.164   7.128   8.562 -0.0476  0.2368 -0.1930
  463loPI   C3A 7401  15.080   7.039   8.079 -0.2534  0.4415  0.1368
  463loPI   C4A 7402  14.840   7.235   7.673  0.3090 -0.1670  0.3665
  463loPI   C5A 7403  14.602   7.605   7.667  0.0590  0.1537  0.1305
  463loPI   C6A 7404  14.716   8.051   7.557  0.1304  0.0459  0.0750
  463loPI   C1B 7405  15.467   7.811   8.835 -0.0641  0.0665 -0.1041
  463loPI   C2B 7406  15.373   7.679   8.388  0.3864 -0.0437  0.1121
  463loPI   C3B 7407  15.086   7.596   7.957 -0.1666  0.2240 -0.3634
  463loPI   C4B 7408  15.039   7.682   7.500  0.0293  0.0828  0.0605
  464loPI    C1 7409   1.276   9.486   9.938 -0.0695 -0.0341 -0.1295
  464loPI    C2 7410   1.591   9.442  10.180  0.0161  0.0910 -0.2172
  464loPI    C3 7411   1.323   9.730  10.251 -0.0307  0.0419 -0.1941
  464loPI   PO4 7412   1.412   9.391   9.721 -0.2024  0.1206 -0.2070
  464loPI   GL1 7413   1.267   9.067   9.387 -0.0443  0.3880 -0.2773
  464loPI   GL2 7414   1.104   8.929   9.200  0.0296  0.2578 -0.1861
  464loPI   C1A 7415   1.536   9.033   8.998 -0.2104  0.0515 -0.1714
  464loPI   C2A 7416   1.944   9.003   8.806  0.0865 -0.1659 -0.3202
  464loPI   C3A 7417   2.189   8.747   8.417 -0.0980 -0.0397 -0.2408
  464loPI   C4A 7418   2.210   8.522   8.118 -0.3092  0.4826  0.0689
  464loPI   C5A 7419   2.262   8.151   7.747  0.1448  0.1871  0.3392
  464loPI   C6A 7420   2.365   8.054   7.356 -0.4002  0.1033  0.1735
  464loPI   C1B 7421   1.074   8.926   8.814  0.3950  0.1113 -0.0045
  464loPI   C2B 7422   1.273   8.976   8.488 -0.1379 -0.2991  0.4998
  464loPI   C3B 7423   1.526   9.177   8.206  0.0279  0.1956 -0.2444
  464loPI   C4B 7424   1.597   9.090   7.704 -0.0035  0.1288  0.1918
  465loPI    C1 7425   9.411  18.586   9.982  0.2381  0.2282 -0.1093
  465loPI    C2 7426   9.383  18.288  10.247 -0.0044  0.0081 -0.3765
  465loPI    C3 7427   9.355  18.668  10.370 -0.1047 -0.0901 -0.0869
  465loPI   PO4 7428   9.239  18.567   9.806  0.0229  0.4414 -0.3121
  465loPI   GL1 7429   9.356  18.411   9.398 -0.0038  0.0091 -0.4150
  465loPI   GL2 7430   9.650  18.418   9.572  0.0255  0.1511 -0.0966
  465loPI   C1A 7431   9.486  18.583   9.024 -0.0503 -0.2866 -0.1614
  465loPI   C2A 7432   9.405  18.651   8.606  0.1146  0.0373  0.0709
  465loPI   C3A 7433   9.417  18.729   8.228  0.0686  0.1532  0.0820
  465loPI   C4A 7434   9.491  18.684   7.794  0.2338 -0.0033 -0.0587
  465loPI   C5A 7435   9.469  18.906   7.403 -0.6272  0.0867  0.2141
  465loPI   C6A 7436   9.494  19.228   7.087 -0.0730  0.4183 -0.2162
  465loPI   C1B 7437   9.988  18.643   9.443  0.0820  0.0134 -0.1799
  465loPI   C2B 7438  10.068  18.747   9.070 -0.1318 -0.0558  0.1284
  465loPI   C3B 7439   9.909  18.786   8.690  0.2062 -0.1162 -0.0288
  465loPI   C4B 7440   9.955  18.884   8.220 -0.1361  0.2043 -0.0639
  466loPI    C1 7441   2.553   3.246  10.221 -0.1073  0.2909 -0.2654
  466loPI    C2 7442   2.285   3.485  10.397  0.0796  0.2338  0.1066
  466loPI    C3 7443   2.659   3.615  10.336  0.0977  0.1450  0.0274
  466loPI   PO4 7444   2.514   3.000  10.183 -0.2921 -0.1024 -0.0767
  466loPI   GL1 7445   2.273   2.754   9.874  0.0418  0.0171  0.3085
  466loPI   GL2 7446   2.501   2.502   9.792  0.2177 -0.2707 -0.1482
  466loPI   C1A 7447   2.011   3.073   9.504  0.0332 -0.0234 -0.2059
  466loPI   C2A 7448   1.882   3.154   9.091 -0.0489 -0.0569  0.1775
  466loPI   C3A 7449   1.712   3.358   8.808  0.1352  0.2319  0.2068
  466loPI   C4A 7450   1.456   3.390   8.452  0.0329 -0.0452  0.5442
  466loPI   C5A 7451   1.522   3.386   7.972 -0.1999 -0.1647 -0.0913
  466loPI   C6A 7452   1.392   3.271   7.603  0.0914  0.6319  0.1537
  466loPI   C1B 7453   2.612   2.191   9.580 -0.1706  0.0563  0.0913
  466loPI   C2B 7454   2.740   2.171   9.072 -0.2320  0.1658  0.0992
  466loPI   C3B 7455   2.434   2.461   8.818 -0.1931 -0.0409  0.0920
  466loPI   C4B 7456   2.624   2.870   8.631  0.1235  0.0424  0.4473
  467loPI    C1 7457   0.385  11.800   9.626 -0.1598  0.0528  0.0560
  467loPI    C2 7458   0.238  12.007   9.935  0.0168  0.4038 -0.0883
  467loPI    C3 7459   0.617  11.879   9.943 -0.1075  0.0282  0.0242
  467loPI   PO4 7460   0.372  11.836   9.348 -0.2436 -0.0470 -0.2816
  467loPI   GL1 7461   0.089  11.594   9.043  0.0637 -0.0689  0.5733
  467loPI   GL2 7462  -0.003  12.010   8.968 -0.1043 -0.1949 -0.1927
  467loPI   C1A 7463  -0.073  11.374   8.672 -0.0351  0.0690  0.0924
  467loPI   C2A 7464  -0.103  11.292   8.295 -0.0860  0.1704  0.2043
  467loPI   C3A 7465  -0.276  11.320   7.922 -0.3011 -0.1876  0.1444
  467loPI   C4A 7466  -0.483  11.122   7.564 -0.4450  0.1615  0.1726
  467loPI   C5A 7467  -0.605  10.757   7.407 -0.1205 -0.1258  0.1703
  467loPI   C6A 7468  -0.383  10.488   7.336  0.0842  0.4058 -0.3467
  467loPI   C1B 7469  -0.063  11.886   8.549 -0.1728 -0.2528  0.1981
  467loPI   C2B 7470  -0.185  11.767   8.129  0.1510 -0.1416  0.0873
  467loPI   C3B 7471  -0.201  11.830   7.681  0.0283 -0.2811 -0.2366
  467loPI   C4B 7472  -0.061  11.675   7.229 -0.2298  0.0207  0.0057
  468loPI    C1 7473   3.796  12.403   9.823 -0.1622  0.1722  0.1374
  468loPI    C2 7474   3.679  12.637  10.125 -0.0097  0.2150  0.1644
  468loPI    C3 7475   3.893  12.307  10.200 -0.1486  0.1139  0.1193
  468loPI   PO4 7476   3.591  12.460   9.656  0.2295  0.1754 -0.2993
  468loPI   GL1 7477   3.556  12.671   9.306 -0.0658  0.1725 -0.0785
  468loPI   GL2 7478   3.454  12.403   9.199 -0.0176  0.1396 -0.3855
  468loPI   C1A 7479   3.358  12.719   8.866 -0.3590  0.4472  0.3587
  468loPI   C2A 7480   3.300  12.734   8.561  0.0383  0.1859  0.0045
  468loPI   C3A 7481   3.265  12.477   8.239 -0.0328 -0.0176  0.0743
  468loPI   C4A 7482   3.225  12.420   7.851  0.1857  0.1070  0.0803
  468loPI   C5A 7483   3.060  12.326   7.397  0.1452  0.3064 -0.3390
  468loPI   C6A 7484   3.075  12.104   7.082  0.0068  0.1575  0.1731
  468loPI   C1B 7485   3.402  12.072   8.901 -0.0527  0.0395  0.1133
  468loPI   C2B 7486   3.528  11.939   8.483 -0.0488 -0.3074 -0.2685
  468loPI   C3B 7487   3.513  12.058   8.013 -0.2154  0.1395  0.3928
  468loPI   C4B 7488   3.394  11.982   7.533  0.2516 -0.0221 -0.1969
  469loPI    C1 7489   6.347  10.196  10.150  0.3944 -0.0309 -0.4118
  469loPI    C2 7490   6.560  10.505  10.289 -0.2979  0.1701  0.2759
  469loPI    C3 7491   6.493  10.187  10.522 -0.1221 -0.2331 -0.2046
  469loPI   PO4 7492   6.335  10.195   9.816  0.3809 -0.0951 -0.1402
  469loPI   GL1 7493   6.004  10.132   9.412  0.1521 -0.1370 -0.2677
  469loPI   GL2 7494   5.925  10.491   9.434  0.0203 -0.1774  0.0717
  469loPI   C1A 7495   5.939   9.942   8.931  0.0709 -0.1826  0.0547
  469loPI   C2A 7496   5.964   9.705   8.616 -0.1254  0.1218 -0.2867
  469loPI   C3A 7497   6.019   9.599   8.259  0.1957 -0.0027  0.0341
  469loPI   C4A 7498   6.218   9.472   7.911 -0.1113 -0.0302 -0.1631
  469loPI   C5A 7499   5.989   9.177   7.588  0.0975 -0.1430 -0.1902
  469loPI   C6A 7500   5.724   9.164   7.296  0.1184 -0.0093 -0.0457
  469loPI   C1B 7501   5.885  10.492   9.111  0.0185 -0.2913  0.0260
  469loPI   C2B 7502   5.877  10.395   8.666  0.1324  0.0258  0.3772
  469loPI   C3B 7503   5.825  10.126   8.311 -0.0084  0.3378 -0.3976
  469loPI   C4B 7504   5.782   9.930   7.894  0.0559  0.0114 -0.2980
  470loPI    C1 7505  10.524   0.358  10.403 -0.0966 -0.0121  0.1704
  470loPI    C2 7506  10.583   0.731  10.534 -0.2139  0.0318  0.0990
  470loPI    C3 7507  10.733   0.422  10.738  0.2138  0.1365 -0.0461
  470loPI   PO4 7508  10.577   0.370  10.141  0.2127  0.2586  0.3531
  470loPI   GL1 7509  10.602   0.324   9.729  0.0973  0.2864 -0.3305
  470loPI   GL2 7510  10.525   0.638   9.600 -0.2958  0.1951  0.1145
  470loPI   C1A 7511  10.587   0.097   9.327 -0.1167 -0.0678  0.0255
  470loPI   C2A 7512  10.530  -0.104   8.925  0.1188 -0.2437  0.0314
  470loPI   C3A 7513  10.447  -0.346   8.578  0.1094  0.0911  0.1273
  470loPI   C4A 7514  10.449  -0.508   8.142  0.0716  0.0369  0.0777
  470loPI   C5A 7515  10.447  -0.773   7.732 -0.1696 -0.3304 -0.0332
  470loPI   C6A 7516  10.258  -0.913   7.323 -0.0030 -0.1704 -0.0370
  470loPI   C1B 7517  10.638   0.894   9.194  0.1879  0.2154 -0.0775
  470loPI   C2B 7518  10.776   0.864   8.793  0.2367  0.1396 -0.2314
  470loPI   C3B 7519  10.828   1.185   8.428  0.2679  0.2246  0.1983
  470loPI   C4B 7520  10.966   1.014   8.068  0.1167  0.0069  0.2478
  471loPI    C1 7521   5.063  10.936   9.735 -0.0037 -0.0156  0.1593
  471loPI    C2 7522   4.743  10.697   9.758 -0.2072  0.2005 -0.2934
  471loPI    C3 7523   5.061  10.585   9.544  0.0235 -0.0082  0.1453
  471loPI   PO4 7524   4.962  11.184   9.631 -0.0638 -0.4209  0.0925
  471loPI   GL1 7525   4.971  11.517   9.348  0.0400  0.1472 -0.2524
  471loPI   GL2 7526   5.040  11.791   9.286 -0.0606 -0.0415  0.0116
  471loPI   C1A 7527   4.810  11.455   8.938 -0.2092 -0.1318  0.0723
  471loPI   C2A 7528   4.880  11.419   8.596 -0.6026  0.2965 -0.1907
  471loPI   C3A 7529   5.077  11.405   8.147 -0.3094 -0.5411  0.0374
  471loPI   C4A 7530   5.173  11.162   7.713  0.0583 -0.0463 -0.0225
  471loPI   C5A 7531   5.272  11.122   7.234  0.1199  0.2914 -0.1828
  471loPI   C6A 7532   5.463  11.093   6.884  0.3523  0.4217  0.0730
  471loPI   C1B 7533   5.062  11.858   8.833  0.0375  0.1438  0.1528
  471loPI   C2B 7534   4.926  11.873   8.416 -0.4474  0.4211  0.0128
  471loPI   C3B 7535   4.843  11.845   8.044  0.2322 -0.0948  0.1815
  471loPI   C4B 7536   4.825  12.048   7.601 -0.0570  0.0012 -0.1993
  472loPI    C1 7537   9.746   3.700   9.931 -0.1130 -0.0896 -0.1888
  472loPI    C2 7538   9.503   4.010   9.998 -0.0936 -0.0866 -0.1308
  472loPI    C3 7539   9.882   4.073   9.884  0.0326 -0.0772  0.2801
  472loPI   PO4 7540   9.656   3.592   9.695  0.0222 -0.3337  0.1002
  472loPI   GL1 7541   9.499   3.856   9.457  0.0181 -0.1109 -0.0957
  472loPI   GL2 7542   9.305   3.615   9.347  0.1323  0.1974  0.2054
  472loPI   C1A 7543   9.432   4.132   9.099  0.1058  0.0375  0.3561
  472loPI   C2A 7544   9.507   4.051   8.677 -0.1901 -0.4463 -0.0164
  472loPI   C3A 7545   9.644   3.969   8.238  0.2670 -0.0977  0.2340
  472loPI   C4A 7546   9.752   3.888   7.838 -0.1506  0.0839 -0.4362
  472loPI   C5A 7547   9.779   3.894   7.461  0.2452 -0.2127 -0.1167
  472loPI   C6A 7548   9.669   3.693   7.154  0.0637  0.2388  0.0876
  472loPI   C1B 7549   9.096   3.438   8.993 -0.0403  0.0627  0.0390
  472loPI   C2B 7550   9.065   3.050   8.655  0.2196 -0.1334 -0.3182
  472loPI   C3B 7551   9.259   3.020   8.267  0.0691 -0.1796  0.2371
  472loPI   C4B 7552   9.449   2.978   7.920  0.1669 -0.1651 -0.0353
  473loPI    C1 7553  17.521   7.189  10.126 -0.2736 -0.4643  0.0995
  473loPI    C2 7554  17.494   7.513  10.360  0.1117 -0.1066 -0.3325
  473loPI    C3 7555  17.534   7.151  10.524  0.2623  0.1227  0.1553
  473loPI   PO4 7556  17.722   7.282   9.883  0.2451  0.0496 -0.0663
  473loPI   GL1 7557  17.703   6.946   9.565 -0.0527 -0.3589 -0.4027
  473loPI   GL2 7558  17.981   6.984   9.497  0.0294 -0.3284 -0.1517
  473loPI   C1A 7559  17.547   6.834   9.200 -0.1590 -0.0077 -0.0646
  473loPI   C2A 7560  17.677   6.674   8.914 -0.1904  0.3352  0.0006
  473loPI   C3A 7561  17.704   6.736   8.369 -0.0799 -0.0631  0.0113
  473loPI   C4A 7562  17.965   6.667   8.125  0.0680 -0.1276 -0.0722
  473loPI   C5A 7563  18.291   6.415   8.096  0.0890 -0.0286 -0.2329
  473loPI   C6A 7564  18.671   6.373   8.035 -0.2380  0.0084 -0.1621
  473loPI   C1B 7565  18.012   7.057   9.032  0.3007  0.1871  0.2063
  473loPI   C2B 7566  17.896   7.196   8.575 -0.0407  0.0346  0.0086
  473loPI   C3B 7567  17.779   7.259   8.128  0.0286  0.0319  0.0866
  473loPI   C4B 7568  17.705   7.337   7.687 -0.2297 -0.0178  0.2850
  474loPI    C1 7569  18.630   5.400   9.973 -0.2618 -0.1355  0.0500
  474loPI    C2 7570  18.361   5.438  10.267 -0.0934  0.0453  0.1829
  474loPI    C3 7571  18.580   5.753  10.154 -0.0359 -0.0660 -0.0208
  474loPI   PO4 7572  18.562   5.364   9.726  0.1172 -0.2815 -0.0817
  474loPI   GL1 7573  18.924   5.174   9.398  0.0380 -0.0029  0.0031
  474loPI   GL2 7574  18.918   4.964   9.408  0.0075 -0.1331 -0.0359
  474loPI   C1A 7575  19.070   5.435   9.067 -0.0639  0.1820  0.0568
  474loPI   C2A 7576  19.062   5.865   8.993 -0.1632 -0.0756  0.2748
  474loPI   C3A 7577  19.156   5.975   8.654  0.1744 -0.3085 -0.0338
  474loPI   C4A 7578  19.075   6.060   8.192 -0.1819 -0.0701 -0.1040
  474loPI   C5A 7579  19.100   6.129   7.761  0.0073 -0.0350  0.1257
  474loPI   C6A 7580  18.824   6.010   7.415 -0.0796  0.0470 -0.0989
  474loPI   C1B 7581  18.805   4.969   8.985  0.0958 -0.2563  0.1488
  474loPI   C2B 7582  18.578   4.917   8.637  0.0808 -0.2665 -0.0787
  474loPI   C3B 7583  18.580   4.910   8.184  0.1197 -0.1360  0.3533
  474loPI   C4B 7584  18.796   5.100   7.751 -0.3207  0.3412  0.1284
  475loPI    C1 7585   3.664  10.835   9.580  0.3024 -0.0927  0.0461
  475loPI    C2 7586   3.956  11.108   9.590 -0.0070  0.2609 -0.2549
  475loPI    C3 7587   3.737  11.038   9.917  0.2918  0.1245 -0.0800
  475loPI   PO4 7588   3.740  10.636   9.532 -0.0743  0.3000 -0.0289
  475loPI   GL1 7589   3.685  10.409   9.183 -0.0556 -0.1411  0.0027
  475loPI   GL2 7590   3.676  10.652   9.050 -0.2170 -0.1004 -0.2833
  475loPI   C1A 7591   3.365  10.199   8.980 -0.1257 -0.1082 -0.4537
  475loPI   C2A 7592   3.367  10.145   8.555 -0.2770  0.1869 -0.2164
  475loPI   C3A 7593   3.485  10.052   8.166 -0.2066  0.1994  0.1165
  475loPI   C4A 7594   3.509   9.719   7.746 -0.1607  0.2095  0.0887
  475loPI   C5A 7595   3.805   9.484   7.504  0.0034  0.2416  0.2772
  475loPI   C6A 7596   3.929   9.121   7.299 -0.5677 -0.4184 -0.3312
  475loPI   C1B 7597   3.539  10.583   8.675  0.0956 -0.1736  0.0510
  475loPI   C2B 7598   3.716  10.507   8.232  0.1739  0.1894 -0.2777
  475loPI   C3B 7599   3.662  10.300   7.770 -0.2661 -0.2197 -0.0972
  475loPI   C4B 7600   3.897  10.353   7.384 -0.3530  0.2055 -0.3557
  476loPI    C1 7601  15.546   9.099   9.776  0.1045  0.1204 -0.0180
  476loPI    C2 7602  15.863   9.296   9.920  0.1454  0.0587 -0.0230
  476loPI    C3 7603  15.715   8.984  10.120  0.1883 -0.0134 -0.1028
  476loPI   PO4 7604  15.671   9.263   9.431 -0.1188  0.0977  0.1406
  476loPI   GL1 7605  15.910   9.152   9.176  0.1442 -0.1583 -0.3389
  476loPI   GL2 7606  16.071   9.411   9.042  0.0119  0.0782  0.3922
  476loPI   C1A 7607  15.813   9.206   8.708 -0.3347  0.0111 -0.1322
  476loPI   C2A 7608  15.809   9.439   8.283 -0.0692  0.0967 -0.1028
  476loPI   C3A 7609  15.867   9.496   7.848 -0.2463 -0.0906 -0.3025
  476loPI   C4A 7610  16.126   9.476   7.442  0.1313 -0.0251  0.2440
  476loPI   C5A 7611  16.060   9.702   7.077  0.2013 -0.0238 -0.1114
  476loPI   C6A 7612  15.922   9.676   6.622 -0.0323 -0.3024  0.1360
  476loPI   C1B 7613  15.951   9.730   8.688  0.3470  0.0660 -0.2434
  476loPI   C2B 7614  16.141   9.859   8.282 -0.0460  0.1100 -0.0628
  476loPI   C3B 7615  16.378   9.857   7.829 -0.0768 -0.0845  0.2530
  476loPI   C4B 7616  16.406   9.984   7.395 -0.4614  0.1067  0.1475
  477loPI    C1 7617  10.369   8.020  10.023 -0.0776 -0.0671  0.0357
  477loPI    C2 7618  10.318   7.746  10.310  0.1286 -0.2907 -0.1369
  477loPI    C3 7619  10.529   8.078  10.385 -0.1843 -0.1391  0.0948
  477loPI   PO4 7620  10.230   7.915   9.863 -0.2047  0.1676  0.3126
  477loPI   GL1 7621  10.381   7.769   9.419  0.1673 -0.0740  0.2178
  477loPI   GL2 7622  10.155   7.727   9.285  0.3084 -0.1988 -0.1404
  477loPI   C1A 7623  10.431   7.933   8.972  0.1871 -0.3453  0.0205
  477loPI   C2A 7624  10.395   7.859   8.592 -0.0319 -0.3473  0.2193
  477loPI   C3A 7625  10.233   7.692   8.296  0.1789  0.1183  0.0761
  477loPI   C4A 7626  10.450   7.518   8.001  0.0034 -0.1195 -0.0237
  477loPI   C5A 7627  10.693   7.485   7.584 -0.1342  0.0598 -0.0500
  477loPI   C6A 7628  10.706   7.463   7.205 -0.0267  0.3121 -0.2780
  477loPI   C1B 7629  10.124   7.502   8.854 -0.1399 -0.4196  0.0571
  477loPI   C2B 7630  10.274   7.141   8.664 -0.0185  0.0773 -0.0533
  477loPI   C3B 7631  10.310   7.098   8.284 -0.1328  0.1945 -0.0144
  477loPI   C4B 7632  10.439   6.969   7.911 -0.0804 -0.2719 -0.0396
  478loPI    C1 7633   8.779   3.786   9.813  0.2972  0.1922 -0.0855
  478loPI    C2 7634   9.153   3.666   9.890  0.1106 -0.2064  0.2359
  478loPI    C3 7635   9.000   3.981  10.084  0.2048 -0.1796  0.2670
  478loPI   PO4 7636   8.854   3.798   9.469 -0.0462 -0.0837 -0.2674
  478loPI   GL1 7637   8.897   3.882   9.098  0.1484 -0.0837  0.2191
  478loPI   GL2 7638   8.584   4.023   9.048  0.1112 -0.0095 -0.3176
  478loPI   C1A 7639   9.003   3.902   8.753  0.1022  0.0509 -0.2027
  478loPI   C2A 7640   9.137   3.914   8.347 -0.0414 -0.0934 -0.1060
  478loPI   C3A 7641   9.166   3.792   8.002 -0.0230  0.0246 -0.1649
  478loPI   C4A 7642   9.310   3.756   7.685 -0.3547 -0.2279  0.1029
  478loPI   C5A 7643   9.204   3.842   7.238  0.2909  0.1600  0.0354
  478loPI   C6A 7644   8.924   3.503   7.085  0.1525 -0.1570 -0.0621
  478loPI   C1B 7645   8.546   3.957   8.650 -0.1206  0.0593 -0.4187
  478loPI   C2B 7646   8.662   3.948   8.229  0.2049  0.0946  0.2008
  478loPI   C3B 7647   8.726   4.189   7.940 -0.1961 -0.1304  0.0928
  478loPI   C4B 7648   8.562   4.358   7.566  0.2857 -0.1821  0.1164
  479loPI    C1 7649  16.396  10.017   9.573 -0.1745  0.0337 -0.0323
  479loPI    C2 7650  16.694  10.207   9.386 -0.1492 -0.0096 -0.0359
  479loPI    C3 7651  16.314  10.280   9.283 -0.1445  0.1172  0.0344
  479loPI   PO4 7652  16.565   9.735   9.700 -0.2647  0.0711 -0.0142
  479loPI   GL1 7653  16.669   9.640   9.260 -0.1967  0.0624  0.1466
  479loPI   GL2 7654  16.882   9.867   9.059  0.0418 -0.1168  0.2177
  479loPI   C1A 7655  16.575   9.509   8.815  0.1304  0.1090  0.0704
  479loPI   C2A 7656  16.548   9.524   8.288  0.3082 -0.2567  0.0926
  479loPI   C3A 7657  16.752   9.335   7.929  0.0573  0.0219 -0.0930
  479loPI   C4A 7658  16.673   9.282   7.509  0.0879 -0.3122  0.0547
  479loPI   C5A 7659  16.616   9.547   7.068 -0.0341 -0.0637  0.1108
  479loPI   C6A 7660  16.820   9.864   6.995 -0.4099  0.0878  0.1518
  479loPI   C1B 7661  16.995  10.128   8.718 -0.0428  0.1044 -0.0461
  479loPI   C2B 7662  17.397  10.355   8.655 -0.1298 -0.0450  0.0662
  479loPI   C3B 7663  17.642  10.503   8.304  0.1547  0.0296 -0.1121
  479loPI   C4B 7664  17.873  10.613   7.926 -0.1775  0.0945 -0.0905
  480loPI    C1 7665  11.536  11.003  10.180  0.0204 -0.1739 -0.0039
  480loPI    C2 7666  11.476  11.352  10.366 -0.0271 -0.1260 -0.1079
  480loPI    C3 7667  11.541  11.019  10.580 -0.0409 -0.0645 -0.0071
  480loPI   PO4 7668  11.647  11.040  10.054 -0.1990 -0.0411  0.1137
  480loPI   GL1 7669  11.666  11.109   9.654  0.2432  0.0483  0.0128
  480loPI   GL2 7670  11.898  11.344   9.549  0.0320  0.3312 -0.1362
  480loPI   C1A 7671  11.818  11.090   9.112 -0.0883 -0.1459 -0.1166
  480loPI   C2A 7672  11.726  11.296   8.757 -0.2458 -0.0971 -0.1324
  480loPI   C3A 7673  11.440  11.511   8.430  0.2018 -0.1110  0.1396
  480loPI   C4A 7674  11.357  11.824   8.127  0.2418  0.5387  0.2088
  480loPI   C5A 7675  11.431  11.834   7.764 -0.1743 -0.1952  0.1126
  480loPI   C6A 7676  11.526  12.050   7.434 -0.3063  0.1396 -0.1743
  480loPI   C1B 7677  12.232  11.375   9.275  0.0235 -0.0332  0.1484
  480loPI   C2B 7678  12.183  11.364   8.860  0.1913 -0.3297  0.0633
  480loPI   C3B 7679  12.164  11.195   8.476 -0.2850  0.1592 -0.0183
  480loPI   C4B 7680  11.729  11.045   8.326 -0.1455  0.1513  0.0428
  481loPI    C1 7681  14.662  10.983   9.755  0.5669  0.1814  0.4398
  481loPI    C2 7682  14.513  10.808  10.083 -0.1019 -0.0439  0.0356
  481loPI    C3 7683  14.486  11.205  10.038 -0.3694 -0.0552  0.0802
  481loPI   PO4 7684  14.650  10.792   9.472  0.2517 -0.1167  0.0390
  481loPI   GL1 7685  14.913  10.568   9.205  0.1143 -0.0617  0.0668
  481loPI   GL2 7686  15.184  10.523   9.119 -0.4915  0.1118  0.1243
  481loPI   C1A 7687  15.028  10.829   8.719  0.4129 -0.0432 -0.0117
  481loPI   C2A 7688  14.867  10.826   8.310 -0.0904 -0.7003 -0.2964
  481loPI   C3A 7689  14.782  10.854   7.914  0.1579  0.4040 -0.1597
  481loPI   C4A 7690  14.986  11.170   7.631 -0.4601 -0.3232  0.1182
  481loPI   C5A 7691  15.199  11.069   7.247 -0.0667  0.2995 -0.0493
  481loPI   C6A 7692  15.295  10.968   6.805 -0.2885 -0.3197 -0.2850
  481loPI   C1B 7693  15.094  10.244   8.773  0.2152 -0.2164 -0.0963
  481loPI   C2B 7694  14.828  10.344   8.455  0.0638  0.1450  0.0766
  481loPI   C3B 7695  14.595  10.446   8.070  0.4890 -0.0470 -0.2757
  481loPI   C4B 7696  14.345  10.526   7.664 -0.2003 -0.0079  0.7059
  482loPI    C1 7697   7.107   5.249  10.123  0.1705  0.2558 -0.0231
  482loPI    C2 7698   7.114   5.617  10.279 -0.0452  0.1681  0.1987
  482loPI    C3 7699   6.979   5.309  10.497 -0.0529 -0.0097 -0.0536
  482loPI   PO4 7700   7.311   5.276   9.904 -0.0659 -0.0779 -0.0335
  482loPI   GL1 7701   7.320   5.181   9.437 -0.1919 -0.3703  0.2332
  482loPI   GL2 7702   7.303   4.906   9.309 -0.4182 -0.2355 -0.1400
  482loPI   C1A 7703   7.012   5.128   9.030 -0.0013  0.0699  0.1385
  482loPI   C2A 7704   6.758   5.179   8.624  0.2304  0.2645 -0.1283
  482loPI   C3A 7705   6.715   5.080   8.233  0.0936 -0.2056 -0.0523
  482loPI   C4A 7706   6.755   4.832   7.837 -0.2243 -0.0777  0.2189
  482loPI   C5A 7707   6.833   4.861   7.349 -0.0405  0.0342 -0.1926
  482loPI   C6A 7708   7.125   4.755   6.938 -0.0995 -0.0056  0.1414
  482loPI   C1B 7709   7.185   4.693   8.947 -0.2209 -0.2775  0.0279
  482loPI   C2B 7710   7.190   4.951   8.514  0.3649  0.0584 -0.0118
  482loPI   C3B 7711   7.194   4.841   8.093 -0.0314  0.3729  0.1338
  482loPI   C4B 7712   7.236   4.906   7.671  0.0888  0.1156  0.0871
  483loPI    C1 7713  15.054  11.295   9.881  0.0334 -0.0704 -0.0051
  483loPI    C2 7714  14.876  11.445  10.206 -0.4900 -0.1629 -0.2392
  483loPI    C3 7715  14.931  11.050  10.172  0.3482 -0.0964  0.1098
  483loPI   PO4 7716  14.923  11.430   9.669 -0.2824  0.1912  0.0239
  483loPI   GL1 7717  14.782  11.268   9.305 -0.1393  0.5207  0.1907
  483loPI   GL2 7718  14.500  11.583   9.189  0.1273  0.0285 -0.0012
  483loPI   C1A 7719  14.715  11.162   8.936 -0.0967 -0.2094 -0.1213
  483loPI   C2A 7720  14.725  11.279   8.556 -0.1059 -0.1516  0.1486
  483loPI   C3A 7721  14.921  11.297   8.257 -0.1922  0.0491  0.2446
  483loPI   C4A 7722  15.039  11.614   7.960  0.1558 -0.2485 -0.1458
  483loPI   C5A 7723  15.308  11.775   7.690 -0.2683  0.4780 -0.0649
  483loPI   C6A 7724  15.702  11.960   7.721  0.0457 -0.1615 -0.1394
  483loPI   C1B 7725  14.379  11.723   8.829 -0.0074  0.0407  0.1655
  483loPI   C2B 7726  14.225  11.876   8.374  0.2811  0.1894 -0.0266
  483loPI   C3B 7727  14.083  11.594   8.015  0.0630  0.1610 -0.0862
  483loPI   C4B 7728  13.937  11.446   7.563 -0.1016  0.0651 -0.0056
  484loPI    C1 7729  13.598   5.104   9.974  0.2324  0.0203 -0.1759
  484loPI    C2 7730  13.940   4.930  10.090  0.0604 -0.2403 -0.0491
  484loPI    C3 7731  13.735   5.159  10.345  0.0184 -0.2786 -0.0484
  484loPI   PO4 7732  13.643   5.047   9.659  0.1373 -0.2125  0.0192
  484loPI   GL1 7733  13.903   4.874   9.342  0.1441  0.1604  0.2842
  484loPI   GL2 7734  14.196   4.636   9.288 -0.0179  0.2503 -0.0537
  484loPI   C1A 7735  13.879   4.968   8.849 -0.3416 -0.3253 -0.1947
  484loPI   C2A 7736  13.876   4.972   8.445  0.4123  0.0776 -0.2296
  484loPI   C3A 7737  13.882   4.979   8.071  0.5103  0.1316  0.0978
  484loPI   C4A 7738  13.855   5.186   7.801  0.0197  0.0053  0.0325
  484loPI   C5A 7739  13.989   5.124   7.401  0.1869  0.0174  0.0625
  484loPI   C6A 7740  14.114   4.819   7.099  0.1380  0.0619  0.0395
  484loPI   C1B 7741  14.164   4.564   8.828  0.2185  0.3603 -0.2142
  484loPI   C2B 7742  14.157   4.522   8.376 -0.1413 -0.3003  0.1972
  484loPI   C3B 7743  14.184   4.417   8.025 -0.0096 -0.2770  0.1434
  484loPI   C4B 7744  14.160   4.634   7.635 -0.2165 -0.0085 -0.2681
  485loPI    C1 7745   1.863  13.260   9.881 -0.1991 -0.0240  0.0298
  485loPI    C2 7746   2.000  13.165  10.245 -0.0508 -0.0875 -0.0415
  485loPI    C3 7747   2.203  13.422  10.016 -0.0604 -0.1679 -0.1412
  485loPI   PO4 7748   1.734  13.008   9.703 -0.0056  0.0153  0.1289
  485loPI   GL1 7749   1.716  12.918   9.269  0.0212 -0.3109 -0.4934
  485loPI   GL2 7750   1.612  12.627   9.177  0.1458  0.2237 -0.0013
  485loPI   C1A 7751   1.996  13.098   8.944  0.1450 -0.0679  0.2458
  485loPI   C2A 7752   2.101  13.415   8.680 -0.0352 -0.4408 -0.1170
  485loPI   C3A 7753   1.966  13.550   8.269 -0.0204  0.2611  0.1582
  485loPI   C4A 7754   1.927  13.723   7.976 -0.2002  0.1405  0.1508
  485loPI   C5A 7755   1.681  14.027   7.743 -0.1032  0.0275 -0.0732
  485loPI   C6A 7756   1.379  14.171   7.431  0.0121  0.1529 -0.4768
  485loPI   C1B 7757   1.633  12.776   8.817 -0.0343 -0.0933 -0.1872
  485loPI   C2B 7758   1.965  12.672   8.492 -0.1194 -0.5900  0.0372
  485loPI   C3B 7759   2.037  12.708   8.072  0.0963  0.0652  0.4143
  485loPI   C4B 7760   2.220  12.585   7.666  0.1684  0.1109 -0.0127
  486loPI    C1 7761  11.833  14.837  10.177  0.2293  0.1264  0.0926
  486loPI    C2 7762  11.694  15.116  10.428 -0.1524 -0.2161  0.2746
  486loPI    C3 7763  11.983  14.866  10.547  0.2357  0.1313  0.0896
  486loPI   PO4 7764  11.576  14.733  10.061  0.1439  0.3984  0.1291
  486loPI   GL1 7765  11.525  14.693   9.599 -0.1054  0.0764  0.0067
  486loPI   GL2 7766  11.310  14.838   9.613  0.0452  0.1612  0.3126
  486loPI   C1A 7767  11.317  14.415   9.303 -0.3120  0.0942  0.0713
  486loPI   C2A 7768  11.577  14.266   9.097 -0.0322  0.1027  0.2666
  486loPI   C3A 7769  11.867  14.198   8.729 -0.1076  0.1486 -0.1589
  486loPI   C4A 7770  11.832  14.133   8.307  0.3964  0.0968  0.1161
  486loPI   C5A 7771  11.986  13.849   8.028  0.1448 -0.0778 -0.3399
  486loPI   C6A 7772  12.087  13.500   7.705 -0.1195  0.3150  0.0542
  486loPI   C1B 7773  11.310  15.015   9.202  0.2090  0.2169 -0.1804
  486loPI   C2B 7774  11.131  14.863   8.731 -0.1613  0.0275 -0.1380
  486loPI   C3B 7775  10.815  14.651   8.419  0.0328  0.1940 -0.2049
  486loPI   C4B 7776  10.453  14.559   8.242 -0.1315 -0.0870 -0.1999
  487loPI    C1 7777   6.007  16.829   9.747 -0.0050  0.0838 -0.0749
  487loPI    C2 7778   5.877  17.000  10.085  0.1114 -0.0225  0.0249
  487loPI    C3 7779   6.216  17.127   9.913  0.2448 -0.2080  0.1474
  487loPI   PO4 7780   5.904  16.604   9.770  0.0732 -0.1646 -0.1103
  487loPI   GL1 7781   5.946  16.357   9.442 -0.3232 -0.0578 -0.2024
  487loPI   GL2 7782   5.944  15.966   9.437  0.3322  0.0337  0.0498
  487loPI   C1A 7783   5.827  16.376   9.027 -0.2090  0.1594  0.0828
  487loPI   C2A 7784   5.851  16.270   8.558  0.2120 -0.1810 -0.2416
  487loPI   C3A 7785   5.805  16.361   8.230 -0.2838 -0.1156  0.0215
  487loPI   C4A 7786   5.858  16.293   7.717  0.2073 -0.1475 -0.0999
  487loPI   C5A 7787   5.735  16.440   7.334 -0.0600  0.0922  0.1573
  487loPI   C6A 7788   6.078  16.695   7.076  0.0958 -0.3213  0.1182
  487loPI   C1B 7789   5.709  15.881   9.103  0.1544 -0.0267  0.0333
  487loPI   C2B 7790   5.644  15.883   8.756  0.0946 -0.0209 -0.0971
  487loPI   C3B 7791   5.750  15.856   8.357 -0.0995  0.1216  0.1370
  487loPI   C4B 7792   5.743  15.870   7.914 -0.1406  0.1435 -0.0598
  488loPI    C1 7793   2.556  18.004  10.071  0.2555 -0.0370  0.1216
  488loPI    C2 7794   2.251  17.855  10.282  0.1939  0.0669  0.1064
  488loPI    C3 7795   2.626  17.756  10.376  0.1489 -0.1803  0.0310
  488loPI   PO4 7796   2.435  18.303  10.016  0.0213  0.0961  0.1375
  488loPI   GL1 7797   2.543  18.472   9.668 -0.3207 -0.1712  0.1487
  488loPI   GL2 7798   2.860  18.600   9.496 -0.2297 -0.2591  0.2283
  488loPI   C1A 7799   2.487  18.408   9.211 -0.0557  0.1200 -0.2817
  488loPI   C2A 7800   2.319  18.443   8.863  0.4632 -0.3438  0.0398
  488loPI   C3A 7801   2.411  18.265   8.502 -0.0647  0.1556  0.4467
  488loPI   C4A 7802   2.694  18.061   8.219 -0.1278 -0.2813  0.4108
  488loPI   C5A 7803   2.893  18.052   8.019  0.0631 -0.0391 -0.2669
  488loPI   C6A 7804   3.193  18.476   7.919  0.1161  0.0233  0.0003
  488loPI   C1B 7805   3.055  18.680   9.027 -0.5447  0.0917 -0.1416
  488loPI   C2B 7806   3.263  18.832   8.667 -0.3533  0.1286  0.2240
  488loPI   C3B 7807   3.405  18.981   8.297 -0.0465  0.2582 -0.0418
  488loPI   C4B 7808   3.540  18.969   7.927 -0.3741  0.1390  0.1243
  489loPI    C1 7809  10.928  17.314  10.462  0.2406  0.1280  0.3530
  489loPI    C2 7810  10.800  17.228  10.832 -0.1640  0.0144  0.1914
  489loPI    C3 7811  10.623  17.518  10.621  0.0334  0.0462  0.0673
  489loPI   PO4 7812  10.941  17.055  10.306 -0.0506  0.0934 -0.1734
  489loPI   GL1 7813  10.943  17.161   9.821  0.1157 -0.0238 -0.1792
  489loPI   GL2 7814  11.004  17.466   9.636 -0.3774  0.1059 -0.0193
  489loPI   C1A 7815  11.090  17.099   9.248  0.0052 -0.0088 -0.1727
  489loPI   C2A 7816  10.991  17.178   8.846  0.3112  0.2115  0.0327
  489loPI   C3A 7817  11.094  17.262   8.435 -0.3056  0.2552  0.2688
  489loPI   C4A 7818  11.550  17.156   8.268  0.1709  0.0834 -0.2259
  489loPI   C5A 7819  11.700  16.961   7.870  0.0143 -0.1617 -0.0204
  489loPI   C6A 7820  11.678  16.892   7.510  0.0657 -0.3164 -0.3792
  489loPI   C1B 7821  10.830  17.560   9.390 -0.4668  0.1668  0.0995
  489loPI   C2B 7822  10.566  17.278   9.222  0.0284 -0.2486 -0.3422
  489loPI   C3B 7823  10.496  17.044   8.887 -0.0261 -0.1230  0.1270
  489loPI   C4B 7824  10.711  16.767   8.570 -0.1175 -0.2362 -0.0341
  490loPI    C1 7825   9.967  13.058   9.864 -0.2815  0.0145 -0.3033
  490loPI    C2 7826  10.284  13.173  10.078 -0.4667 -0.2022  0.0989
  490loPI    C3 7827  10.261  13.266   9.690 -0.0684  0.0958  0.1395
  490loPI   PO4 7828   9.763  12.860  10.056 -0.1942 -0.2442 -0.0637
  490loPI   GL1 7829   9.435  12.519   9.848 -0.0436 -0.1175  0.4502
  490loPI   GL2 7830   9.336  12.900   9.809  0.0781  0.2042 -0.3235
  490loPI   C1A 7831   9.401  12.414   9.432 -0.1093 -0.1627 -0.2283
  490loPI   C2A 7832   9.502  12.000   9.160  0.0447 -0.0200  0.1732
  490loPI   C3A 7833   9.217  11.728   8.794  0.0189  0.1242  0.0194
  490loPI   C4A 7834   9.369  11.570   8.351 -0.1460  0.1647 -0.0630
  490loPI   C5A 7835   9.531  11.172   8.137 -0.1611  0.0719 -0.2453
  490loPI   C6A 7836   9.774  10.954   7.896  0.2971 -0.0536 -0.3109
  490loPI   C1B 7837   9.288  12.971   9.469  0.0810 -0.0036  0.0031
  490loPI   C2B 7838   9.203  13.322   9.069 -0.0674  0.3895 -0.0486
  490loPI   C3B 7839   9.475  13.507   8.708 -0.2276  0.1609 -0.1031
  490loPI   C4B 7840   9.717  13.689   8.399 -0.2546 -0.3212 -0.1294
  491loPI    C1 7841   6.398  16.792  10.215  0.5000  0.2465 -0.1520
  491loPI    C2 7842   6.433  16.471  10.451 -0.1469  0.1155 -0.2149
  491loPI    C3 7843   6.508  16.836  10.597  0.0320 -0.0127  0.0206
  491loPI   PO4 7844   6.458  16.630   9.999  0.0679 -0.0770  0.1762
  491loPI   GL1 7845   6.436  16.570   9.560  0.1911  0.1689  0.2288
  491loPI   GL2 7846   6.450  16.937   9.504 -0.2947 -0.3400  0.1035
  491loPI   C1A 7847   6.626  16.583   9.071 -0.1578 -0.0468 -0.3897
  491loPI   C2A 7848   6.626  16.755   8.697 -0.2572  0.0243  0.2769
  491loPI   C3A 7849   6.780  16.720   8.304  0.2127 -0.2086  0.2194
  491loPI   C4A 7850   6.918  16.463   8.051 -0.1553 -0.1794  0.0519
  491loPI   C5A 7851   6.800  16.434   7.647 -0.1141 -0.0964 -0.3273
  491loPI   C6A 7852   6.750  16.250   7.349  0.0820 -0.1750 -0.0180
  491loPI   C1B 7853   6.653  17.034   9.124 -0.4577  0.1238 -0.1065
  491loPI   C2B 7854   6.657  17.306   8.818  0.0569 -0.0428 -0.0450
  491loPI   C3B 7855   6.558  17.396   8.426 -0.0506 -0.2364  0.1234
  491loPI   C4B 7856   6.526  17.383   8.086  0.2899  0.1680 -0.0725
  492loPI    C1 7857   8.834  14.226  10.297 -0.1917  0.2739  0.0179
  492loPI    C2 7858   8.556  13.973  10.432  0.2382 -0.1333  0.1704
  492loPI    C3 7859   8.873  14.061  10.659  0.2914  0.2421 -0.0410
  492loPI   PO4 7860   8.768  14.184  10.014  0.2841  0.0862  0.1745
  492loPI   GL1 7861   8.947  14.032   9.664  0.1380 -0.2345  0.2751
  492loPI   GL2 7862   8.838  13.753   9.585 -0.1839 -0.3722  0.2394
  492loPI   C1A 7863   9.022  14.247   9.258 -0.0647 -0.0023  0.3660
  492loPI   C2A 7864   8.892  14.249   8.811  0.1393 -0.1791 -0.1189
  492loPI   C3A 7865   8.496  14.167   8.546 -0.1545 -0.0136  0.2336
  492loPI   C4A 7866   8.248  13.917   8.308 -0.5187  0.0498 -0.1686
  492loPI   C5A 7867   8.119  13.810   7.945  0.0702  0.2104 -0.0353
  492loPI   C6A 7868   8.152  13.436   7.767 -0.0323 -0.0377 -0.1392
  492loPI   C1B 7869   8.817  13.559   9.203  0.3658 -0.1238 -0.0386
  492loPI   C2B 7870   8.561  13.471   8.880  0.2376 -0.0108  0.1019
  492loPI   C3B 7871   8.417  13.345   8.543 -0.3350 -0.0822  0.0943
  492loPI   C4B 7872   8.635  13.408   8.153  0.3340 -0.0960 -0.0420
  493loPI    C1 7873  12.319   0.597   9.903 -0.1463  0.1360 -0.0253
  493loPI    C2 7874  12.714   0.600   9.965 -0.1235 -0.2472 -0.1256
  493loPI    C3 7875  12.463   0.621  10.275 -0.0212 -0.3557 -0.0343
  493loPI   PO4 7876  12.276   0.445   9.746 -0.1261 -0.0516 -0.4167
  493loPI   GL1 7877  12.356   0.426   9.294  0.0944 -0.0985 -0.4237
  493loPI   GL2 7878  12.619   0.589   9.470  0.3125 -0.1140 -0.0817
  493loPI   C1A 7879  12.484   0.309   8.884 -0.0519  0.0212  0.1400
  493loPI   C2A 7880  12.434   0.290   8.423  0.1744 -0.1663  0.3506
  493loPI   C3A 7881  12.258   0.087   8.063  0.0046 -0.0306  0.1073
  493loPI   C4A 7882  12.317   0.314   7.754 -0.2390  0.0071  0.0628
  493loPI   C5A 7883  12.464   0.496   7.515  0.2302 -0.2421  0.3550
  493loPI   C6A 7884  12.407   0.693   7.252 -0.2096  0.1447  0.0986
  493loPI   C1B 7885  12.762   0.672   9.064  0.1570 -0.2714 -0.0193
  493loPI   C2B 7886  12.830   0.630   8.608  0.1218 -0.1641  0.0062
  493loPI   C3B 7887  12.812   0.558   8.237  0.2991  0.1887 -0.0260
  493loPI   C4B 7888  12.533   0.714   7.923  0.0726 -0.1325  0.0895
  494loPI    C1 7889   4.183  12.693  10.285  0.0100  0.1904 -0.1067
  494loPI    C2 7890   4.398  12.358  10.315  0.0295  0.2012 -0.1246
  494loPI    C3 7891   4.451  12.654  10.579 -0.2207  0.0592  0.0900
  494loPI   PO4 7892   4.157  12.737  10.003  0.3069  0.0571 -0.0694
  494loPI   GL1 7893   4.255  12.705   9.601  0.0569 -0.1767  0.3420
  494loPI   GL2 7894   4.095  12.519   9.415 -0.3356 -0.0779  0.0984
  494loPI   C1A 7895   4.472  12.904   9.259  0.0502 -0.2519 -0.0900
  494loPI   C2A 7896   4.357  13.115   8.857 -0.2958 -0.1849 -0.1714
  494loPI   C3A 7897   4.299  13.156   8.447 -0.0380 -0.0131  0.2371
  494loPI   C4A 7898   4.079  13.125   7.938 -0.3711 -0.3248  0.0374
  494loPI   C5A 7899   3.799  13.253   7.519 -0.2657  0.0821  0.4667
  494loPI   C6A 7900   3.625  13.594   7.334  0.0442 -0.1444 -0.1862
  494loPI   C1B 7901   3.949  12.656   8.962 -0.0071 -0.1292  0.0337
  494loPI   C2B 7902   3.781  12.678   8.549  0.1671 -0.1253  0.2766
  494loPI   C3B 7903   3.631  12.812   8.101 -0.1334  0.1942  0.1917
  494loPI   C4B 7904   3.713  12.759   7.655  0.0308  0.1733  0.0587
  495loPI    C1 7905  18.326  15.534   9.626 -0.0084 -0.0360  0.1340
  495loPI    C2 7906  18.460  15.181   9.755 -0.0352 -0.0391  0.1535
  495loPI    C3 7907  18.225  15.403   9.990  0.0926  0.0539  0.1949
  495loPI   PO4 7908  18.250  15.439   9.268  0.2165 -0.1929  0.0416
  495loPI   GL1 7909  18.378  15.589   8.949 -0.0009 -0.0386 -0.2534
  495loPI   GL2 7910  18.515  15.889   8.868 -0.1019 -0.0566 -0.2727
  495loPI   C1A 7911  18.273  15.588   8.498  0.0106  0.1892  0.1019
  495loPI   C2A 7912  17.999  15.733   8.337  0.2352 -0.1390  0.1188
  495loPI   C3A 7913  17.823  15.695   7.932 -0.2515  0.4459 -0.1590
  495loPI   C4A 7914  17.841  15.791   7.538  0.3640 -0.2575  0.2672
  495loPI   C5A 7915  17.435  16.062   7.444 -0.1485  0.1188  0.3365
  495loPI   C6A 7916  17.047  16.233   7.264 -0.1804 -0.0604  0.2000
  495loPI   C1B 7917  18.464  16.036   8.433 -0.0697  0.2937  0.2310
  495loPI   C2B 7918  18.255  16.144   8.032 -0.3239 -0.0398  0.0168
  495loPI   C3B 7919  18.179  16.342   7.501 -0.1515 -0.0352 -0.2127
  495loPI   C4B 7920  18.018  16.061   7.175 -0.1512 -0.0635 -0.2485
  496loPI    C1 7921   7.100   0.521  10.168  0.0128  0.0682  0.1559
  496loPI    C2 7922   6.859   0.552  10.485  0.1139  0.0836  0.2319
  496loPI    C3 7923   6.993   0.882  10.303  0.0761  0.0750  0.1885
  496loPI   PO4 7924   6.991   0.451   9.939 -0.2136 -0.3845 -0.0613
  496loPI   GL1 7925   7.073   0.542   9.477 -0.1447 -0.0055  0.1563
  496loPI   GL2 7926   7.346   0.625   9.349  0.3270  0.1581 -0.0127
  496loPI   C1A 7927   7.037   0.462   9.053  0.0354 -0.3038 -0.0161
  496loPI   C2A 7928   7.290   0.448   8.751 -0.0172 -0.0990 -0.3589
  496loPI   C3A 7929   7.352   0.325   8.320  0.0792 -0.1898  0.3711
  496loPI   C4A 7930   7.248   0.304   7.900  0.0497 -0.1788  0.0437
  496loPI   C5A 7931   7.163   0.365   7.517  0.2600  0.1961  0.0372
  496loPI   C6A 7932   6.872   0.709   7.369  0.0394  0.3686  0.0368
  496loPI   C1B 7933   7.594   0.839   8.987 -0.3284 -0.1910  0.1664
  496loPI   C2B 7934   7.463   0.901   8.571 -0.1794 -0.1311 -0.0786
  496loPI   C3B 7935   7.325   0.808   8.230  0.0068  0.3842 -0.0433
  496loPI   C4B 7936   7.370   0.800   7.744  0.1999 -0.2937 -0.0082
  497loPI    C1 7937   2.208  14.797   9.788 -0.0697 -0.0426  0.0975
  497loPI    C2 7938   1.923  14.592   9.980 -0.1599 -0.0183 -0.0097
  497loPI    C3 7939   1.824  14.847   9.687 -0.0703  0.3585  0.2793
  497loPI   PO4 7940   2.410  14.639   9.713  0.2071  0.2533 -0.0381
  497loPI   GL1 7941   2.459  14.659   9.269  0.2379 -0.0780 -0.1780
  497loPI   GL2 7942   2.684  14.846   9.069 -0.0252 -0.2046 -0.2012
  497loPI   C1A 7943   2.342  14.668   8.682 -0.1510 -0.1604 -0.3875
  497loPI   C2A 7944   2.250  14.540   8.308 -0.3036  0.2897 -0.0417
  497loPI   C3A 7945   2.341  14.369   7.905 -0.2703 -0.1593 -0.2202
  497loPI   C4A 7946   2.425  14.422   7.456 -0.0232 -0.2883 -0.3088
  497loPI   C5A 7947   2.607  14.867   7.240  0.3722 -0.0433 -0.0343
  497loPI   C6A 7948   3.039  15.040   7.229 -0.4213 -0.5256 -0.0657
  497loPI   C1B 7949   2.808  14.727   8.670 -0.0708 -0.1622 -0.3212
  497loPI   C2B 7950   2.960  14.694   8.322 -0.0537 -0.1499  0.0779
  497loPI   C3B 7951   3.130  14.808   7.914 -0.2456 -0.0196 -0.0518
  497loPI   C4B 7952   3.198  15.232   7.743 -0.3175  0.1136 -0.0570
  498loPI    C1 7953   3.274  18.540  10.053 -0.2253 -0.0045 -0.0661
  498loPI    C2 7954   3.548  18.829  10.094 -0.0169 -0.2181  0.0671
  498loPI    C3 7955   3.202  18.851  10.293 -0.0403 -0.0160  0.0056
  498loPI   PO4 7956   3.270  18.530   9.803  0.1679 -0.0196 -0.1109
  498loPI   GL1 7957   3.340  18.551   9.367 -0.0323 -0.0920 -0.2857
  498loPI   GL2 7958   3.531  18.376   9.338  0.3705 -0.0878 -0.0318
  498loPI   C1A 7959   3.523  18.854   9.081  0.5093 -0.4380 -0.0964
  498loPI   C2A 7960   3.696  19.178   8.720  0.1772 -0.1753  0.1348
  498loPI   C3A 7961   3.512  19.497   8.462  0.0739 -0.1769 -0.1764
  498loPI   C4A 7962   3.391  19.955   8.182 -0.1395  0.1382 -0.0560
  498loPI   C5A 7963   3.300  20.281   7.797 -0.1524 -0.1945 -0.1923
  498loPI   C6A 7964   3.622  20.575   7.680 -0.1296  0.1692 -0.1125
  498loPI   C1B 7965   3.389  18.343   8.863 -0.2949  0.3137  0.1893
  498loPI   C2B 7966   3.327  18.184   8.374 -0.3195 -0.2753 -0.0883
  498loPI   C3B 7967   3.491  18.012   7.978  0.0613  0.0370 -0.1431
  498loPI   C4B 7968   3.724  17.967   7.612  0.1072 -0.2279  0.1156
  499loPI    C1 7969   7.612   3.649  10.412  0.0257  0.0610  0.1119
  499loPI    C2 7970   7.946   3.501  10.248  0.2278  0.1686  0.4184
  499loPI    C3 7971   7.751   3.291  10.527 -0.0987 -0.0012  0.0697
  499loPI   PO4 7972   7.333   3.706  10.216 -0.0726 -0.2265 -0.0174
  499loPI   GL1 7973   7.193   3.620   9.818  0.3384  0.0414 -0.0724
  499loPI   GL2 7974   7.230   3.414   9.733 -0.0467  0.2415  0.1518
  499loPI   C1A 7975   7.286   3.658   9.287  0.0015 -0.1644  0.0830
  499loPI   C2A 7976   7.183   3.540   8.841  0.0275 -0.2539 -0.1441
  499loPI   C3A 7977   7.093   3.437   8.386  0.1059 -0.1649 -0.3116
  499loPI   C4A 7978   7.279   3.416   8.035  0.2539 -0.1775 -0.1796
  499loPI   C5A 7979   7.459   3.362   7.680 -0.1216 -0.0955 -0.0660
  499loPI   C6A 7980   7.821   3.215   7.543 -0.1381 -0.1694  0.0212
  499loPI   C1B 7981   6.947   3.306   9.260  0.2715 -0.5781 -0.0185
  499loPI   C2B 7982   6.836   3.218   8.842  0.1335 -0.1570  0.1430
  499loPI   C3B 7983   6.622   3.066   8.498  0.1063  0.3306  0.2088
  499loPI   C4B 7984   6.475   2.823   8.214 -0.1667  0.2952 -0.0723
  500loPI    C1 7985   8.241   1.497   9.752  0.0060 -0.1061  0.0192
  500loPI    C2 7986   8.292   1.755  10.053 -0.0626 -0.1158  0.0394
  500loPI    C3 7987   7.954   1.760   9.841  0.0880  0.0609 -0.2012
  500loPI   PO4 7988   8.335   1.551   9.610 -0.2607  0.0641 -0.2641
  500loPI   GL1 7989   8.159   1.787   9.264  0.2342  0.0794  0.0719
  500loPI   GL2 7990   8.422   2.016   9.368  0.2472  0.0634 -0.0088
  500loPI   C1A 7991   7.919   1.777   8.890  0.0833  0.0680  0.0644
  500loPI   C2A 7992   7.975   1.737   8.439  0.0883  0.1850 -0.2914
  500loPI   C3A 7993   7.994   1.511   8.142 -0.3070  0.1581  0.1065
  500loPI   C4A 7994   8.002   1.576   7.721  0.2068 -0.1577  0.0750
  500loPI   C5A 7995   7.772   1.362   7.356 -0.0055  0.1425  0.0818
  500loPI   C6A 7996   7.734   1.050   7.069  0.2377 -0.1168 -0.2054
  500loPI   C1B 7997   8.483   2.069   8.929 -0.0860  0.0617 -0.2714
  500loPI   C2B 7998   8.306   2.194   8.637  0.1550 -0.0007  0.3122
  500loPI   C3B 7999   8.295   2.276   8.235 -0.1046 -0.1519 -0.1194
  500loPI   C4B 8000   8.272   1.987   7.954 -0.0591 -0.1901  0.1506
  501loPI    C1 8001  11.371   9.587   9.749 -0.0064  0.1979  0.0386
  501loPI    C2 8002  11.709   9.797   9.788  0.0270  0.1268  0.1375
  501loPI    C3 8003  11.565   9.591  10.099 -0.0642  0.0917  0.0725
  501loPI   PO4 8004  11.214   9.692   9.608  0.3347 -0.2370  0.0420
  501loPI   GL1 8005  11.218   9.515   9.174 -0.0052  0.0702  0.1689
  501loPI   GL2 8006  11.516   9.441   9.169 -0.2422  0.0543 -0.1244
  501loPI   C1A 8007  11.210   9.643   8.684  0.2882  0.0536 -0.1175
  501loPI   C2A 8008  11.148   9.342   8.450 -0.0232 -0.1516  0.0211
  501loPI   C3A 8009  10.925   9.216   8.196  0.1208 -0.0372  0.0807
  501loPI   C4A 8010  10.960   8.868   7.856  0.2757  0.2856  0.1424
  501loPI   C5A 8011  10.893   8.515   7.400 -0.0302  0.0933 -0.2014
  501loPI   C6A 8012  11.000   8.439   6.959  0.2606 -0.0061  0.1170
  501loPI   C1B 8013  11.731   9.642   8.803  0.1375 -0.1276 -0.2183
  501loPI   C2B 8014  11.768   9.641   8.306  0.0154  0.1821  0.0253
  501loPI   C3B 8015  11.779   9.910   8.040  0.0613 -0.3708  0.0239
  501loPI   C4B 8016  11.790  10.046   7.545 -0.3515 -0.1125 -0.0480
  502loPI    C1 8017   6.605   9.280   9.918  0.0176 -0.1397 -0.0202
  502loPI    C2 8018   6.977   9.144   9.864  0.1044 -0.0131  0.2412
  502loPI    C3 8019   6.908   9.438  10.126 -0.1536  0.0967  0.0546
  502loPI   PO4 8020   6.600   9.267   9.558  0.1328  0.0579 -0.2356
  502loPI   GL1 8021   6.691   9.501   9.148 -0.1851 -0.1169  0.2545
  502loPI   GL2 8022   6.403   9.724   9.218 -0.1015 -0.0410 -0.1623
  502loPI   C1A 8023   6.820   9.400   8.759 -0.0516  0.1166 -0.0753
  502loPI   C2A 8024   6.865   9.031   8.540 -0.0209  0.2511 -0.1030
  502loPI   C3A 8025   6.770   8.692   8.159  0.0189  0.3580  0.1918
  502loPI   C4A 8026   6.487   8.401   7.881  0.0035 -0.1310 -0.2084
  502loPI   C5A 8027   6.564   8.197   7.526 -0.0741  0.2327  0.0545
  502loPI   C6A 8028   6.702   7.816   7.457 -0.0029 -0.2485 -0.0466
  502loPI   C1B 8029   6.551   9.777   8.774  0.1182  0.1475 -0.1923
  502loPI   C2B 8030   6.519   9.703   8.250 -0.4703  0.1962 -0.0371
  502loPI   C3B 8031   6.679   9.514   7.820 -0.0486  0.4526  0.4294
  502loPI   C4B 8032   6.634   9.224   7.487 -0.1350 -0.0605 -0.2945
  503loPI    C1 8033  10.757  18.520  10.220 -0.0465  0.0287  0.0854
  503loPI    C2 8034  10.378  18.431  10.128 -0.0153  0.1644 -0.1852
  503loPI    C3 8035  10.480  18.503  10.508 -0.1504 -0.4034 -0.0330
  503loPI   PO4 8036  10.981  18.496   9.963  0.0669  0.1076 -0.1749
  503loPI   GL1 8037  11.243  18.751   9.683 -0.1291  0.3099  0.0265
  503loPI   GL2 8038  11.454  18.545   9.442  0.1272 -0.0292  0.1370
  503loPI   C1A 8039  10.947  18.691   9.340 -0.1938 -0.2222 -0.2885
  503loPI   C2A 8040  10.916  18.615   8.887  0.4288 -0.1542  0.0258
  503loPI   C3A 8041  10.886  18.532   8.370 -0.2380  0.1794 -0.1041
  503loPI   C4A 8042  10.910  18.354   7.916 -0.1482 -0.3151 -0.2236
  503loPI   C5A 8043  10.990  18.551   7.572  0.0551 -0.0044 -0.2309
  503loPI   C6A 8044  11.027  18.939   7.422  0.1634  0.0299  0.3701
  503loPI   C1B 8045  11.591  18.523   9.003  0.0214 -0.0831  0.1459
  503loPI   C2B 8046  11.704  18.438   8.595  0.2830  0.0801  0.3345
  503loPI   C3B 8047  11.851  18.413   8.264  0.3704 -0.3502  0.1385
  503loPI   C4B 8048  11.993  18.100   7.910 -0.1159 -0.0239 -0.5352
  504loPI    C1 8049  17.478   4.013   9.988  0.0826 -0.0995  0.1784
  504loPI    C2 8050  17.570   4.174  10.342  0.2538 -0.0494  0.1120
  504loPI    C3 8051  17.843   3.962  10.142  0.1534 -0.0886  0.0153
  504loPI   PO4 8052  17.287   4.232   9.898 -0.1962 -0.1659  0.1859
  504loPI   GL1 8053  17.058   4.244   9.422 -0.0192 -0.1584 -0.1312
  504loPI   GL2 8054  17.096   3.927   9.326  0.3891 -0.1274  0.2595
  504loPI   C1A 8055  17.320   4.310   9.027 -0.0242 -0.0314 -0.1595
  504loPI   C2A 8056  17.222   4.183   8.598 -0.3486  0.1693  0.0385
  504loPI   C3A 8057  17.002   4.230   8.144 -0.2995 -0.1158  0.0542
  504loPI   C4A 8058  17.062   4.172   7.707  0.0881  0.0813  0.0365
  504loPI   C5A 8059  17.227   3.837   7.484  0.1300  0.1447 -0.1134
  504loPI   C6A 8060  17.331   3.466   7.438 -0.0022  0.2409  0.3032
  504loPI   C1B 8061  17.529   3.968   9.281  0.2454 -0.1596 -0.1545
  504loPI   C2B 8062  17.613   3.948   8.830 -0.2429 -0.1516 -0.0864
  504loPI   C3B 8063  17.561   3.990   8.346 -0.0680 -0.4501 -0.1402
  504loPI   C4B 8064  17.593   4.000   7.869 -0.0099 -0.0291  0.1190
  505loPI    C1 8065   4.990   3.505  10.635  0.0693 -0.0040 -0.0564
  505loPI    C2 8066   4.721   3.209  10.660  0.0037  0.0436 -0.1928
  505loPI    C3 8067   5.074   3.175  10.846  0.0458 -0.1744 -0.3097
  505loPI   PO4 8068   5.054   3.538  10.342 -0.1131 -0.0657 -0.1818
  505loPI   GL1 8069   5.050   3.711   9.902  0.0534  0.1089  0.0891
  505loPI   GL2 8070   5.257   3.676   9.814 -0.1623  0.1029  0.3334
  505loPI   C1A 8071   4.753   3.573   9.605  0.1403  0.0983  0.2491
  505loPI   C2A 8072   4.791   3.292   9.236 -0.1684 -0.2378 -0.1850
  505loPI   C3A 8073   4.819   3.114   8.893 -0.0409 -0.0915  0.0816
  505loPI   C4A 8074   4.993   3.052   8.495  0.0958  0.0334  0.1020
  505loPI   C5A 8075   4.978   2.890   8.090  0.1523  0.2744  0.0406
  505loPI   C6A 8076   5.095   2.957   7.654 -0.2267 -0.2169  0.3634
  505loPI   C1B 8077   5.262   3.553   9.362 -0.5298 -0.1314 -0.3103
  505loPI   C2B 8078   5.105   3.527   8.919 -0.1815 -0.0710 -0.2465
  505loPI   C3B 8079   5.179   3.747   8.548 -0.1760 -0.1069 -0.3475
  505loPI   C4B 8080   5.346   3.774   8.134  0.0907  0.0508  0.1243
  506loPI    C1 8081  14.289  14.261  10.065 -0.1917 -0.1296  0.0342
  506loPI    C2 8082  14.055  14.327  10.383 -0.2624 -0.2453  0.0068
  506loPI    C3 8083  14.372  14.084  10.414 -0.1202 -0.0566  0.0545
  506loPI   PO4 8084  14.066  14.198   9.887  0.2915 -0.2047 -0.2382
  506loPI   GL1 8085  14.154  14.012   9.485  0.2783 -0.1663 -0.1102
  506loPI   GL2 8086  14.488  14.040   9.578  0.0769  0.0835 -0.0761
  506loPI   C1A 8087  14.073  14.025   9.071 -0.1648 -0.1190 -0.0710
  506loPI   C2A 8088  14.033  14.036   8.682  0.1576 -0.1043  0.1219
  506loPI   C3A 8089  14.117  13.935   8.295  0.0367 -0.1371  0.0944
  506loPI   C4A 8090  14.383  14.055   7.882  0.1079  0.1425 -0.3340
  506loPI   C5A 8091  14.311  14.354   7.572  0.0842  0.2270  0.1176
  506loPI   C6A 8092  13.933  14.510   7.551  0.1259 -0.1890 -0.0318
  506loPI   C1B 8093  14.592  14.106   9.116  0.3464 -0.0640  0.1139
  506loPI   C2B 8094  14.528  14.033   8.716 -0.0576 -0.1437  0.0570
  506loPI   C3B 8095  14.640  13.843   8.326  0.0013 -0.1864 -0.1753
  506loPI   C4B 8096  14.684  13.688   7.952 -0.2014 -0.1838 -0.0279
  507loPI    C1 8097  18.042  10.528   9.898 -0.0570  0.0248 -0.0139
  507loPI    C2 8098  18.224  10.755   9.623  0.0783  0.1338  0.1644
  507loPI    C3 8099  18.438  10.582   9.914 -0.0291 -0.1926  0.0528
  507loPI   PO4 8100  17.859  10.296   9.600 -0.3734  0.0019  0.3632
  507loPI   GL1 8101  17.679  10.266   9.196 -0.0373  0.1691  0.1632
  507loPI   GL2 8102  17.619   9.999   9.048 -0.2916 -0.0882 -0.3947
  507loPI   C1A 8103  17.966  10.248   8.896 -0.1467 -0.1597 -0.0554
  507loPI   C2A 8104  18.171  10.454   8.537  0.2630 -0.2875 -0.1187
  507loPI   C3A 8105  18.378  10.524   8.141 -0.1974  0.4193 -0.0378
  507loPI   C4A 8106  18.363  10.476   7.764  0.1775 -0.1549 -0.4486
  507loPI   C5A 8107  17.964  10.563   7.480 -0.3124 -0.7329 -0.0970
  507loPI   C6A 8108  17.629  10.733   7.060  0.0355 -0.0582 -0.2273
  507loPI   C1B 8109  17.474   9.856   8.606 -0.3266  0.2633  0.0797
  507loPI   C2B 8110  17.346   9.998   8.236 -0.3033  0.0369  0.1647
  507loPI   C3B 8111  17.389   9.945   7.774  0.0295  0.2636 -0.0329
  507loPI   C4B 8112  17.415  10.032   7.372 -0.3312  0.1799  0.0415
  508loPI    C1 8113  17.026  11.288  10.076  0.0895  0.0745  0.0672
  508loPI    C2 8114  16.862  11.019   9.829  0.0018  0.0489  0.1529
  508loPI    C3 8115  17.156  10.910  10.077  0.1804  0.1048 -0.0317
  508loPI   PO4 8116  17.099  11.480   9.971  0.1118 -0.0122 -0.0287
  508loPI   GL1 8117  17.089  11.603   9.494 -0.0169  0.0476 -0.1004
  508loPI   GL2 8118  17.051  11.810   9.322  0.2371 -0.1486 -0.1483
  508loPI   C1A 8119  16.913  11.383   9.111  0.2880 -0.1373 -0.1536
  508loPI   C2A 8120  16.856  11.480   8.739  0.0842 -0.0269  0.1753
  508loPI   C3A 8121  16.867  11.423   8.324  0.0106  0.1472  0.3024
  508loPI   C4A 8122  16.853  11.159   7.961  0.0354 -0.1177 -0.0098
  508loPI   C5A 8123  17.156  10.834   7.749  0.1283  0.1304  0.0342
  508loPI   C6A 8124  17.466  10.576   7.514  0.2240  0.0490  0.3025
  508loPI   C1B 8125  17.060  11.848   8.960 -0.4543 -0.0845 -0.2980
  508loPI   C2B 8126  17.125  11.890   8.527  0.0126 -0.2669  0.2043
  508loPI   C3B 8127  17.072  11.899   8.022  0.1428  0.2798 -0.1432
  508loPI   C4B 8128  16.933  11.753   7.681 -0.3087 -0.1196  0.1116
  509loPI    C1 8129   1.076  18.856  10.143 -0.0381  0.3052  0.1572
  509loPI    C2 8130   0.991  18.563  10.401 -0.0868  0.1381 -0.0456
  509loPI    C3 8131   1.318  18.540  10.173 -0.1011  0.2327 -0.0761
  509loPI   PO4 8132   0.918  18.842   9.902  0.0223 -0.1837 -0.1206
  509loPI   GL1 8133   1.156  19.029   9.571 -0.2175 -0.0433 -0.2926
  509loPI   GL2 8134   1.066  18.799   9.270 -0.1325  0.2821 -0.5448
  509loPI   C1A 8135   1.175  19.350   9.198 -0.1256  0.1888 -0.2175
  509loPI   C2A 8136   1.100  19.393   8.690 -0.2443  0.0362  0.2215
  509loPI   C3A 8137   1.078  19.198   8.271  0.1772  0.1159 -0.3405
  509loPI   C4A 8138   0.996  19.146   7.820  0.1931 -0.3323  0.1145
  509loPI   C5A 8139   1.283  18.963   7.385  0.0148  0.0510 -0.0604
  509loPI   C6A 8140   1.716  19.134   7.189 -0.1752 -0.5784 -0.0012
  509loPI   C1B 8141   1.222  18.790   8.874 -0.2986 -0.0445 -0.2953
  509loPI   C2B 8142   1.273  18.724   8.443  0.1330 -0.2590  0.1014
  509loPI   C3B 8143   1.077  18.340   8.340  0.0521 -0.3451  0.3092
  509loPI   C4B 8144   0.989  18.029   8.621  0.0363 -0.2220  0.2943
  510loPI    C1 8145   6.135   3.583  10.424 -0.1102  0.0930 -0.2010
  510loPI    C2 8146   6.256   3.232  10.276 -0.1588  0.0357 -0.1054
  510loPI    C3 8147   6.523   3.521  10.349 -0.0884 -0.0626  0.0309
  510loPI   PO4 8148   5.885   3.555  10.297 -0.1508  0.0093 -0.1764
  510loPI   GL1 8149   5.856   3.620   9.847 -0.2190 -0.0443  0.4913
  510loPI   GL2 8150   5.763   3.889   9.679  0.1140 -0.2231 -0.2217
  510loPI   C1A 8151   5.791   3.378   9.463  0.3026 -0.3180  0.0493
  510loPI   C2A 8152   5.644   3.504   9.001  0.1069 -0.2033  0.1067
  510loPI   C3A 8153   5.748   3.782   8.673 -0.0773 -0.1493 -0.2074
  510loPI   C4A 8154   5.876   3.874   8.255  0.3108  0.2337  0.2292
  510loPI   C5A 8155   6.011   3.652   7.792 -0.3128  0.2303  0.2644
  510loPI   C6A 8156   5.936   3.629   7.317 -0.0201 -0.0488 -0.0080
  510loPI   C1B 8157   5.957   4.012   9.268 -0.2441  0.0079  0.1160
  510loPI   C2B 8158   6.243   4.334   9.006  0.1394  0.0465  0.2411
  510loPI   C3B 8159   6.322   4.509   8.626 -0.0902 -0.0631 -0.0396
  510loPI   C4B 8160   6.310   4.757   8.279  0.2774  0.0172  0.1823
  511loPI    C1 8161   0.216  14.335   9.993 -0.0198  0.2401 -0.0645
  511loPI    C2 8162   0.180  14.195  10.366  0.0676 -0.0665 -0.1681
  511loPI    C3 8163   0.016  14.547  10.268 -0.2901 -0.1635  0.0594
  511loPI   PO4 8164   0.192  14.043   9.825  0.2410 -0.1482  0.0636
  511loPI   GL1 8165   0.215  13.955   9.433 -0.0066  0.0137  0.3007
  511loPI   GL2 8166   0.110  14.079   9.160 -0.2496 -0.0110 -0.1161
  511loPI   C1A 8167   0.213  13.590   9.066  0.0713 -0.2538 -0.0006
  511loPI   C2A 8168   0.251  13.465   8.694  0.1065  0.0037 -0.6044
  511loPI   C3A 8169   0.348  13.389   8.293 -0.0974 -0.1224  0.1348
  511loPI   C4A 8170   0.409  13.277   7.860  0.0039 -0.0734 -0.1143
  511loPI   C5A 8171   0.422  13.094   7.481 -0.1540  0.4517  0.1919
  511loPI   C6A 8172   0.669  13.085   7.164 -0.2091  0.1366  0.1916
  511loPI   C1B 8173   0.326  13.978   8.767 -0.0390 -0.2044 -0.1524
  511loPI   C2B 8174   0.382  13.971   8.360 -0.3708  0.0137 -0.2263
  511loPI   C3B 8175   0.494  13.762   7.889 -0.0297 -0.1114 -0.0255
  511loPI   C4B 8176   0.748  13.667   7.533 -0.0043 -0.1920  0.0826
  512loPI    C1 8177   6.200   8.209  10.171 -0.0057 -0.1457 -0.3170
  512loPI    C2 8178   5.801   8.187  10.197  0.0017 -0.0111 -0.0523
  512loPI    C3 8179   5.993   8.512  10.331  0.2045 -0.0937 -0.1381
  512loPI   PO4 8180   6.178   8.015   9.941 -0.1006 -0.0921 -0.0958
  512loPI   GL1 8181   6.041   7.790   9.570 -0.1902 -0.0077  0.2168
  512loPI   GL2 8182   5.819   8.104   9.572  0.4176 -0.0043  0.0356
  512loPI   C1A 8183   6.474   7.933   9.321  0.0339 -0.0535 -0.3796
  512loPI   C2A 8184   6.530   8.275   9.124 -0.1238 -0.2288 -0.1898
  512loPI   C3A 8185   6.626   8.415   8.780 -0.1157 -0.3273 -0.0141
  512loPI   C4A 8186   6.960   8.286   8.518 -0.2016  0.0924  0.2206
  512loPI   C5A 8187   6.915   8.175   8.152  0.1242  0.4664  0.0105
  512loPI   C6A 8188   6.732   7.848   7.952  0.0500  0.0643  0.4896
  512loPI   C1B 8189   5.945   8.222   9.212 -0.2316 -0.0558 -0.3153
  512loPI   C2B 8190   6.097   8.380   8.703  0.0659 -0.2764  0.1363
  512loPI   C3B 8191   5.942   8.208   8.284  0.1736  0.0792  0.1330
  512loPI   C4B 8192   5.740   7.958   8.055 -0.0569  0.2891  0.1218
  513loPI    C1 8193   3.035   6.559   9.761  0.1502 -0.2048 -0.0283
  513loPI    C2 8194   2.693   6.414   9.910  0.1331  0.0842  0.2257
  513loPI    C3 8195   3.041   6.236   9.997  0.0764 -0.0345  0.2114
  513loPI   PO4 8196   3.038   6.857   9.661 -0.2569  0.1674 -0.0639
  513loPI   GL1 8197   2.948   6.998   9.271  0.0478  0.1137  0.1699
  513loPI   GL2 8198   3.173   7.170   9.104  0.1562 -0.0747 -0.2403
  513loPI   C1A 8199   2.988   6.805   8.836  0.0273  0.4205  0.2046
  513loPI   C2A 8200   3.036   6.593   8.431  0.0712  0.0827  0.0158
  513loPI   C3A 8201   2.996   6.125   8.102 -0.0136 -0.2304 -0.0839
  513loPI   C4A 8202   2.883   6.123   7.672  0.0765  0.3102 -0.1228
  513loPI   C5A 8203   2.681   6.100   7.191 -0.0489 -0.1860 -0.4950
  513loPI   C6A 8204   2.876   5.933   6.846  0.1089  0.0525 -0.1277
  513loPI   C1B 8205   3.458   7.057   8.759  0.0613  0.3131  0.1357
  513loPI   C2B 8206   3.477   6.848   8.384 -0.3026  0.0395 -0.0380
  513loPI   C3B 8207   3.777   6.674   8.079 -0.0908 -0.0161 -0.3220
  513loPI   C4B 8208   3.657   6.578   7.672 -0.3236 -0.0669  0.1120
  514loPI    C1 8209  10.585   6.101   9.802 -0.0155  0.0398 -0.1255
  514loPI    C2 8210  10.300   6.262  10.032  0.0227 -0.0453 -0.0174
  514loPI    C3 8211  10.453   6.471   9.726  0.1452  0.1644  0.1838
  514loPI   PO4 8212  10.579   5.924   9.764  0.1229  0.4365 -0.3064
  514loPI   GL1 8213  10.543   5.825   9.317  0.0529  0.0021  0.2432
  514loPI   GL2 8214  10.695   6.198   9.310  0.0072 -0.0469 -0.0086
  514loPI   C1A 8215  10.552   5.650   8.883 -0.2328 -0.1041 -0.2310
  514loPI   C2A 8216  10.669   5.466   8.476  0.0685 -0.4756 -0.1813
  514loPI   C3A 8217  10.766   5.427   8.015 -0.2575  0.2347 -0.1116
  514loPI   C4A 8218  10.715   5.314   7.492  0.1203  0.3747 -0.1448
  514loPI   C5A 8219  10.631   5.088   7.185  0.1845  0.3046 -0.2193
  514loPI   C6A 8220  10.420   5.135   6.775 -0.1790  0.0083 -0.2333
  514loPI   C1B 8221  10.636   6.151   8.805 -0.3896  0.2852  0.2424
  514loPI   C2B 8222  10.408   5.939   8.468  0.1182  0.1338 -0.0541
  514loPI   C3B 8223  10.002   5.960   8.265 -0.0178  0.0989 -0.2093
  514loPI   C4B 8224   9.636   5.978   8.210 -0.2703  0.2840  0.2649
  515loPI    C1 8225   1.685  17.458   9.422  0.2380  0.0253 -0.0212
  515loPI    C2 8226   1.848  17.527   9.063 -0.0526  0.4759 -0.0741
  515loPI    C3 8227   1.473  17.388   9.090  0.1560 -0.0878  0.0542
  515loPI   PO4 8228   1.895  17.315   9.585  0.4292  0.2800 -0.2486
  515loPI   GL1 8229   2.371  17.304   9.430 -0.1008 -0.1343  0.1816
  515loPI   GL2 8230   2.234  17.267   9.211  0.1574  0.0182 -0.0954
  515loPI   C1A 8231   2.847  17.382   9.281  0.0868  0.5347  0.0186
  515loPI   C2A 8232   2.980  17.190   8.914 -0.2803  0.1072  0.1223
  515loPI   C3A 8233   3.176  17.201   8.502  0.0289  0.0167  0.4066
  515loPI   C4A 8234   3.252  17.225   8.038 -0.0241 -0.1085 -0.0065
  515loPI   C5A 8235   3.156  17.218   7.615 -0.3332  0.2895  0.0282
  515loPI   C6A 8236   3.424  17.217   7.287  0.0386 -0.4109  0.1537
  515loPI   C1B 8237   2.336  17.310   8.797  0.1640  0.2376 -0.3993
  515loPI   C2B 8238   2.263  17.161   8.368 -0.0456 -0.1601  0.1193
  515loPI   C3B 8239   2.162  17.224   7.966  0.1100 -0.1675 -0.1943
  515loPI   C4B 8240   2.156  17.095   7.577  0.0819  0.0291 -0.1181
  516loPI    C1 8241  12.982  13.327  10.053 -0.0480 -0.2468  0.0425
  516loPI    C2 8242  12.808  13.120  10.347 -0.0386 -0.1102  0.1454
  516loPI    C3 8243  13.191  13.231  10.380 -0.0096 -0.1772  0.0387
  516loPI   PO4 8244  12.927  13.231   9.755  0.0701 -0.2856  0.2096
  516loPI   GL1 8245  13.258  13.248   9.464 -0.0025  0.0075 -0.1777
  516loPI   GL2 8246  13.282  13.416   9.060 -0.3455 -0.1059  0.3881
  516loPI   C1A 8247  13.254  12.911   9.195 -0.0968 -0.1796  0.1995
  516loPI   C2A 8248  13.380  12.819   8.745 -0.0161  0.1405  0.3128
  516loPI   C3A 8249  13.307  12.726   8.380  0.0860 -0.0682  0.0772
  516loPI   C4A 8250  13.206  12.595   7.967 -0.1591 -0.2776  0.1080
  516loPI   C5A 8251  12.851  12.409   7.730 -0.0812  0.0891 -0.2031
  516loPI   C6A 8252  12.554  12.132   7.496 -0.0032 -0.3262  0.1217
  516loPI   C1B 8253  13.193  13.288   8.649  0.0959 -0.1954 -0.2992
  516loPI   C2B 8254  13.207  13.507   8.345 -0.2359  0.1228 -0.0554
  516loPI   C3B 8255  13.213  13.698   7.882 -0.0120  0.1920 -0.0862
  516loPI   C4B 8256  13.495  13.769   7.429  0.0973  0.1597 -0.0299
  517loPI    C1 8257  10.801   6.846   9.929 -0.1063 -0.1333 -0.2177
  517loPI    C2 8258  10.747   6.513  10.146 -0.0308 -0.0043  0.0025
  517loPI    C3 8259  10.787   6.867  10.329 -0.0787  0.1229 -0.2288
  517loPI   PO4 8260  10.830   6.805   9.735 -0.3117 -0.0663  0.1369
  517loPI   GL1 8261  11.055   6.678   9.328 -0.1823 -0.1479  0.1207
  517loPI   GL2 8262  11.158   6.417   9.344  0.3070 -0.1707  0.0252
  517loPI   C1A 8263  10.950   7.068   9.043  0.1803 -0.1242  0.3140
  517loPI   C2A 8264  11.070   7.276   8.665 -0.1051 -0.1652  0.2899
  517loPI   C3A 8265  11.327   7.432   8.236  0.1809 -0.4038 -0.1132
  517loPI   C4A 8266  11.505   7.448   7.811 -0.3999  0.0238  0.0625
  517loPI   C5A 8267  11.702   7.440   7.468  0.0662  0.2126  0.0020
  517loPI   C6A 8268  11.717   7.665   7.159 -0.3611  0.4260 -0.1510
  517loPI   C1B 8269  11.110   6.323   8.911 -0.1845  0.0827 -0.1045
  517loPI   C2B 8270  10.967   6.442   8.568  0.1273 -0.0308 -0.1166
  517loPI   C3B 8271  10.798   6.287   8.220  0.1882  0.0812 -0.2116
  517loPI   C4B 8272  10.410   6.098   7.963  0.4405  0.1126  0.3965
  518loPI    C1 8273   1.299   7.073  10.474 -0.0779  0.0172  0.0913
  518loPI    C2 8274   1.166   7.323  10.757 -0.1292 -0.2181  0.2781
  518loPI    C3 8275   1.498   7.110  10.819  0.1571  0.1187 -0.0529
  518loPI   PO4 8276   1.239   7.240  10.257 -0.1088  0.2737  0.1953
  518loPI   GL1 8277   1.186   7.149   9.899 -0.2504 -0.1846  0.0624
  518loPI   GL2 8278   1.078   6.793   9.775  0.0092  0.0197  0.0384
  518loPI   C1A 8279   1.453   7.150   9.491 -0.0173  0.3432 -0.2035
  518loPI   C2A 8280   1.370   7.105   9.060 -0.1568 -0.2842  0.1018
  518loPI   C3A 8281   1.579   6.948   8.721  0.0406 -0.0809 -0.1076
  518loPI   C4A 8282   1.653   6.819   8.313 -0.3064 -0.0913 -0.0060
  518loPI   C5A 8283   1.635   6.752   7.799 -0.0114 -0.1619  0.0236
  518loPI   C6A 8284   1.633   7.094   7.549  0.0127 -0.1290  0.3157
  518loPI   C1B 8285   1.062   6.813   9.386 -0.2276  0.0434 -0.1176
  518loPI   C2B 8286   0.988   6.801   8.988  0.1985 -0.0147  0.2588
  518loPI   C3B 8287   1.138   6.701   8.551  0.1489  0.1355  0.3081
  518loPI   C4B 8288   1.216   6.828   8.151  0.1989 -0.2058 -0.1322
  519loPI    C1 8289  12.030   7.439   9.925 -0.2866 -0.3097 -0.1058
  519loPI    C2 8290  12.202   7.499  10.281 -0.2710 -0.3252 -0.1107
  519loPI    C3 8291  12.225   7.140  10.106 -0.2178 -0.2979 -0.1601
  519loPI   PO4 8292  12.093   7.559   9.754 -0.1240 -0.3049 -0.2757
  519loPI   GL1 8293  12.121   7.509   9.332 -0.0190  0.0891  0.0242
  519loPI   GL2 8294  11.788   7.669   9.236  0.0796  0.0436  0.0809
  519loPI   C1A 8295  12.359   7.434   9.016 -0.1498  0.0263  0.0520
  519loPI   C2A 8296  12.454   7.414   8.485  0.3656  0.2272 -0.3724
  519loPI   C3A 8297  12.380   7.381   8.035  0.0245 -0.0812 -0.0950
  519loPI   C4A 8298  12.463   7.277   7.604 -0.2057 -0.1043  0.1096
  519loPI   C5A 8299  12.611   7.288   7.223 -0.0578 -0.0388 -0.1583
  519loPI   C6A 8300  12.786   6.935   6.973 -0.1095  0.1314  0.1740
  519loPI   C1B 8301  11.902   7.595   8.847 -0.1150 -0.0921 -0.2858
  519loPI   C2B 8302  11.969   7.613   8.435 -0.1018  0.1665 -0.0452
  519loPI   C3B 8303  11.962   7.603   7.868 -0.1201 -0.2493 -0.0249
  519loPI   C4B 8304  12.180   7.698   7.494 -0.1478  0.4087  0.2316
  520loPI    C1 8305  13.926  15.984   9.911 -0.1315  0.5116 -0.1784
  520loPI    C2 8306  14.106  15.934  10.265 -0.2019  0.2171 -0.1816
  520loPI    C3 8307  14.272  16.170   9.987  0.1990 -0.0714 -0.1967
  520loPI   PO4 8308  13.773  15.631   9.895 -0.0088  0.4452  0.0809
  520loPI   GL1 8309  13.447  15.427   9.548 -0.1634  0.0003  0.1203
  520loPI   GL2 8310  13.135  15.236   9.488 -0.4127 -0.1546 -0.0113
  520loPI   C1A 8311  13.515  15.349   9.153  0.0805  0.0947  0.2574
  520loPI   C2A 8312  13.506  15.350   8.756 -0.1168  0.3145 -0.0435
  520loPI   C3A 8313  13.593  15.183   8.350  0.0727  0.1312 -0.1743
  520loPI   C4A 8314  13.689  15.177   7.919  0.0293  0.0580  0.1767
  520loPI   C5A 8315  13.634  14.912   7.570 -0.2600 -0.0811 -0.2506
  520loPI   C6A 8316  13.729  14.778   7.107  0.2011  0.1928 -0.0789
  520loPI   C1B 8317  13.125  14.978   9.061  0.3905 -0.0505  0.0050
  520loPI   C2B 8318  13.243  14.979   8.669 -0.1223 -0.1395 -0.1146
  520loPI   C3B 8319  13.428  14.672   8.268  0.0752  0.1915  0.0484
  520loPI   C4B 8320  13.812  14.640   7.969 -0.1907 -0.1428 -0.0094
  521loPI    C1 8321   8.091   2.468  10.324  0.0625  0.0846 -0.0786
  521loPI    C2 8322   8.439   2.273  10.294 -0.0712 -0.1578 -0.0772
  521loPI    C3 8323   8.432   2.651  10.423  0.1853 -0.1716 -0.0189
  521loPI   PO4 8324   7.860   2.259  10.374  0.0621  0.2533  0.0714
  521loPI   GL1 8325   7.630   2.044  10.052 -0.1690 -0.1832  0.0498
  521loPI   GL2 8326   7.578   2.328   9.786 -0.4766  0.4083  0.1423
  521loPI   C1A 8327   7.502   1.746   9.689  0.1317  0.2564 -0.4575
  521loPI   C2A 8328   7.443   1.824   9.252  0.1472 -0.2550  0.0368
  521loPI   C3A 8329   7.427   1.957   8.944 -0.2516 -0.1058  0.2875
  521loPI   C4A 8330   7.572   1.939   8.512 -0.0125  0.1194  0.4014
  521loPI   C5A 8331   7.682   1.896   8.044 -0.1945  0.1749  0.1490
  521loPI   C6A 8332   7.654   1.994   7.531  0.0984  0.1588  0.1361
  521loPI   C1B 8333   7.836   2.135   9.372 -0.0260  0.2267 -0.2780
  521loPI   C2B 8334   7.850   2.264   8.850 -0.0249  0.2002  0.2567
  521loPI   C3B 8335   7.805   2.395   8.430 -0.1005  0.0224 -0.0016
  521loPI   C4B 8336   7.819   2.383   8.043 -0.2583 -0.0358 -0.0970
  522loPI    C1 8337   5.865   6.910  10.334 -0.1271 -0.0362  0.0817
  522loPI    C2 8338   5.999   7.001  10.700  0.1459 -0.3145  0.0548
  522loPI    C3 8339   5.622   6.877  10.650 -0.0765  0.2849  0.1580
  522loPI   PO4 8340   5.980   6.745  10.226  0.0772 -0.3019  0.0959
  522loPI   GL1 8341   5.960   6.613   9.843 -0.3619 -0.0109  0.0197
  522loPI   GL2 8342   6.246   6.740   9.566 -0.1351 -0.1013  0.2474
  522loPI   C1A 8343   5.787   6.506   9.364  0.3408 -0.0930 -0.3238
  522loPI   C2A 8344   5.628   6.422   8.943 -0.2507  0.4077 -0.0428
  522loPI   C3A 8345   5.490   6.229   8.641 -0.1020  0.0171  0.2681
  522loPI   C4A 8346   5.318   6.138   8.326  0.0602  0.1953 -0.3198
  522loPI   C5A 8347   5.245   6.129   7.992 -0.0513  0.0624  0.2148
  522loPI   C6A 8348   5.099   6.012   7.543  0.0726 -0.0785  0.2874
  522loPI   C1B 8349   6.139   6.951   9.202  0.1227  0.1045  0.1435
  522loPI   C2B 8350   6.126   7.069   8.704  0.2967 -0.0058  0.0187
  522loPI   C3B 8351   5.967   7.187   8.269 -0.0543  0.2915  0.1558
  522loPI   C4B 8352   6.244   7.111   7.907  0.0283 -0.0750 -0.1124
  523loPI    C1 8353   2.342   2.558  10.442 -0.1179 -0.0986  0.2272
  523loPI    C2 8354   2.634   2.330  10.592  0.0251 -0.1240 -0.0806
  523loPI    C3 8355   2.390   2.531  10.838  0.0783 -0.3796  0.1869
  523loPI   PO4 8356   2.256   2.391  10.240 -0.1664 -0.1114 -0.2224
  523loPI   GL1 8357   2.070   2.298   9.925 -0.2136  0.1211  0.2173
  523loPI   GL2 8358   1.781   2.432   9.769  0.0514 -0.1959 -0.1176
  523loPI   C1A 8359   2.132   2.504   9.433 -0.1834  0.1506 -0.2586
  523loPI   C2A 8360   1.926   2.634   9.007 -0.0703 -0.0160 -0.1083
  523loPI   C3A 8361   2.074   2.751   8.639 -0.0495 -0.0647 -0.3925
  523loPI   C4A 8362   2.323   2.742   8.259 -0.2327 -0.0737  0.0283
  523loPI   C5A 8363   2.253   2.854   7.904 -0.0283  0.4623  0.2107
  523loPI   C6A 8364   2.561   3.080   7.639 -0.0254 -0.1399 -0.0038
  523loPI   C1B 8365   1.644   2.767   9.499  0.1155 -0.2384 -0.0873
  523loPI   C2B 8366   1.500   2.777   9.074 -0.1443 -0.0986 -0.4611
  523loPI   C3B 8367   1.582   2.919   8.662  0.1655  0.2148 -0.0214
  523loPI   C4B 8368   1.774   2.997   8.297  0.2146  0.1416  0.2127
  524loPI    C1 8369   4.670   5.394  10.475  0.1876  0.0437 -0.0757
  524loPI    C2 8370   4.475   5.058  10.379  0.0868  0.1170 -0.1291
  524loPI    C3 8371   4.754   5.052  10.665  0.1923 -0.0441 -0.2337
  524loPI   PO4 8372   4.857   5.465  10.226  0.1494  0.3511 -0.0067
  524loPI   GL1 8373   4.933   5.374   9.915  0.3199  0.0143 -0.1904
  524loPI   GL2 8374   5.304   5.498   9.722 -0.0075 -0.0306 -0.0356
  524loPI   C1A 8375   4.983   5.159   9.481  0.1200 -0.0498  0.0150
  524loPI   C2A 8376   4.810   4.988   9.160 -0.0665 -0.1130  0.2569
  524loPI   C3A 8377   4.958   4.916   8.765  0.1841  0.1684 -0.0659
  524loPI   C4A 8378   5.145   4.940   8.272  0.1387  0.3036 -0.1471
  524loPI   C5A 8379   5.217   4.689   7.973  0.1452  0.2679  0.2156
  524loPI   C6A 8380   5.005   4.577   7.566  0.1506  0.0770  0.2154
  524loPI   C1B 8381   5.342   5.474   9.331 -0.0945 -0.0829  0.2722
  524loPI   C2B 8382   5.172   5.366   8.974  0.1312  0.0408 -0.0184
  524loPI   C3B 8383   5.128   5.367   8.636 -0.0307 -0.1825 -0.2169
  524loPI   C4B 8384   5.037   5.403   8.200 -0.2256 -0.2020 -0.4146
  525loPI    C1 8385   1.738   1.801  10.558  0.0891  0.1459 -0.0550
  525loPI    C2 8386   1.671   1.430  10.691 -0.0693  0.1893 -0.0116
  525loPI    C3 8387   2.046   1.558  10.637 -0.0152 -0.0046 -0.1059
  525loPI   PO4 8388   1.610   1.808  10.368 -0.1086 -0.2637 -0.1757
  525loPI   GL1 8389   1.530   1.734   9.916  0.0289 -0.0054 -0.1507
  525loPI   GL2 8390   1.288   1.520   9.636 -0.2170  0.2389  0.1810
  525loPI   C1A 8391   1.796   1.892   9.572  0.0400  0.0880 -0.1870
  525loPI   C2A 8392   1.756   2.198   9.330  0.0244 -0.0384 -0.2163
  525loPI   C3A 8393   1.521   2.287   8.965  0.1990 -0.0823  0.1898
  525loPI   C4A 8394   1.711   2.394   8.557  0.0149  0.0484  0.0567
  525loPI   C5A 8395   1.924   2.531   8.177  0.4796  0.2731  0.3045
  525loPI   C6A 8396   1.775   2.795   7.803  0.1863  0.1689 -0.0192
  525loPI   C1B 8397   1.449   1.307   9.253  0.0169 -0.1462 -0.1848
  525loPI   C2B 8398   1.692   1.327   8.852 -0.3757 -0.2942 -0.2670
  525loPI   C3B 8399   1.856   1.440   8.437  0.0911 -0.0248 -0.1081
  525loPI   C4B 8400   1.987   1.573   8.091  0.0011  0.1480 -0.5483
  526loPI    C1 8401  17.024   2.633   9.847 -0.2603 -0.0487 -0.2369
  526loPI    C2 8402  16.734   2.389   9.975 -0.0808 -0.2093 -0.1317
  526loPI    C3 8403  16.947   2.602  10.238 -0.1258 -0.0651 -0.2111
  526loPI   PO4 8404  16.918   2.693   9.605 -0.2666 -0.1258  0.0660
  526loPI   GL1 8405  17.085   2.989   9.277 -0.1906 -0.0918 -0.0893
  526loPI   GL2 8406  17.343   2.844   9.307 -0.2006 -0.0932  0.2294
  526loPI   C1A 8407  16.964   3.065   8.995 -0.1509  0.0494  0.1806
  526loPI   C2A 8408  16.889   3.109   8.532  0.0520  0.1749 -0.0424
  526loPI   C3A 8409  16.954   3.256   8.108  0.2615  0.0534  0.2867
  526loPI   C4A 8410  16.786   3.380   7.752 -0.3507 -0.3064  0.0099
  526loPI   C5A 8411  16.438   3.251   7.504 -0.0835  0.0354  0.0478
  526loPI   C6A 8412  16.388   2.946   7.150 -0.4395  0.0260  0.0637
  526loPI   C1B 8413  17.355   2.746   8.912  0.0875  0.1169  0.0602
  526loPI   C2B 8414  17.165   2.631   8.623 -0.1069 -0.2208 -0.1924
  526loPI   C3B 8415  17.110   2.779   8.182  0.2591  0.2358  0.1138
  526loPI   C4B 8416  16.776   2.757   7.909 -0.0139 -0.1863 -0.0903
  527loPI    C1 8417  15.631  16.983   9.893 -0.1176  0.1274  0.2053
  527loPI    C2 8418  15.922  17.241   9.989 -0.0380  0.0686  0.1227
  527loPI    C3 8419  15.612  17.189  10.236  0.0523  0.0863  0.2404
  527loPI   PO4 8420  15.726  16.770   9.733  0.0596  0.1013 -0.2339
  527loPI   GL1 8421  15.708  16.638   9.298  0.2548 -0.2230 -0.2377
  527loPI   GL2 8422  15.377  16.672   9.419  0.2564 -0.0629  0.0531
  527loPI   C1A 8423  15.669  16.801   8.855  0.2053 -0.1754 -0.1678
  527loPI   C2A 8424  15.604  16.843   8.413  0.0149 -0.0755  0.3912
  527loPI   C3A 8425  15.611  16.765   8.033 -0.0661 -0.2020  0.0983
  527loPI   C4A 8426  15.921  16.929   7.704  0.1605 -0.0675 -0.1188
  527loPI   C5A 8427  16.169  16.728   7.471  0.1221  0.0819 -0.1400
  527loPI   C6A 8428  16.441  16.397   7.278  0.0742 -0.3484 -0.3618
  527loPI   C1B 8429  15.159  16.820   9.087  0.2864 -0.3212  0.2424
  527loPI   C2B 8430  15.217  16.731   8.683  0.3382 -0.0478 -0.1795
  527loPI   C3B 8431  15.122  16.865   8.252  0.3876 -0.2541 -0.0308
  527loPI   C4B 8432  15.161  17.231   8.069 -0.4859  0.4275  0.1341
  528loPI    C1 8433   8.585   8.922   9.767  0.3879 -0.1284 -0.2258
  528loPI    C2 8434   8.237   8.731   9.817  0.1259  0.4263  0.1820
  528loPI    C3 8435   8.579   8.555   9.928 -0.0371 -0.0415 -0.0292
  528loPI   PO4 8436   8.507   9.036   9.564  0.0549 -0.2555 -0.0139
  528loPI   GL1 8437   8.523   9.213   9.183  0.0259 -0.0787  0.1288
  528loPI   GL2 8438   8.722   9.432   9.132  0.0775 -0.3304 -0.2202
  528loPI   C1A 8439   8.434   9.153   8.784  0.0270 -0.1147  0.2093
  528loPI   C2A 8440   8.459   9.271   8.386 -0.0593  0.2482 -0.0867
  528loPI   C3A 8441   8.648   9.377   7.988  0.2713 -0.0616 -0.4115
  528loPI   C4A 8442   8.884   9.182   7.609  0.2438  0.0398  0.0397
  528loPI   C5A 8443   9.082   9.359   7.205 -0.2906 -0.0369  0.2298
  528loPI   C6A 8444   9.152   9.165   6.703 -0.2110  0.0928  0.1212
  528loPI   C1B 8445   8.741   9.604   8.716  0.1136 -0.0059  0.0528
  528loPI   C2B 8446   8.707   9.763   8.327 -0.0013 -0.4055  0.2158
  528loPI   C3B 8447   8.456  10.103   8.250  0.3989 -0.0804  0.2351
  528loPI   C4B 8448   8.420  10.307   7.842 -0.2540  0.0247  0.0966
  529loPI    C1 8449  10.050   2.257  10.059  0.0611 -0.0739 -0.3015
  529loPI    C2 8450  10.110   1.868   9.992  0.2914 -0.0738 -0.1111
  529loPI    C3 8451  10.144   2.014  10.362 -0.4620  0.0117 -0.0594
  529loPI   PO4 8452  10.236   2.396  10.001  0.0574  0.1574 -0.3173
  529loPI   GL1 8453  10.129   2.681   9.608 -0.1477  0.3534 -0.1321
  529loPI   GL2 8454  10.386   2.459   9.541  0.2350 -0.0397 -0.2868
  529loPI   C1A 8455  10.086   2.609   9.118 -0.2429 -0.1281 -0.1342
  529loPI   C2A 8456  10.062   2.705   8.719  0.1618  0.0774 -0.2882
  529loPI   C3A 8457   9.919   2.625   8.363  0.1331  0.0750 -0.0183
  529loPI   C4A 8458   9.811   2.587   7.898  0.0125  0.2303 -0.0455
  529loPI   C5A 8459   9.980   2.581   7.471 -0.2274 -0.2213 -0.0867
  529loPI   C6A 8460   9.847   2.426   7.059 -0.2937 -0.0028  0.2359
  529loPI   C1B 8461  10.443   2.279   9.048  0.0313 -0.1191 -0.1126
  529loPI   C2B 8462  10.346   2.330   8.630  0.1485  0.2554 -0.1722
  529loPI   C3B 8463  10.159   2.246   8.254 -0.3027  0.3238 -0.2734
  529loPI   C4B 8464  10.078   2.136   7.759 -0.0678 -0.3226 -0.0936
  530loPI    C1 8465   6.189  15.910  10.128 -0.1253  0.2119 -0.2153
  530loPI    C2 8466   6.141  16.197   9.854 -0.2577  0.0934 -0.3173
  530loPI    C3 8467   6.502  16.132  10.014 -0.2016  0.2338 -0.3846
  530loPI   PO4 8468   5.951  15.697  10.007 -0.2648 -0.0042 -0.0773
  530loPI   GL1 8469   5.513  15.593   9.679  0.0111 -0.2533 -0.0268
  530loPI   GL2 8470   5.343  15.300   9.597  0.0748  0.2865  0.0486
  530loPI   C1A 8471   5.829  15.461   9.459 -0.1045 -0.2976  0.1950
  530loPI   C2A 8472   5.892  15.313   9.027  0.1795  0.0196 -0.0358
  530loPI   C3A 8473   5.932  15.432   8.602 -0.0776  0.1790  0.0664
  530loPI   C4A 8474   6.094  15.429   8.298  0.0293  0.1311  0.1932
  530loPI   C5A 8475   6.177  15.599   7.910  0.1399 -0.0211  0.2180
  530loPI   C6A 8476   5.964  15.411   7.583 -0.1620 -0.0078  0.0526
  530loPI   C1B 8477   5.360  15.407   9.104  0.3488 -0.0419 -0.2316
  530loPI   C2B 8478   5.358  15.366   8.743 -0.0829 -0.2919  0.4126
  530loPI   C3B 8479   5.422  15.443   8.312  0.0649  0.3187 -0.1211
  530loPI   C4B 8480   5.643  15.404   7.996  0.0380  0.3004  0.4053
  531loPI    C1 8481  14.595   3.204   9.961 -0.0951 -0.3515 -0.0703
  531loPI    C2 8482  14.604   3.228  10.360 -0.1528 -0.0763 -0.0837
  531loPI    C3 8483  14.898   3.040  10.164  0.0750  0.1173  0.0666
  531loPI   PO4 8484  14.573   3.387   9.812  0.0125  0.2273 -0.0941
  531loPI   GL1 8485  14.482   3.407   9.421  0.3646 -0.4533 -0.4613
  531loPI   GL2 8486  14.395   3.761   9.423 -0.1976  0.1418  0.1358
  531loPI   C1A 8487  14.318   3.426   9.083 -0.0468 -0.2918 -0.0922
  531loPI   C2A 8488  14.108   3.583   8.799 -0.0074  0.1048 -0.1062
  531loPI   C3A 8489  14.159   3.530   8.432 -0.0442  0.1929 -0.1205
  531loPI   C4A 8490  14.286   3.452   8.089  0.1614  0.0577 -0.0792
  531loPI   C5A 8491  14.313   3.413   7.611 -0.3018  0.0626  0.0370
  531loPI   C6A 8492  14.416   3.383   7.128  0.0536 -0.1696  0.2239
  531loPI   C1B 8493  14.681   3.869   9.148  0.0070  0.0849 -0.0746
  531loPI   C2B 8494  14.730   3.759   8.718 -0.4006  0.2413 -0.0505
  531loPI   C3B 8495  14.768   3.619   8.256 -0.2014 -0.0505  0.1239
  531loPI   C4B 8496  14.675   3.686   7.843 -0.4169  0.1085  0.1387
  532loPI    C1 8497  12.468  16.618  10.250  0.1463  0.1504 -0.0291
  532loPI    C2 8498  12.547  16.229  10.205  0.1086  0.1559 -0.1481
  532loPI    C3 8499  12.291  16.350  10.487 -0.1244  0.0671 -0.3188
  532loPI   PO4 8500  12.371  16.698  10.093  0.0049 -0.0695  0.1390
  532loPI   GL1 8501  12.358  16.523   9.594 -0.1688 -0.0388  0.1681
  532loPI   GL2 8502  12.608  16.394   9.775  0.1200 -0.0862 -0.2291
  532loPI   C1A 8503  12.211  16.440   9.271 -0.0148 -0.1250 -0.3330
  532loPI   C2A 8504  12.165  16.154   8.970 -0.1839  0.0820 -0.2435
  532loPI   C3A 8505  11.849  15.969   8.771  0.3057 -0.0900 -0.1630
  532loPI   C4A 8506  11.571  15.690   8.509 -0.1820  0.1851 -0.2508
  532loPI   C5A 8507  11.274  15.480   8.189 -0.2210 -0.1069 -0.0402
  532loPI   C6A 8508  11.211  15.417   7.749 -0.1872 -0.1569 -0.1830
  532loPI   C1B 8509  12.760  16.368   9.361  0.0515 -0.2788 -0.1248
  532loPI   C2B 8510  13.076  16.148   9.113 -0.0118 -0.2515  0.0438
  532loPI   C3B 8511  13.128  16.143   8.653 -0.3070  0.2460 -0.0721
  532loPI   C4B 8512  13.027  16.072   8.375 -0.1400 -0.1701  0.2031
  533loPI    C1 8513  13.324   9.670   9.786  0.1791 -0.0058  0.4021
  533loPI    C2 8514  13.109  10.006   9.753 -0.1446 -0.2162  0.3176
  533loPI    C3 8515  13.484   9.994   9.615 -0.2690 -0.0107 -0.0534
  533loPI   PO4 8516  13.229   9.494   9.660  0.0309  0.3527  0.3853
  533loPI   GL1 8517  13.464   9.211   9.322  0.2223  0.1383 -0.1026
  533loPI   GL2 8518  13.403   9.550   9.227 -0.0776 -0.0890 -0.1348
  533loPI   C1A 8519  13.717   8.993   8.962  0.0367  0.0188 -0.0123
  533loPI   C2A 8520  13.495   9.023   8.497  0.0024  0.0360 -0.6662
  533loPI   C3A 8521  13.509   8.982   8.088 -0.1362  0.1562  0.1815
  533loPI   C4A 8522  13.525   9.052   7.636 -0.0398 -0.2182 -0.2391
  533loPI   C5A 8523  13.393   9.086   7.216 -0.2525 -0.1250 -0.1275
  533loPI   C6A 8524  13.399   9.091   6.828  0.2262  0.2685 -0.2270
  533loPI   C1B 8525  13.262   9.383   8.878 -0.0279 -0.1054  0.2152
  533loPI   C2B 8526  13.005   9.121   8.552 -0.4163 -0.1611 -0.1008
  533loPI   C3B 8527  12.979   9.227   8.075  0.0931 -0.3627  0.0935
  533loPI   C4B 8528  13.019   9.222   7.645  0.0768 -0.0481  0.0725
  534loPI    C1 8529  18.616  14.493   9.296  0.2024 -0.2950 -0.1246
  534loPI    C2 8530  18.489  14.158   9.473  0.0237 -0.2332 -0.1342
  534loPI    C3 8531  18.460  14.508   9.664  0.3752 -0.2455 -0.0520
  534loPI   PO4 8532  18.813  14.422   9.186 -0.1362  0.1042 -0.1566
  534loPI   GL1 8533  19.100  14.447   8.802  0.1060 -0.1379 -0.2155
  534loPI   GL2 8534  18.956  14.847   8.730  0.0672 -0.0291  0.1735
  534loPI   C1A 8535  18.827  14.346   8.536  0.5768  0.0504  0.0549
  534loPI   C2A 8536  18.823  14.227   8.143  0.1730 -0.0343  0.1256
  534loPI   C3A 8537  18.834  13.922   7.740  0.0815  0.0752  0.2026
  534loPI   C4A 8538  18.790  13.952   7.315 -0.0439 -0.1914  0.0327
  534loPI   C5A 8539  18.862  14.262   7.036 -0.1916  0.1101 -0.1039
  534loPI   C6A 8540  18.714  14.476   6.724  0.0958  0.2627 -0.0824
  534loPI   C1B 8541  19.002  14.765   8.339  0.2349 -0.2237  0.2374
  534loPI   C2B 8542  18.986  14.701   7.853  0.0471  0.1101  0.1347
  534loPI   C3B 8543  18.827  14.715   7.479 -0.0817  0.3221 -0.2859
  534loPI   C4B 8544  18.521  14.673   7.147  0.2939 -0.1768  0.1390
  535loPI    C1 8545   1.404  14.433   9.724  0.2881  0.1395  0.3390
  535loPI    C2 8546   1.025  14.455   9.850  0.1804 -0.0203  0.0532
  535loPI    C3 8547   1.314  14.647  10.049 -0.0403  0.0519  0.3092
  535loPI   PO4 8548   1.483  14.451   9.441  0.0535  0.2670  0.1435
  535loPI   GL1 8549   1.367  14.455   9.022  0.3361 -0.3974  0.3396
  535loPI   GL2 8550   1.361  14.093   8.991 -0.2329 -0.2162 -0.0550
  535loPI   C1A 8551   1.415  14.816   8.765 -0.1126  0.1844  0.1904
  535loPI   C2A 8552   1.469  14.924   8.348  0.0628  0.0427 -0.0196
  535loPI   C3A 8553   1.488  14.965   7.829 -0.0611 -0.2086  0.1236
  535loPI   C4A 8554   1.539  14.699   7.405 -0.0850 -0.0502  0.0228
  535loPI   C5A 8555   1.291  14.494   7.073  0.3053  0.0348 -0.0414
  535loPI   C6A 8556   1.221  14.540   6.724  0.2035 -0.2163 -0.0355
  535loPI   C1B 8557   1.251  13.805   8.627  0.1683 -0.1828 -0.0960
  535loPI   C2B 8558   1.362  13.515   8.131  0.1055 -0.1434  0.2294
  535loPI   C3B 8559   1.467  13.513   7.694 -0.0244  0.3176 -0.0558
  535loPI   C4B 8560   1.662  13.621   7.426 -0.0303  0.1006  0.0752
  536loPI    C1 8561  17.251   6.837  10.312 -0.1289  0.1674  0.0915
  536loPI    C2 8562  16.855   6.795  10.350 -0.1110 -0.0637  0.0416
  536loPI    C3 8563  17.061   7.007  10.620 -0.2913  0.2090 -0.0303
  536loPI   PO4 8564  17.317   6.544  10.075  0.4279  0.0943 -0.0184
  536loPI   GL1 8565  17.493   6.442   9.661  0.0557 -0.1372  0.2233
  536loPI   GL2 8566  17.123   6.475   9.518 -0.2179  0.1996  0.0089
  536loPI   C1A 8567  17.949   6.490   9.344  0.0505  0.0469  0.1406
  536loPI   C2A 8568  18.357   6.311   9.261  0.0253 -0.0394  0.0923
  536loPI   C3A 8569  18.528   6.055   9.079  0.0358 -0.2314  0.1385
  536loPI   C4A 8570  18.552   5.842   8.731 -0.0195  0.2068 -0.0167
  536loPI   C5A 8571  18.830   5.632   8.538 -0.1126 -0.0305 -0.0529
  536loPI   C6A 8572  18.902   5.287   8.671 -0.2795 -0.0785  0.0126
  536loPI   C1B 8573  17.315   6.363   9.173  0.2262  0.0721 -0.1081
  536loPI   C2B 8574  17.539   6.200   8.812 -0.0019  0.1777  0.0085
  536loPI   C3B 8575  17.891   6.298   8.486 -0.2592  0.0562  0.3117
  536loPI   C4B 8576  18.136   5.928   8.436  0.0534 -0.1215 -0.0740
  537loPI    C1 8577   6.903  17.400  10.058 -0.0452 -0.2360 -0.1148
  537loPI    C2 8578   6.520  17.451  10.163 -0.0261  0.0161 -0.1614
  537loPI    C3 8579   6.751  17.196  10.367 -0.0735  0.2652  0.2131
  537loPI   PO4 8580   6.896  17.526   9.844 -0.0149 -0.3949  0.2095
  537loPI   GL1 8581   6.990  17.390   9.431 -0.2262  0.2755 -0.1966
  537loPI   GL2 8582   7.116  17.040   9.423  0.0223 -0.1998  0.1699
  537loPI   C1A 8583   6.775  17.703   9.170  0.0402 -0.1611  0.0001
  537loPI   C2A 8584   6.466  17.795   8.941 -0.2766 -0.1154  0.0564
  537loPI   C3A 8585   6.467  17.913   8.476 -0.0813  0.0149  0.0045
  537loPI   C4A 8586   6.674  18.232   8.388 -0.2950 -0.0987 -0.2044
  537loPI   C5A 8587   6.799  18.659   8.228  0.2462  0.1943  0.1257
  537loPI   C6A 8588   6.922  18.824   7.805  0.0768  0.1225 -0.2488
  537loPI   C1B 8589   7.145  16.855   8.994 -0.0046  0.1585 -0.2592
  537loPI   C2B 8590   7.331  16.919   8.584  0.1919  0.0623  0.1077
  537loPI   C3B 8591   7.307  16.767   8.203  0.2553 -0.2734  0.1573
  537loPI   C4B 8592   7.131  16.803   7.742 -0.2359  0.2706  0.1073
  538loPI    C1 8593   7.338   0.944   9.919 -0.2457 -0.1600  0.2800
  538loPI    C2 8594   6.996   1.017   9.726 -0.0370 -0.0138 -0.0443
  538loPI    C3 8595   7.164   1.303   9.950  0.0102  0.0034 -0.1017
  538loPI   PO4 8596   7.455   0.849   9.764  0.2648 -0.0080  0.1797
  538loPI   GL1 8597   7.613   1.119   9.471 -0.1807  0.1085 -0.0695
  538loPI   GL2 8598   7.854   1.280   9.474 -0.4599  0.1408 -0.1499
  538loPI   C1A 8599   7.298   1.398   9.285  0.0969 -0.1240  0.0231
  538loPI   C2A 8600   7.096   1.399   8.931  0.2014  0.1691 -0.0414
  538loPI   C3A 8601   7.117   1.625   8.588 -0.0197  0.2926 -0.1949
  538loPI   C4A 8602   7.226   1.814   8.156  0.1491  0.0596  0.1104
  538loPI   C5A 8603   7.237   2.238   7.954  0.0692 -0.0372  0.1256
  538loPI   C6A 8604   7.257   2.618   8.005 -0.1641  0.0448  0.0234
  538loPI   C1B 8605   7.749   1.343   9.109 -0.2932  0.1248 -0.1893
  538loPI   C2B 8606   7.568   1.498   8.774  0.3925  0.5417 -0.0269
  538loPI   C3B 8607   7.509   1.445   8.296  0.0877  0.1006  0.0833
  538loPI   C4B 8608   7.157   1.291   8.100 -0.1629 -0.2061 -0.4739
  539loPI    C1 8609  14.489  10.319   9.732  0.0469 -0.0524  0.1165
  539loPI    C2 8610  14.738  10.288  10.044  0.0352  0.1786  0.1504
  539loPI    C3 8611  14.377  10.115  10.058  0.1043  0.0364  0.1921
  539loPI   PO4 8612  14.508  10.249   9.503 -0.0668  0.2979  0.1829
  539loPI   GL1 8613  14.393  10.437   9.187 -0.0574 -0.2075  0.0567
  539loPI   GL2 8614  14.217  10.312   9.023 -0.0348  0.1557 -0.1509
  539loPI   C1A 8615  14.584  10.650   8.808 -0.3023 -0.0449  0.0513
  539loPI   C2A 8616  14.353  10.715   8.438 -0.2339  0.0593 -0.2063
  539loPI   C3A 8617  13.979  10.702   8.201  0.1600  0.2470 -0.1071
  539loPI   C4A 8618  13.853  10.646   7.719 -0.3219 -0.1567  0.0835
  539loPI   C5A 8619  13.762  10.579   7.353  0.3897 -0.2611  0.2131
  539loPI   C6A 8620  13.624  10.590   7.079  0.4427  0.1714  0.1004
  539loPI   C1B 8621  14.225  10.300   8.625  0.0364  0.0314 -0.0195
  539loPI   C2B 8622  14.195  10.251   8.196 -0.4621  0.0608 -0.4477
  539loPI   C3B 8623  14.111  10.089   7.756 -0.0124  0.0192 -0.3185
  539loPI   C4B 8624  13.794   9.750   7.631 -0.0857  0.0151  0.0273
  540loPI    C1 8625  14.903  14.526  10.108 -0.2805  0.1935  0.1245
  540loPI    C2 8626  14.790  14.340  10.444 -0.0766  0.0379  0.1088
  540loPI    C3 8627  15.172  14.325  10.325 -0.1228  0.1960 -0.0655
  540loPI   PO4 8628  14.678  14.511   9.882 -0.0445  0.0970 -0.0781
  540loPI   GL1 8629  14.648  14.506   9.535 -0.2014 -0.0531 -0.2288
  540loPI   GL2 8630  14.274  14.619   9.662  0.1000 -0.0351  0.1927
  540loPI   C1A 8631  14.568  14.761   9.188  0.3524 -0.0071 -0.0258
  540loPI   C2A 8632  14.827  14.964   8.917  0.2249  0.2757 -0.1018
  540loPI   C3A 8633  15.117  14.950   8.634 -0.1871  0.0053 -0.3908
  540loPI   C4A 8634  15.181  14.882   8.268 -0.2286  0.2080 -0.1416
  540loPI   C5A 8635  14.876  14.535   8.318  0.0612 -0.3411  0.1905
  540loPI   C6A 8636  14.458  14.318   8.316  0.1369  0.1010  0.1884
  540loPI   C1B 8637  14.113  14.471   9.265 -0.1680  0.2497  0.2431
  540loPI   C2B 8638  14.300  14.498   8.862 -0.0651 -0.3225  0.1125
  540loPI   C3B 8639  14.734  14.462   8.802 -0.0778 -0.1948  0.3329
  540loPI   C4B 8640  15.041  14.533   9.100  0.1951 -0.2447 -0.1329
  541loPI    C1 8641  17.624   3.012  10.190 -0.1035 -0.1526 -0.2265
  541loPI    C2 8642  17.224   3.012  10.194 -0.1027 -0.1462  0.0716
  541loPI    C3 8643  17.427   3.134  10.517  0.1403 -0.2556 -0.0378
  541loPI   PO4 8644  17.751   3.172  10.053  0.1542 -0.2770 -0.2549
  541loPI   GL1 8645  17.815   3.195   9.554  0.0057 -0.0826  0.1283
  541loPI   GL2 8646  18.097   3.196   9.483  0.0380  0.0376  0.2134
  541loPI   C1A 8647  17.663   3.154   9.154  0.1491  0.1740  0.1899
  541loPI   C2A 8648  17.643   3.076   8.697 -0.1722 -0.0594 -0.2486
  541loPI   C3A 8649  17.533   3.037   8.330  0.0026 -0.0382 -0.0377
  541loPI   C4A 8650  17.403   3.116   7.961 -0.1607 -0.0779  0.4347
  541loPI   C5A 8651  17.149   3.010   7.602 -0.2523  0.0189 -0.4307
  541loPI   C6A 8652  17.284   2.985   7.208  0.0608  0.1944 -0.2042
  541loPI   C1B 8653  18.224   3.232   9.042  0.0071 -0.2725  0.2204
  541loPI   C2B 8654  18.149   3.175   8.729 -0.2975 -0.2203  0.3374
  541loPI   C3B 8655  18.107   3.153   8.345 -0.1336 -0.0335 -0.0433
  541loPI   C4B 8656  18.020   2.966   8.065 -0.0376  0.2153  0.1088
  542loPI    C1 8657  12.506   6.562   9.614 -0.2727  0.2124  0.1363
  542loPI    C2 8658  12.526   6.798   9.937  0.0610  0.2865  0.0648
  542loPI    C3 8659  12.854   6.611   9.805 -0.0979  0.1642 -0.1642
  542loPI   PO4 8660  12.314   6.743   9.372  0.1408 -0.3252  0.1356
  542loPI   GL1 8661  11.910   6.849   9.368  0.1713 -0.0175  0.0059
  542loPI   GL2 8662  12.020   6.991   9.074 -0.5821 -0.0334  0.0392
  542loPI   C1A 8663  11.479   6.682   9.129  0.4246 -0.2722  0.1845
  542loPI   C2A 8664  11.314   6.806   8.775  0.4244 -0.0754  0.0124
  542loPI   C3A 8665  11.330   6.930   8.358 -0.1344 -0.2772  0.0637
  542loPI   C4A 8666  11.438   6.937   7.994 -0.3837  0.0991 -0.0019
  542loPI   C5A 8667  11.349   6.794   7.641 -0.1708 -0.1908  0.1055
  542loPI   C6A 8668  11.565   6.724   7.358 -0.2833 -0.1549 -0.1339
  542loPI   C1B 8669  12.218   6.946   8.666  0.1513  0.3897 -0.3025
  542loPI   C2B 8670  12.306   6.933   8.242 -0.0338  0.0666  0.3740
  542loPI   C3B 8671  12.416   6.809   7.795 -0.2865 -0.2884 -0.0615
  542loPI   C4B 8672  12.584   6.835   7.359  0.3656 -0.4299 -0.1571
  543loPI    C1 8673   0.300   9.063   9.959 -0.0698 -0.0418  0.0256
  543loPI    C2 8674   0.065   9.098  10.280  0.0519 -0.3770  0.1558
  543loPI    C3 8675   0.429   9.264  10.280 -0.0861 -0.0676  0.0483
  543loPI   PO4 8676   0.126   9.112   9.739 -0.2390 -0.0990  0.1826
  543loPI   GL1 8677   0.054   8.966   9.294  0.0203 -0.0274  0.2529
  543loPI   GL2 8678  -0.039   9.124   9.188  0.2957 -0.2324 -0.1144
  543loPI   C1A 8679  -0.283   8.628   9.079 -0.5934 -0.1624  0.0903
  543loPI   C2A 8680  -0.387   8.348   8.779 -0.1091  0.0715 -0.2762
  543loPI   C3A 8681  -0.288   8.174   8.365 -0.1530 -0.0380 -0.0962
  543loPI   C4A 8682  -0.037   8.085   7.953 -0.0215  0.1724  0.0469
  543loPI   C5A 8683   0.400   8.180   7.818  0.0246 -0.0305  0.0145
  543loPI   C6A 8684   0.746   8.332   8.013 -0.1442 -0.3155  0.0588
  543loPI   C1B 8685  -0.085   9.040   8.816  0.0440  0.1912 -0.0686
  543loPI   C2B 8686  -0.418   8.937   8.564  0.1313 -0.0387 -0.1291
  543loPI   C3B 8687  -0.574   8.565   8.274 -0.4013  0.1872  0.2255
  543loPI   C4B 8688  -0.512   8.638   7.780  0.0599  0.0384  0.3190
  544loPI    C1 8689   9.288   6.451   9.961  0.0136  0.1860 -0.1196
  544loPI    C2 8690   8.931   6.587  10.079  0.0128  0.0632  0.0225
  544loPI    C3 8691   9.239   6.590  10.334  0.0380 -0.1050 -0.0053
  544loPI   PO4 8692   9.391   6.688   9.726 -0.1241  0.0412 -0.0559
  544loPI   GL1 8693   9.345   6.727   9.247 -0.2168 -0.2581 -0.2657
  544loPI   GL2 8694   9.047   6.742   9.053  0.0812 -0.4145 -0.3296
  544loPI   C1A 8695   9.351   6.937   8.723 -0.3089 -0.0746 -0.0739
  544loPI   C2A 8696   9.360   6.884   8.343  0.0105 -0.2263  0.1994
  544loPI   C3A 8697   9.326   6.916   7.904  0.1160 -0.3083  0.1215
  544loPI   C4A 8698   9.504   7.056   7.475 -0.2673  0.1390  0.0405
  544loPI   C5A 8699   9.569   7.288   7.121  0.0314 -0.2033 -0.0826
  544loPI   C6A 8700   9.788   7.421   6.783  0.1942 -0.4164 -0.1174
  544loPI   C1B 8701   8.879   6.860   8.611  0.1767  0.0160  0.1617
  544loPI   C2B 8702   8.526   6.750   8.389  0.2058 -0.0885 -0.4876
  544loPI   C3B 8703   8.394   6.636   7.971 -0.4140 -0.3688 -0.2001
  544loPI   C4B 8704   8.335   6.538   7.492  0.0938 -0.1336  0.0622
  545loPI    C1 8705  14.287  12.054   9.982 -0.2820 -0.0288 -0.0121
  545loPI    C2 8706  14.530  11.740  10.029 -0.1572  0.0483 -0.1359
  545loPI    C3 8707  14.607  12.083  10.220 -0.2722  0.0165 -0.0307
  545loPI   PO4 8708  14.345  12.034   9.615 -0.0736 -0.1264  0.0233
  545loPI   GL1 8709  14.088  12.289   9.321  0.2293 -0.0023 -0.0925
  545loPI   GL2 8710  14.382  12.528   9.323 -0.0443  0.1252 -0.2304
  545loPI   C1A 8711  14.043  12.108   8.816  0.2756  0.3656 -0.5278
  545loPI   C2A 8712  13.805  12.068   8.381  0.2211  0.0557 -0.1075
  545loPI   C3A 8713  13.835  12.083   7.901  0.0843  0.0403 -0.0084
  545loPI   C4A 8714  13.835  11.984   7.467 -0.0468  0.3496  0.2574
  545loPI   C5A 8715  13.882  11.859   6.988  0.1038 -0.0243  0.0979
  545loPI   C6A 8716  13.909  11.952   6.546  0.1086 -0.0050  0.0952
  545loPI   C1B 8717  14.222  12.647   8.873 -0.1304 -0.0890  0.2243
  545loPI   C2B 8718  14.175  12.413   8.393 -0.2241 -0.3160 -0.3456
  545loPI   C3B 8719  14.260  12.337   7.961  0.1910 -0.2346  0.0550
  545loPI   C4B 8720  14.286  12.326   7.528 -0.0573 -0.0654  0.0676
  546loPI    C1 8721  12.801  10.499   9.956  0.1812  0.2602  0.1642
  546loPI    C2 8722  13.114  10.352  10.156  0.0929  0.2205  0.2743
  546loPI    C3 8723  12.781  10.133  10.117  0.0962  0.2428  0.1150
  546loPI   PO4 8724  12.882  10.545   9.671  0.1448  0.0757  0.0651
  546loPI   GL1 8725  12.713  10.462   9.351 -0.2503  0.3130  0.1798
  546loPI   GL2 8726  13.012  10.209   9.350 -0.2035  0.3138  0.0177
  546loPI   C1A 8727  12.864  10.508   9.010  0.1201  0.0157 -0.1037
  546loPI   C2A 8728  12.874  10.472   8.668  0.3366  0.3442  0.1418
  546loPI   C3A 8729  13.031  10.437   8.333  0.1609  0.0820  0.1770
  546loPI   C4A 8730  12.981  10.501   7.904  0.1502 -0.1011  0.1771
  546loPI   C5A 8731  12.787  10.494   7.631 -0.1076  0.0719 -0.0351
  546loPI   C6A 8732  12.754  10.264   7.293  0.0201 -0.2669  0.2255
  546loPI   C1B 8733  12.958  10.015   8.917 -0.1859  0.2070  0.0779
  546loPI   C2B 8734  12.834   9.646   8.636 -0.1384 -0.3261 -0.2153
  546loPI   C3B 8735  12.531   9.637   8.283 -0.1243 -0.0458 -0.1099
  546loPI   C4B 8736  12.687   9.599   7.884 -0.0470  0.1671 -0.1277
  547loPI    C1 8737   2.949   5.036  10.552 -0.2154 -0.3245 -0.0357
  547loPI    C2 8738   3.224   4.836  10.763 -0.1328 -0.1950 -0.0194
  547loPI    C3 8739   2.848   4.864  10.899 -0.0936 -0.1598  0.0826
  547loPI   PO4 8740   3.038   4.978  10.271  0.1776 -0.2671  0.1515
  547loPI   GL1 8741   2.993   4.837   9.894 -0.1629 -0.1253 -0.1747
  547loPI   GL2 8742   3.155   4.622   9.814  0.1404 -0.1384 -0.0027
  547loPI   C1A 8743   3.032   4.972   9.427  0.1046  0.1237  0.2496
  547loPI   C2A 8744   3.112   4.831   9.055  0.4047  0.2207  0.0415
  547loPI   C3A 8745   3.158   4.960   8.650 -0.1221  0.0161 -0.0670
  547loPI   C4A 8746   3.237   4.880   8.257 -0.0071  0.3700  0.0321
  547loPI   C5A 8747   3.434   5.130   7.926  0.0780  0.0796 -0.1681
  547loPI   C6A 8748   3.731   5.484   7.866  0.2086 -0.1378  0.3897
  547loPI   C1B 8749   3.156   4.504   9.453 -0.3667 -0.2816  0.1550
  547loPI   C2B 8750   2.943   4.285   9.142 -0.1655  0.0060 -0.0675
  547loPI   C3B 8751   2.993   3.814   8.913 -0.0498 -0.3722  0.0672
  547loPI   C4B 8752   3.226   3.719   8.603 -0.1407 -0.0214 -0.0855
  548loPI    C1 8753   4.728   9.470   9.756 -0.1093  0.2463 -0.1805
  548loPI    C2 8754   4.367   9.304   9.710  0.0409 -0.0541 -0.3020
  548loPI    C3 8755   4.560   9.270  10.059 -0.0056  0.0223 -0.2686
  548loPI   PO4 8756   4.797   9.550   9.475 -0.2218 -0.0400 -0.0613
  548loPI   GL1 8757   4.837   9.686   9.051 -0.3196  0.1689 -0.1469
  548loPI   GL2 8758   4.698   9.414   9.042 -0.0420  0.0903 -0.1845
  548loPI   C1A 8759   5.005   9.925   8.711 -0.3581 -0.3427 -0.0289
  548loPI   C2A 8760   4.876   9.943   8.337 -0.2120  0.0911 -0.1410
  548loPI   C3A 8761   4.891  10.025   7.988  0.2547  0.0969 -0.1951
  548loPI   C4A 8762   4.809   9.847   7.524 -0.0169 -0.2883  0.2695
  548loPI   C5A 8763   4.597   9.644   7.244  0.0491  0.1353  0.2241
  548loPI   C6A 8764   4.202   9.483   7.171 -0.4129  0.3457 -0.0343
  548loPI   C1B 8765   4.606   9.499   8.512  0.1346  0.0966  0.2750
  548loPI   C2B 8766   4.359   9.195   8.209 -0.0983 -0.2723  0.1043
  548loPI   C3B 8767   4.052   9.121   7.956 -0.3379  0.0394  0.4445
  548loPI   C4B 8768   3.972   8.853   7.700 -0.1397  0.4261  0.4566
  549loPI    C1 8769  13.287   9.019   9.945  0.3505  0.3060  0.1246
  549loPI    C2 8770  12.952   9.027  10.163  0.0857  0.1184 -0.2634
  549loPI    C3 8771  13.190   9.349  10.149 -0.0325  0.2255  0.0796
  549loPI   PO4 8772  13.151   8.888   9.655  0.0992  0.2303  0.2449
  549loPI   GL1 8773  13.438   8.736   9.274  0.1167  0.2050 -0.3891
  549loPI   GL2 8774  13.627   8.547   9.213  0.2572 -0.0439  0.1638
  549loPI   C1A 8775  13.271   8.894   8.998 -0.0827 -0.0782  0.2429
  549loPI   C2A 8776  13.107   8.700   8.708 -0.2989  0.1965  0.0031
  549loPI   C3A 8777  13.011   8.707   8.190 -0.2840  0.0034 -0.1073
  549loPI   C4A 8778  12.893   8.742   7.799  0.3443  0.1427  0.0270
  549loPI   C5A 8779  12.840   8.820   7.338 -0.0383  0.1980  0.3705
  549loPI   C6A 8780  12.875   8.871   6.864 -0.2330 -0.0043  0.1799
  549loPI   C1B 8781  13.719   8.530   8.783  0.1862 -0.2757  0.2521
  549loPI   C2B 8782  13.511   8.514   8.299  0.3406 -0.0199  0.0041
  549loPI   C3B 8783  13.407   8.505   7.908 -0.0755 -0.0775  0.1089
  549loPI   C4B 8784  13.272   8.418   7.385  0.3584 -0.1540 -0.0268
  550loPI    C1 8785  16.525   8.775   9.762  0.1104 -0.1321 -0.2343
  550loPI    C2 8786  16.268   8.517   9.927 -0.0329  0.0762 -0.1280
  550loPI    C3 8787  16.571   8.663  10.143  0.0339  0.0156 -0.1807
  550loPI   PO4 8788  16.545   8.655   9.487  0.0624  0.2026 -0.3407
  550loPI   GL1 8789  16.533   8.662   9.073  0.1978 -0.0648 -0.0657
  550loPI   GL2 8790  16.359   8.974   9.188  0.0012 -0.3122 -0.4107
  550loPI   C1A 8791  16.494   8.620   8.638  0.0053  0.1260 -0.1786
  550loPI   C2A 8792  16.473   8.340   8.294 -0.0135  0.0544  0.0627
  550loPI   C3A 8793  16.739   8.464   7.946  0.1744 -0.1927 -0.2463
  550loPI   C4A 8794  16.953   8.488   7.533 -0.0530 -0.0865  0.0578
  550loPI   C5A 8795  17.256   8.602   7.134  0.0241 -0.1419 -0.1136
  550loPI   C6A 8796  17.377   8.529   6.684 -0.1049  0.2616 -0.0426
  550loPI   C1B 8797  16.333   9.066   8.810 -0.0169 -0.0533 -0.1393
  550loPI   C2B 8798  16.224   9.204   8.396  0.0758  0.0324 -0.2899
  550loPI   C3B 8799  16.247   9.212   7.948  0.0823  0.0005  0.1540
  550loPI   C4B 8800  16.211   8.986   7.615  0.3693 -0.3360  0.0222
  551loPI    C1 8801  14.943   4.234   9.770  0.0409  0.1604  0.0306
  551loPI    C2 8802  14.696   3.929   9.846  0.1518  0.0803  0.0726
  551loPI    C3 8803  14.867   4.128  10.148  0.0993  0.1681  0.0447
  551loPI   PO4 8804  15.111   4.138   9.654 -0.3243 -0.0540 -0.0299
  551loPI   GL1 8805  15.227   4.025   9.260 -0.1167  0.0179 -0.3338
  551loPI   GL2 8806  15.256   3.789   9.105 -0.0042  0.0718  0.0012
  551loPI   C1A 8807  14.999   4.154   8.896 -0.0283 -0.1741 -0.0380
  551loPI   C2A 8808  15.024   4.174   8.416 -0.1462 -0.1393  0.3206
  551loPI   C3A 8809  14.953   4.095   7.986  0.2570  0.2996 -0.3223
  551loPI   C4A 8810  15.034   4.122   7.676 -0.0558 -0.1079 -0.1914
  551loPI   C5A 8811  14.860   4.134   7.303  0.0076  0.2655 -0.2037
  551loPI   C6A 8812  14.625   4.135   6.948  0.1684  0.0836 -0.1231
  551loPI   C1B 8813  15.329   3.811   8.647  0.2680 -0.0531  0.1235
  551loPI   C2B 8814  15.306   3.738   8.155  0.0960  0.1444  0.2997
  551loPI   C3B 8815  15.193   3.652   7.763  0.0244  0.0978 -0.0969
  551loPI   C4B 8816  15.130   3.729   7.394  0.0041 -0.0623 -0.0706
  552loPI    C1 8817  17.366  18.790   9.763 -0.3624 -0.2316 -0.0696
  552loPI    C2 8818  17.663  18.575   9.922  0.0324  0.3019 -0.0560
  552loPI    C3 8819  17.376  18.725  10.157 -0.0529  0.0863 -0.0200
  552loPI   PO4 8820  17.567  18.952   9.518  0.1865 -0.2889 -0.2707
  552loPI   GL1 8821  17.816  18.895   9.125  0.2161 -0.0724  0.0868
  552loPI   GL2 8822  18.121  18.828   9.002 -0.1424 -0.0593  0.2455
  552loPI   C1A 8823  17.644  18.614   8.910  0.2966  0.1808 -0.0867
  552loPI   C2A 8824  17.522  18.744   8.335  0.0809  0.1167 -0.2958
  552loPI   C3A 8825  17.653  18.813   7.926  0.3521 -0.3979  0.1389
  552loPI   C4A 8826  17.587  19.141   7.636 -0.0965 -0.1456 -0.0205
  552loPI   C5A 8827  17.560  19.343   7.233  0.0343  0.2294 -0.0371
  552loPI   C6A 8828  17.282  19.697   7.076 -0.0747 -0.2908  0.0094
  552loPI   C1B 8829  18.445  18.739   8.789  0.0420  0.3602 -0.1410
  552loPI   C2B 8830  18.790  18.934   8.620 -0.3991 -0.2174 -0.0300
  552loPI   C3B 8831  18.871  18.973   8.179 -0.2222  0.4795  0.0671
  552loPI   C4B 8832  18.622  19.211   7.895 -0.3070 -0.0887  0.2373
  553loPI    C1 8833   4.018  15.295   9.911 -0.1148 -0.0870 -0.0216
  553loPI    C2 8834   4.031  14.981  10.159  0.2773 -0.0811 -0.0286
  553loPI    C3 8835   3.923  15.340  10.297 -0.3534 -0.2467 -0.0592
  553loPI   PO4 8836   3.874  15.225   9.649  0.0601 -0.3393  0.0571
  553loPI   GL1 8837   3.966  15.075   9.237  0.0060  0.2520  0.1728
  553loPI   GL2 8838   4.220  15.408   9.277  0.0212 -0.0220 -0.0984
  553loPI   C1A 8839   3.977  14.933   8.834 -0.0555  0.0377 -0.0408
  553loPI   C2A 8840   3.976  14.900   8.327  0.4519 -0.2251  0.0253
  553loPI   C3A 8841   3.773  15.004   7.831 -0.2783  0.1531 -0.1245
  553loPI   C4A 8842   3.616  15.123   7.442 -0.0977  0.2151 -0.0749
  553loPI   C5A 8843   3.496  14.804   7.129  0.0193 -0.0288 -0.1825
  553loPI   C6A 8844   3.159  14.549   7.023  0.0453  0.2981  0.1814
  553loPI   C1B 8845   4.274  15.456   8.810 -0.0072 -0.3616 -0.0999
  553loPI   C2B 8846   4.098  15.513   8.393 -0.3373 -0.1085 -0.2657
  553loPI   C3B 8847   4.060  15.603   7.946 -0.1223  0.0249  0.0423
  553loPI   C4B 8848   3.773  15.520   7.638  0.0200 -0.2431  0.0567
  554loPI    C1 8849  17.847  14.945   9.343 -0.0763 -0.1648 -0.0859
  554loPI    C2 8850  17.903  15.225   9.623 -0.4453 -0.1828  0.0110
  554loPI    C3 8851  17.637  15.285   9.331 -0.0560 -0.1597 -0.3473
  554loPI   PO4 8852  18.234  14.903   9.374 -0.4694  0.1763  0.2394
  554loPI   GL1 8853  18.589  14.896   9.056 -0.0801 -0.1952  0.0016
  554loPI   GL2 8854  18.633  15.154   8.828 -0.0576 -0.3434  0.1405
  554loPI   C1A 8855  18.459  14.701   8.757 -0.1143  0.5066  0.1262
  554loPI   C2A 8856  18.524  14.628   8.292 -0.3187 -0.1225  0.1976
  554loPI   C3A 8857  18.442  14.685   7.770  0.2410 -0.2534 -0.4485
  554loPI   C4A 8858  18.466  15.073   7.447  0.0074  0.2388 -0.2911
  554loPI   C5A 8859  18.322  15.102   7.015 -0.1432  0.2792 -0.1911
  554loPI   C6A 8860  18.176  15.121   6.675  0.1641 -0.4056  0.0256
  554loPI   C1B 8861  18.595  15.144   8.413  0.0027  0.2168 -0.1707
  554loPI   C2B 8862  18.663  15.100   7.967 -0.0921 -0.0197  0.1358
  554loPI   C3B 8863  18.733  15.448   7.627 -0.0307 -0.2485 -0.2001
  554loPI   C4B 8864  18.703  15.491   7.218  0.0897  0.1326 -0.1904
  555POPI    C1 8865   5.211  17.141  10.165  0.2430  0.0210  0.1646
  555POPI    C2 8866   5.182  16.774  10.321  0.2958 -0.1333 -0.1787
  555POPI    C3 8867   5.141  17.095  10.556 -0.0442 -0.3552  0.0750
  555POPI   PO4 8868   4.942  17.173   9.894 -0.4561  0.0542 -0.1803
  555POPI   GL1 8869   5.035  16.916   9.518  0.1971 -0.2078 -0.0843
  555POPI   GL2 8870   5.241  17.064   9.342 -0.0894  0.1502 -0.0936
  555POPI   C1A 8871   4.894  16.807   9.152  0.0274  0.1951 -0.2651
  555POPI   D2A 8872   4.980  16.812   8.715 -0.3566 -0.1638  0.3003
  555POPI   C3A 8873   4.698  16.780   8.214  0.1044 -0.1357 -0.3474
  555POPI   C4A 8874   4.655  16.621   7.794  0.2817  0.2086 -0.0565
  555POPI   C1B 8875   5.219  17.167   8.904 -0.1352 -0.1617 -0.1174
  555POPI   C2B 8876   5.219  17.285   8.456  0.2066 -0.0746 -0.0650
  555POPI   C3B 8877   5.047  17.473   8.003 -0.3831  0.4490  0.2590
  555POPI   C4B 8878   4.787  17.147   7.851 -0.2967  0.1051 -0.2106
  556POPI    C1 8879   4.432  16.582   9.943  0.0352  0.0099  0.1280
  556POPI    C2 8880   4.300  16.207   9.987  0.0447 -0.0068  0.0158
  556POPI    C3 8881   4.619  16.282   9.757  0.1761  0.0441  0.2121
  556POPI   PO4 8882   4.192  16.780   9.912  0.0274 -0.4169 -0.2847
  556POPI   GL1 8883   4.067  16.917   9.501  0.3094  0.3166  0.0403
  556POPI   GL2 8884   4.475  16.618   9.402  0.2139  0.1608  0.0158
  556POPI   C1A 8885   3.680  17.280   9.382  0.0778  0.4665  0.1830
  556POPI   D2A 8886   3.495  17.391   8.865  0.3241 -0.2141 -0.2471
  556POPI   C3A 8887   3.689  17.277   8.496  0.2558  0.3524  0.1023
  556POPI   C4A 8888   3.772  17.167   8.182  0.1715 -0.1080 -0.2304
  556POPI   C1B 8889   4.775  16.360   9.136 -0.0868  0.0739  0.2031
  556POPI   C2B 8890   4.837  16.252   8.729 -0.1487 -0.1322  0.0306
  556POPI   C3B 8891   4.868  16.234   8.280 -0.0321  0.1166 -0.1723
  556POPI   C4B 8892   4.873  16.121   7.783  0.1304 -0.0620  0.0108
  557POPI    C1 8893  15.407  10.173   9.761  0.2068  0.0627  0.1573
  557POPI    C2 8894  15.227   9.933  10.026 -0.0245  0.0028 -0.0503
  557POPI    C3 8895  15.605  10.048  10.085 -0.1117  0.0915  0.3675
  557POPI   PO4 8896  15.295  10.111   9.453 -0.0220  0.0023 -0.6040
  557POPI   GL1 8897  14.851  10.042   9.248  0.1014 -0.5501  0.2439
  557POPI   GL2 8898  15.065   9.811   9.082 -0.4207  0.1467  0.0174
  557POPI   C1A 8899  14.629   9.989   8.879  0.0653  0.0201 -0.1528
  557POPI   D2A 8900  14.483   9.869   8.434 -0.2067  0.1241 -0.0452
  557POPI   C3A 8901  14.610   9.964   8.018  0.2429 -0.2024 -0.0514
  557POPI   C4A 8902  14.861  10.298   7.707 -0.0148  0.0381  0.0449
  557POPI   C1B 8903  15.017   9.803   8.563  0.1337 -0.0305 -0.2978
  557POPI   C2B 8904  15.119   9.938   8.207  0.0709  0.0445 -0.0423
  557POPI   C3B 8905  15.271  10.134   7.885  0.0872  0.3148 -0.2057
  557POPI   C4B 8906  15.392  10.315   7.506 -0.0318 -0.0718 -0.2796
  558POPI    C1 8907   0.827  10.184   9.638 -0.3271 -0.1866 -0.0786
  558POPI    C2 8908   0.979  10.043   9.980 -0.1202  0.2558  0.0199
  558POPI    C3 8909   0.594  10.153   9.962 -0.2504 -0.1852 -0.0230
  558POPI   PO4 8910   0.955  10.304   9.564  0.0787 -0.1388  0.2371
  558POPI   GL1 8911   0.875  10.290   9.097 -0.1576  0.1010 -0.2910
  558POPI   GL2 8912   1.038  10.582   9.029  0.1423 -0.0418  0.1234
  558POPI   C1A 8913   0.861  10.181   8.800 -0.1119 -0.1319 -0.1173
  558POPI   D2A 8914   0.906  10.027   8.272 -0.0062  0.2485 -0.2245
  558POPI   C3A 8915   0.832   9.833   7.831 -0.3085 -0.0254 -0.0567
  558POPI   C4A 8916   1.053   9.539   7.520 -0.1546  0.3453  0.1402
  558POPI   C1B 8917   0.965  10.966   8.918 -0.2659  0.0883 -0.3109
  558POPI   C2B 8918   0.949  11.095   8.526 -0.0642 -0.2695  0.2729
  558POPI   C3B 8919   0.885  11.223   8.051 -0.4352 -0.1062  0.3997
  558POPI   C4B 8920   0.746  11.370   7.678  0.1829  0.2633 -0.1811
  559POPI    C1 8921  18.357  18.956   9.891  0.0462  0.0059  0.2010
  559POPI    C2 8922  18.471  18.572   9.895  0.1057  0.0215  0.0645
  559POPI    C3 8923  18.151  18.687  10.104  0.0604 -0.1112  0.0690
  559POPI   PO4 8924  18.409  19.014   9.655 -0.4194  0.1132  0.0862
  559POPI   GL1 8925  18.756  18.920   9.420  0.0118 -0.0463  0.0694
  559POPI   GL2 8926  18.867  18.807   9.110  0.0156 -0.1098  0.2638
  559POPI   C1A 8927  18.526  19.175   9.083  0.0153 -0.0093 -0.0607
  559POPI   D2A 8928  18.691  19.467   8.679  0.1902  0.2063  0.2003
  559POPI   C3A 8929  18.553  19.313   8.337 -0.4937  0.2038  0.1326
  559POPI   C4A 8930  18.234  19.218   8.152 -0.0462  0.2600  0.1566
  559POPI   C1B 8931  18.890  18.426   8.859 -0.1401  0.1184 -0.2074
  559POPI   C2B 8932  18.977  18.408   8.412 -0.0936 -0.0069  0.4270
  559POPI   C3B 8933  19.021  18.571   7.963  0.1620  0.1220 -0.0721
  559POPI   C4B 8934  18.995  18.899   7.690  0.2955  0.0929 -0.2349
  560POPI    C1 8935  11.783   5.583   9.819 -0.0360 -0.0290 -0.2523
  560POPI    C2 8936  11.887   5.890   9.585  0.2208  0.0146 -0.0851
  560POPI    C3 8937  11.907   5.926   9.983  0.0457 -0.1485 -0.0602
  560POPI   PO4 8938  11.904   5.410   9.675  0.1880 -0.1406 -0.0772
  560POPI   GL1 8939  12.123   5.560   9.323 -0.0652 -0.0392  0.2336
  560POPI   GL2 8940  12.427   5.567   9.168 -0.1878 -0.4689  0.2277
  560POPI   C1A 8941  12.083   5.921   9.129  0.0002  0.1456 -0.0553
  560POPI   D2A 8942  12.045   6.160   8.781 -0.0936  0.2037  0.2078
  560POPI   C3A 8943  12.087   5.991   8.338 -0.3891 -0.3506 -0.2379
  560POPI   C4A 8944  12.164   6.054   7.920 -0.0788  0.1151 -0.0919
  560POPI   C1B 8945  12.211   5.512   8.801 -0.0552 -0.1705  0.0850
  560POPI   C2B 8946  12.162   5.440   8.337 -0.1636  0.2294  0.0414
  560POPI   C3B 8947  12.029   5.587   7.986  0.1182 -0.0992 -0.0057
  560POPI   C4B 8948  11.759   5.693   7.713 -0.2272  0.0354 -0.0510
  561POPI    C1 8949  15.543  11.423   9.745  0.1142 -0.4797 -0.1150
  561POPI    C2 8950  15.859  11.406   9.990 -0.1096 -0.0868  0.2125
  561POPI    C3 8951  15.506  11.258  10.108 -0.1159 -0.2844 -0.0467
  561POPI   PO4 8952  15.626  11.302   9.549  0.1561 -0.0799 -0.2620
  561POPI   GL1 8953  15.779  11.369   9.109 -0.0969  0.1323 -0.2654
  561POPI   GL2 8954  15.882  11.025   9.221 -0.0850 -0.0149 -0.3792
  561POPI   C1A 8955  15.765  11.229   8.821  0.2922  0.1216 -0.0492
  561POPI   D2A 8956  15.882  11.295   8.439 -0.4457 -0.1553 -0.1629
  561POPI   C3A 8957  15.810  11.000   8.047 -0.1513  0.0266  0.0204
  561POPI   C4A 8958  15.665  10.564   7.922  0.1122  0.1634  0.1383
  561POPI   C1B 8959  16.134  10.816   8.933 -0.3979  0.0936 -0.1215
  561POPI   C2B 8960  16.201  10.774   8.521 -0.0867 -0.0617 -0.0492
  561POPI   C3B 8961  16.240  10.755   7.988  0.0105  0.0675  0.0153
  561POPI   C4B 8962  15.986  10.742   7.623  0.2224  0.1610  0.0433
  562POPI    C1 8963   6.520   1.270  10.227  0.1274 -0.1814  0.1042
  562POPI    C2 8964   6.577   1.057  10.561 -0.2785 -0.0197  0.2836
  562POPI    C3 8965   6.213   1.079  10.398 -0.1714  0.2593  0.0748
  562POPI   PO4 8966   6.682   1.208  10.019 -0.1662  0.0265 -0.0590
  562POPI   GL1 8967   6.732   1.546   9.683  0.0004  0.0421 -0.1469
  562POPI   GL2 8968   6.974   1.732   9.748 -0.3147  0.1674 -0.0222
  562POPI   C1A 8969   6.676   1.320   9.298  0.2079 -0.1614  0.1320
  562POPI   D2A 8970   6.562   1.178   8.864 -0.1783  0.0451 -0.0208
  562POPI   C3A 8971   6.605   0.747   8.732 -0.1296 -0.0709  0.0308
  562POPI   C4A 8972   6.929   0.515   8.437 -0.0285  0.2098 -0.0404
  562POPI   C1B 8973   7.150   2.130   9.554 -0.1610  0.1329 -0.0247
  562POPI   C2B 8974   7.346   2.398   9.239 -0.2424 -0.0266 -0.0977
  562POPI   C3B 8975   7.394   2.473   8.753  0.0018  0.2403 -0.4359
  562POPI   C4B 8976   7.218   2.470   8.495 -0.1939 -0.0530  0.1450
  563POPI    C1 8977  10.369  12.622  10.283 -0.0878 -0.1942  0.1279
  563POPI    C2 8978  10.050  12.807  10.437 -0.0096 -0.0126  0.0746
  563POPI    C3 8979  10.418  12.930  10.534  0.0407  0.1049 -0.2551
  563POPI   PO4 8980  10.248  12.553   9.993  0.1020  0.0971  0.1000
  563POPI   GL1 8981  10.361  12.677   9.573  0.1139  0.1247 -0.4364
  563POPI   GL2 8982  10.660  12.909   9.644 -0.0005 -0.4200 -0.0651
  563POPI   C1A 8983  10.444  12.794   9.134 -0.1428  0.2278  0.0992
  563POPI   D2A 8984   9.973  12.721   8.827  0.0138 -0.1253 -0.1865
  563POPI   C3A 8985  10.135  12.445   8.491  0.1934 -0.0905  0.0272
  563POPI   C4A 8986  10.539  12.442   8.332  0.0728 -0.1806 -0.3068
  563POPI   C1B 8987  10.833  13.127   9.321  0.0035  0.0403  0.1605
  563POPI   C2B 8988  10.871  13.030   8.931 -0.2021 -0.0842 -0.0284
  563POPI   C3B 8989  10.877  13.266   8.541 -0.1899 -0.0538 -0.3318
  563POPI   C4B 8990  11.116  13.607   8.483  0.1414  0.0110  0.0524
  564POPI    C1 8991   9.865  12.312  10.456  0.0946  0.0349  0.2218
  564POPI    C2 8992   9.710  11.943  10.457  0.0549  0.0502  0.0622
  564POPI    C3 8993  10.051  12.017  10.652  0.1148 -0.0932  0.0132
  564POPI   PO4 8994   9.825  12.346  10.175 -0.0018 -0.1767  0.0630
  564POPI   GL1 8995   9.895  12.311   9.660 -0.1579  0.0599 -0.1222
  564POPI   GL2 8996   9.819  12.719   9.513 -0.0895 -0.1651 -0.1839
  564POPI   C1A 8997   9.906  12.335   9.266 -0.1344 -0.0812 -0.1266
  564POPI   D2A 8998   9.719  12.330   8.788 -0.1287 -0.0813  0.2896
  564POPI   C3A 8999   9.644  12.614   8.463  0.1456 -0.4448  0.1250
  564POPI   C4A 9000   9.366  12.646   8.054 -0.1071  0.0167 -0.0761
  564POPI   C1B 9001   9.635  12.792   9.156 -0.1128 -0.3242  0.1185
  564POPI   C2B 9002   9.487  12.917   8.821 -0.0442 -0.1665 -0.4247
  564POPI   C3B 9003   9.564  13.102   8.291 -0.1276  0.1305 -0.0682
  564POPI   C4B 9004   9.340  13.473   8.215 -0.0734 -0.1570 -0.2512
  565POPI    C1 9005  17.154  13.373   9.371 -0.2369  0.1066 -0.0609
  565POPI    C2 9006  17.310  13.263   9.723 -0.1715 -0.1668 -0.1725
  565POPI    C3 9007  16.913  13.295   9.680 -0.1757 -0.0447 -0.0507
  565POPI   PO4 9008  17.228  13.140   9.245 -0.1352  0.4329 -0.1874
  565POPI   GL1 9009  17.495  13.130   8.981  0.0302 -0.0029 -0.3767
  565POPI   GL2 9010  17.510  12.814   8.906 -0.1748 -0.0007 -0.1736
  565POPI   C1A 9011  17.407  13.141   8.481 -0.2169 -0.1095  0.1560
  565POPI   D2A 9012  17.480  12.894   8.165  0.1353 -0.0557 -0.3662
  565POPI   C3A 9013  17.290  12.852   7.735  0.1701 -0.1261 -0.2159
  565POPI   C4A 9014  17.594  13.017   7.410  0.4679 -0.1307  0.5395
  565POPI   C1B 9015  17.701  12.729   8.538  0.0271  0.0688 -0.2989
  565POPI   C2B 9016  17.686  12.426   8.150  0.1442 -0.3794 -0.1359
  565POPI   C3B 9017  17.801  12.641   7.720 -0.0159  0.1922 -0.1326
  565POPI   C4B 9018  17.979  12.589   7.266  0.0366 -0.1139  0.0806
  566POPI    C1 9019  15.437   1.675  10.202  0.0532 -0.2215 -0.0641
  566POPI    C2 9020  15.806   1.571  10.316 -0.0645 -0.3428  0.2136
  566POPI    C3 9021  15.577   1.796  10.556 -0.0244  0.0831 -0.1343
  566POPI   PO4 9022  15.468   1.748   9.857 -0.1843  0.2200 -0.0752
  566POPI   GL1 9023  15.526   1.694   9.513 -0.0176  0.1125  0.0969
  566POPI   GL2 9024  15.782   1.677   9.410  0.3159  0.1652  0.0339
  566POPI   C1A 9025  15.197   1.987   9.219 -0.1100 -0.0250  0.1490
  566POPI   D2A 9026  14.843   1.985   9.062  0.0421  0.1954 -0.1171
  566POPI   C3A 9027  14.859   2.069   8.597 -0.2678  0.2355 -0.0074
  566POPI   C4A 9028  15.102   2.220   8.286  0.2087 -0.1264 -0.2025
  566POPI   C1B 9029  15.554   1.626   8.989 -0.1758 -0.3400  0.0853
  566POPI   C2B 9030  15.542   1.481   8.582 -0.5319  0.3449 -0.1443
  566POPI   C3B 9031  15.267   1.603   8.229 -0.1601 -0.0426 -0.0938
  566POPI   C4B 9032  14.999   1.787   8.073 -0.1952 -0.1903 -0.4003
  567POPI    C1 9033   7.303   8.016  10.427  0.0088 -0.0490  0.1412
  567POPI    C2 9034   6.941   7.861  10.358 -0.1051  0.3905 -0.3038
  567POPI    C3 9035   6.975   8.221  10.529  0.1356  0.2201  0.0171
  567POPI   PO4 9036   7.375   7.912  10.130 -0.1838 -0.1015  0.1052
  567POPI   GL1 9037   7.156   7.638   9.888 -0.0007  0.0382  0.0626
  567POPI   GL2 9038   7.268   7.783   9.659 -0.0281  0.0491  0.1200
  567POPI   C1A 9039   6.994   7.425   9.609 -0.0631  0.0542 -0.2037
  567POPI   D2A 9040   6.981   7.276   9.219  0.0089 -0.0994 -0.3710
  567POPI   C3A 9041   6.905   7.164   8.791  0.1625 -0.1516 -0.2035
  567POPI   C4A 9042   6.594   7.061   8.441 -0.0194 -0.3632 -0.1044
  567POPI   C1B 9043   7.398   8.173   9.588 -0.4013 -0.3078  0.0445
  567POPI   C2B 9044   7.556   8.159   9.221  0.1850 -0.1311 -0.2721
  567POPI   C3B 9045   7.663   8.375   8.878 -0.3327  0.0726  0.1253
  567POPI   C4B 9046   7.734   8.461   8.456  0.0065  0.0551 -0.2302
  568POPI    C1 9047   4.355   9.793   9.803 -0.3726 -0.1803  0.0453
  568POPI    C2 9048   4.617   9.839  10.102 -0.1531  0.0274 -0.1743
  568POPI    C3 9049   4.235   9.750  10.183 -0.0703 -0.0398  0.1602
  568POPI   PO4 9050   4.450   9.929   9.606 -0.0816  0.1055 -0.3717
  568POPI   GL1 9051   4.391  10.008   9.218  0.1466  0.1223  0.4102
  568POPI   GL2 9052   4.505  10.258   9.269 -0.0750  0.2435 -0.1787
  568POPI   C1A 9053   4.248   9.742   8.871 -0.0408  0.1329 -0.1345
  568POPI   D2A 9054   4.235   9.252   8.782 -0.0504  0.4049  0.0200
  568POPI   C3A 9055   3.850   9.125   8.503 -0.3724 -0.0117 -0.0972
  568POPI   C4A 9056   3.609   9.341   8.106 -0.1006  0.3277  0.1198
  568POPI   C1B 9057   4.627  10.236   8.833 -0.2909 -0.1260  0.0620
  568POPI   C2B 9058   4.397  10.032   8.404 -0.2830  0.0963 -0.4780
  568POPI   C3B 9059   4.479   9.768   8.087 -0.0080 -0.2142 -0.1609
  568POPI   C4B 9060   4.359   9.483   7.785  0.0599 -0.0578 -0.0153
  569POPI    C1 9061  15.138   7.134   9.996  0.0362  0.2810  0.0222
  569POPI    C2 9062  15.521   7.022  10.022 -0.0172  0.0942  0.0204
  569POPI    C3 9063  15.375   7.292  10.278  0.1204  0.1822  0.0076
  569POPI   PO4 9064  15.060   6.905   9.811 -0.1405 -0.0548  0.2948
  569POPI   GL1 9065  15.061   6.957   9.346  0.3431  0.1061  0.2678
  569POPI   GL2 9066  15.207   6.747   9.191 -0.2407 -0.0180 -0.4876
  569POPI   C1A 9067  14.816   7.064   8.971  0.0336 -0.2295 -0.1888
  569POPI   D2A 9068  14.624   6.983   8.619  0.1762 -0.3654 -0.5489
  569POPI   C3A 9069  14.404   6.802   8.261  0.0639 -0.1640 -0.0062
  569POPI   C4A 9070  14.481   6.847   7.867  0.0961  0.0378 -0.0813
  569POPI   C1B 9071  15.106   6.650   8.815 -0.1765  0.3480 -0.3267
  569POPI   C2B 9072  14.903   6.712   8.426  0.2038 -0.1118 -0.0957
  569POPI   C3B 9073  14.844   6.534   8.117 -0.2945  0.3996  0.1158
  569POPI   C4B 9074  14.694   6.404   7.648 -0.0605  0.0129  0.0185
  570DPPI    C1 9075   0.509   7.857  10.047  0.1403 -0.1341 -0.1261
  570DPPI    C2 9076   0.123   7.759  10.090  0.0899  0.1285  0.0426
  570DPPI    C3 9077   0.396   7.610  10.342  0.0643  0.1362  0.0751
  570DPPI   PO4 9078   0.592   7.817   9.729 -0.3523  0.0982 -0.1327
  570DPPI   GL1 9079   0.647   7.737   9.306 -0.1732 -0.0385  0.0233
  570DPPI   GL2 9080   0.465   7.658   9.018  0.0614  0.0420  0.3824
  570DPPI   C1A 9081   0.997   7.760   9.001  0.1535 -0.0002  0.3792
  570DPPI   C2A 9082   1.186   7.889   8.682  0.1061  0.2030 -0.5604
  570DPPI   C3A 9083   1.341   7.798   8.224 -0.1521  0.0225 -0.0495
  570DPPI   C4A 9084   1.434   7.660   7.812  0.1874  0.3023  0.2430
  570DPPI   C1B 9085   0.707   7.564   8.650  0.1372  0.4435 -0.1039
  570DPPI   C2B 9086   0.801   7.659   8.417  0.1193 -0.1311  0.0335
  570DPPI   C3B 9087   0.863   7.755   8.004 -0.5080  0.1868 -0.1255
  570DPPI   C4B 9088   0.924   7.995   7.618 -0.1379  0.2457  0.1704
  571DPPI    C1 9089   8.693   4.242   9.765 -0.3605  0.1916 -0.1607
  571DPPI    C2 9090   8.478   4.194  10.099 -0.1686  0.1288 -0.0446
  571DPPI    C3 9091   8.698   4.524  10.048 -0.0050  0.0281  0.0021
  571DPPI   PO4 9092   8.623   4.261   9.593  0.0030  0.4166 -0.1514
  571DPPI   GL1 9093   8.226   4.380   9.216  0.0047 -0.0575 -0.3649
  571DPPI   GL2 9094   8.475   4.595   9.153 -0.2544  0.2389  0.0034
  571DPPI   C1A 9095   8.121   4.292   8.787 -0.0108  0.2167  0.0746
  571DPPI   C2A 9096   8.303   4.354   8.384  0.2741  0.0296 -0.0712
  571DPPI   C3A 9097   8.261   4.447   7.971 -0.0539  0.1180  0.0368
  571DPPI   C4A 9098   8.047   4.234   7.626  0.0398  0.2681  0.0923
  571DPPI   C1B 9099   8.402   4.712   8.797  0.0499  0.0722  0.2908
  571DPPI   C2B 9100   8.492   4.902   8.387  0.0570  0.0332 -0.2263
  571DPPI   C3B 9101   8.387   4.900   7.982 -0.1112  0.1756 -0.1255
  571DPPI   C4B 9102   8.183   5.084   7.719 -0.0216  0.2419  0.0965
  572DPPI    C1 9103   4.793   7.386   9.974 -0.0521 -0.0533  0.0227
  572DPPI    C2 9104   4.978   7.059  10.113  0.1262  0.1119  0.1803
  572DPPI    C3 9105   4.595   7.129  10.207  0.0531 -0.1076  0.0526
  572DPPI   PO4 9106   4.762   7.316   9.710 -0.1929 -0.3509 -0.3255
  572DPPI   GL1 9107   4.551   7.383   9.325 -0.2800 -0.0114  0.0432
  572DPPI   GL2 9108   4.216   7.584   9.385 -0.3804  0.1011 -0.3344
  572DPPI   C1A 9109   4.753   7.575   9.019 -0.2277 -0.0781  0.1295
  572DPPI   C2A 9110   4.963   7.457   8.621 -0.1465 -0.2183 -0.3217
  572DPPI   C3A 9111   4.923   7.301   8.241 -0.0485 -0.0428  0.0730
  572DPPI   C4A 9112   4.753   7.187   7.679  0.0721  0.4211  0.3683
  572DPPI   C1B 9113   4.274   7.675   8.942 -0.4558  0.0992  0.0041
  572DPPI   C2B 9114   4.006   7.724   8.530  0.4288 -0.0485 -0.0579
  572DPPI   C3B 9115   4.013   7.681   8.123  0.1610 -0.0105 -0.0173
  572DPPI   C4B 9116   3.951   7.907   7.710 -0.1150  0.3568 -0.1676
  573DPPI    C1 9117  10.226  11.325  10.182 -0.0945  0.2462 -0.2481
  573DPPI    C2 9118  10.058  11.561  10.458  0.0828 -0.1153  0.1818
  573DPPI    C3 9119  10.107  11.171  10.531  0.4071 -0.1624 -0.2458
  573DPPI   PO4 9120  10.189  11.331   9.956 -0.3828  0.0570 -0.0695
  573DPPI   GL1 9121  10.454  11.464   9.608  0.2207  0.0550  0.0482
  573DPPI   GL2 9122  10.792  11.556   9.620 -0.1038 -0.0666  0.0440
  573DPPI   C1A 9123  10.133  11.489   9.221  0.1286  0.0928 -0.0801
  573DPPI   C2A 9124  10.095  11.363   8.848  0.4147  0.0794  0.1929
  573DPPI   C3A 9125   9.878  11.443   8.419  0.0154  0.0453 -0.1514
  573DPPI   C4A 9126   9.922  11.531   8.018  0.0404 -0.0901  0.1364
  573DPPI   C1B 9127  11.001  11.518   9.234 -0.0991  0.0607  0.3437
  573DPPI   C2B 9128  11.020  11.445   8.701  0.2041  0.1182 -0.1072
  573DPPI   C3B 9129  10.925  11.658   8.344  0.1758 -0.2936  0.0385
  573DPPI   C4B 9130  10.804  12.011   8.078 -0.1855 -0.0452 -0.4152
  574DPPI    C1 9131   1.017  15.235   9.447  0.0187 -0.0859 -0.3083
  574DPPI    C2 9132   1.355  15.071   9.583  0.0711  0.1248 -0.1795
  574DPPI    C3 9133   1.053  14.837   9.464  0.2291 -0.0640 -0.2146
  574DPPI   PO4 9134   1.152  15.432   9.312 -0.3058 -0.0571 -0.1453
  574DPPI   GL1 9135   0.943  15.445   8.885  0.1931 -0.3718  0.0318
  574DPPI   GL2 9136   0.664  15.484   8.757  0.0094 -0.0395  0.3403
  574DPPI   C1A 9137   0.995  15.255   8.419  0.4984  0.1120  0.2046
  574DPPI   C2A 9138   1.033  15.031   8.057  0.0905 -0.1467 -0.1097
  574DPPI   C3A 9139   0.711  14.965   7.595 -0.1199 -0.3337 -0.0114
  574DPPI   C4A 9140   0.587  14.850   7.223  0.1330  0.0078  0.1218
  574DPPI   C1B 9141   0.594  15.640   8.278 -0.1042  0.1156  0.1592
  574DPPI   C2B 9142   0.614  15.380   7.920 -0.2046  0.2766  0.3263
  574DPPI   C3B 9143   0.778  15.430   7.532  0.2304 -0.1280  0.1585
  574DPPI   C4B 9144   1.012  15.783   7.363 -0.1810 -0.1441  0.1520
  575DPPI    C1 9145   5.247  17.617   9.905 -0.0266 -0.2460 -0.1868
  575DPPI    C2 9146   5.595  17.458  10.021 -0.0438 -0.1703 -0.0283
  575DPPI    C3 9147   5.338  17.597  10.294 -0.1436 -0.1105 -0.1516
  575DPPI   PO4 9148   5.262  17.469   9.630 -0.0238  0.1218 -0.0371
  575DPPI   GL1 9149   5.340  17.609   9.125  0.0507 -0.1685 -0.3456
  575DPPI   GL2 9150   5.146  17.780   9.256  0.0266 -0.0240  0.1027
  575DPPI   C1A 9151   5.458  17.582   8.796 -0.0565  0.2314  0.0700
  575DPPI   C2A 9152   5.528  17.695   8.276  0.3052  0.3302 -0.2553
  575DPPI   C3A 9153   5.321  17.961   8.050  0.1057  0.2844  0.0863
  575DPPI   C4A 9154   5.157  18.201   7.794 -0.2199 -0.1147  0.2533
  575DPPI   C1B 9155   4.920  17.627   8.945 -0.0306  0.2647  0.1432
  575DPPI   C2B 9156   4.966  17.694   8.608  0.3444 -0.2644  0.1619
  575DPPI   C3B 9157   4.909  17.888   8.287 -0.1976  0.1068  0.1233
  575DPPI   C4B 9158   4.667  18.049   7.890 -0.0406  0.0708 -0.2768
  576DPPI    C1 9159  11.031  10.199   9.840 -0.2598 -0.0557  0.0998
  576DPPI    C2 9160  11.325  10.055  10.069 -0.3190 -0.0016  0.2105
  576DPPI    C3 9161  10.974  10.153  10.233 -0.2982  0.2158  0.1276
  576DPPI   PO4 9162  11.160  10.227   9.593 -0.0585  0.0128  0.3110
  576DPPI   GL1 9163  11.252  10.257   9.172 -0.2138 -0.2195 -0.2175
  576DPPI   GL2 9164  10.917  10.052   9.168 -0.0545 -0.0946  0.0852
  576DPPI   C1A 9165  11.339  10.159   8.712 -0.0960  0.2579  0.2205
  576DPPI   C2A 9166  11.262   9.917   8.277 -0.1392  0.1526 -0.1186
  576DPPI   C3A 9167  11.304   9.583   8.051  0.5212  0.0956  0.2647
  576DPPI   C4A 9168  11.120   9.400   7.754 -0.0816  0.2269 -0.0342
  576DPPI   C1B 9169  10.842  10.055   8.713 -0.0275 -0.2315  0.0739
  576DPPI   C2B 9170  10.782   9.714   8.464 -0.2505 -0.1797 -0.1815
  576DPPI   C3B 9171  10.615   9.659   8.010  0.2019  0.4062 -0.0011
  576DPPI   C4B 9172  10.158   9.750   7.899  0.1416  0.0669  0.0049
  577DPPI    C1 9173  10.458  10.266   9.752 -0.0495 -0.3246 -0.1235
  577DPPI    C2 9174  10.169  10.426   9.978  0.2240  0.2176 -0.1402
  577DPPI    C3 9175  10.541  10.397  10.121  0.1633 -0.5297 -0.0967
  577DPPI   PO4 9176  10.304  10.050   9.644 -0.0550 -0.2014  0.2182
  577DPPI   GL1 9177  10.421   9.780   9.283  0.3244  0.1474 -0.0018
  577DPPI   GL2 9178  10.702   9.498   9.272  0.0455  0.1202 -0.3097
  577DPPI   C1A 9179  10.314   9.834   8.850  0.2979 -0.1268 -0.0967
  577DPPI   C2A 9180  10.266   9.767   8.378  0.3350  0.2686  0.1051
  577DPPI   C3A 9181  10.358  10.100   8.176 -0.2479 -0.2053 -0.0390
  577DPPI   C4A 9182  10.360  10.180   7.728 -0.0638 -0.1071 -0.1211
  577DPPI   C1B 9183  10.828   9.371   8.831  0.0530 -0.2952  0.0643
  577DPPI   C2B 9184  10.504   9.287   8.450  0.0096  0.6370 -0.1815
  577DPPI   C3B 9185  10.330   9.159   8.081  0.0002 -0.1191 -0.0756
  577DPPI   C4B 9186   9.992   9.222   7.662 -0.3396 -0.0915  0.2025
  578DPPI    C1 9187   3.060   1.993  10.708  0.0395  0.1072  0.0662
  578DPPI    C2 9188   3.439   1.875  10.755  0.0597  0.0310 -0.2671
  578DPPI    C3 9189   3.276   2.131  11.015  0.2667 -0.1114  0.0078
  578DPPI   PO4 9190   3.063   2.100  10.371  0.1567 -0.1619 -0.0465
  578DPPI   GL1 9191   3.167   2.134   9.933  0.0698  0.0418 -0.1962
  578DPPI   GL2 9192   2.997   2.334   9.820  0.2581  0.3140 -0.0238
  578DPPI   C1A 9193   3.010   1.860   9.547  0.1638 -0.1801  0.3817
  578DPPI   C2A 9194   3.071   1.783   9.090 -0.2377  0.3594 -0.3385
  578DPPI   C3A 9195   3.219   1.776   8.725 -0.1813 -0.0576  0.1802
  578DPPI   C4A 9196   3.155   2.008   8.381  0.4579  0.1028  0.1193
  578DPPI   C1B 9197   2.963   2.524   9.351 -0.0304  0.1598  0.0173
  578DPPI   C2B 9198   3.007   2.778   9.088 -0.0687 -0.0456 -0.2072
  578DPPI   C3B 9199   2.985   3.056   8.886 -0.0152  0.0968  0.3016
  578DPPI   C4B 9200   3.096   3.178   8.517 -0.1197  0.0330 -0.5994
  579PYPI    C1 9201   4.208   6.800  10.060 -0.4502  0.0832 -0.0171
  579PYPI    C2 9202   3.917   6.776  10.333 -0.1658  0.0658  0.2901
  579PYPI    C3 9203   4.293   6.851  10.447  0.0148 -0.2649 -0.0646
  579PYPI   PO4 9204   4.116   6.962   9.908 -0.1087 -0.1880  0.0585
  579PYPI   GL1 9205   4.010   7.016   9.550 -0.0086 -0.0818 -0.3162
  579PYPI   GL2 9206   3.932   6.701   9.434 -0.1214 -0.2394 -0.3682
  579PYPI   C1A 9207   4.207   7.126   9.147 -0.0631  0.0672  0.2289
  579PYPI   C2A 9208   4.422   7.163   8.816  0.0344  0.2248 -0.2757
  579PYPI   D3A 9209   4.345   7.281   8.500  0.0284 -0.1107  0.0293
  579PYPI   C4A 9210   4.545   7.686   8.479 -0.1809 -0.0449  0.1045
  579PYPI   C1B 9211   4.004   6.741   8.925 -0.0213  0.0535 -0.1468
  579PYPI   C2B 9212   4.002   6.839   8.498 -0.1267  0.0147  0.0151
  579PYPI   C3B 9213   4.142   7.039   8.139  0.2948 -0.2239  0.2317
  579PYPI   C4B 9214   4.435   7.303   7.987 -0.2395 -0.2113  0.0137
  580PYPI    C1 9215  10.375  18.008  10.406 -0.1125 -0.2797  0.1558
  580PYPI    C2 9216  10.775  18.021  10.428 -0.1048 -0.0256 -0.0775
  580PYPI    C3 9217  10.556  18.001  10.763  0.1009 -0.1250  0.0528
  580PYPI   PO4 9218  10.346  17.790  10.239 -0.2208  0.0868 -0.0329
  580PYPI   GL1 9219  10.267  17.806   9.739  0.2228 -0.1293  0.0285
  580PYPI   GL2 9220  10.501  17.456   9.740 -0.1964 -0.0032  0.0535
  580PYPI   C1A 9221  10.380  17.815   9.351  0.3336  0.3157  0.1404
  580PYPI   C2A 9222  10.504  17.652   8.885 -0.1920  0.0313  0.0453
  580PYPI   D3A 9223  10.628  17.357   8.468 -0.0797  0.0757  0.1720
  580PYPI   C4A 9224  10.299  17.330   8.097 -0.1008 -0.1315 -0.2839
  580PYPI   C1B 9225  10.179  17.390   9.506  0.0288  0.0554  0.0521
  580PYPI   C2B 9226   9.996  17.050   9.315 -0.1444  0.2725 -0.2545
  580PYPI   C3B 9227  10.334  16.726   9.234  0.2234  0.2272 -0.1920
  580PYPI   C4B 9228  10.714  16.651   9.216 -0.3450 -0.1404  0.1499
  581PYPI    C1 9229  11.500  11.865  10.363  0.0607 -0.3145 -0.2222
  581PYPI    C2 9230  11.835  12.071  10.439 -0.1099 -0.0879 -0.0696
  581PYPI    C3 9231  11.809  11.685  10.543  0.0021 -0.0316  0.1748
  581PYPI   PO4 9232  11.434  11.904  10.119 -0.4001  0.1847 -0.1208
  581PYPI   GL1 9233  11.500  11.872   9.666 -0.4071  0.3159 -0.1417
  581PYPI   GL2 9234  11.363  11.546   9.665 -0.0036  0.1270 -0.1151
  581PYPI   C1A 9235  11.229  12.048   9.291 -0.3436  0.0924 -0.2532
  581PYPI   C2A 9236  10.814  11.941   9.143  0.0195 -0.0530  0.2982
  581PYPI   D3A 9237  10.566  11.614   8.944  0.0390 -0.1514 -0.0472
  581PYPI   C4A 9238  10.485  11.469   8.512  0.3877 -0.0841  0.2637
  581PYPI   C1B 9239  11.498  11.492   9.357  0.1696  0.3253 -0.0811
  581PYPI   C2B 9240  11.465  11.641   8.974  0.4073  0.1734  0.1129
  581PYPI   C3B 9241  11.158  11.939   8.710 -0.1133  0.1550  0.0449
  581PYPI   C4B 9242  10.724  11.987   8.641  0.0613 -0.1543 -0.1101
  582PYPI    C1 9243  13.516   6.906   9.819  0.1380  0.0377 -0.2425
  582PYPI    C2 9244  13.356   7.188  10.052  0.1127  0.1031 -0.3380
  582PYPI    C3 9245  13.681   6.989  10.173 -0.0620 -0.0577 -0.1251
  582PYPI   PO4 9246  13.376   6.957   9.651 -0.1623  0.1426  0.2034
  582PYPI   GL1 9247  13.231   6.743   9.324  0.1031  0.0203 -0.1032
  582PYPI   GL2 9248  13.457   6.957   9.101  0.2015  0.0058 -0.0409
  582PYPI   C1A 9249  13.138   6.687   8.837  0.0677  0.1749 -0.4285
  582PYPI   C2A 9250  13.234   6.884   8.421  0.3917  0.2719  0.0055
  582PYPI   D3A 9251  13.344   6.826   7.975  0.0562  0.3639  0.2655
  582PYPI   C4A 9252  13.578   6.480   7.937  0.0410  0.0228  0.0535
  582PYPI   C1B 9253  13.689   6.686   8.759  0.2297  0.1450 -0.2797
  582PYPI   C2B 9254  13.498   6.488   8.386 -0.1998 -0.1137 -0.0026
  582PYPI   C3B 9255  13.721   6.117   8.199  0.2036  0.1398  0.1711
  582PYPI   C4B 9256  13.446   5.777   8.341 -0.2889  0.0307  0.2612
  583PYPI    C1 9257   1.253   3.464  10.414 -0.0630 -0.2174  0.1019
  583PYPI    C2 9258   1.341   3.850  10.477  0.1299 -0.1995 -0.2540
  583PYPI    C3 9259   1.503   3.568  10.709 -0.0966 -0.0627  0.0769
  583PYPI   PO4 9260   1.250   3.518  10.101  0.2180  0.3247 -0.4211
  583PYPI   GL1 9261   1.314   3.565   9.653  0.0678 -0.0761 -0.0562
  583PYPI   GL2 9262   1.379   3.854   9.655  0.2553  0.1224  0.0084
  583PYPI   C1A 9263   1.402   3.268   9.350  0.0584  0.2182 -0.1303
  583PYPI   C2A 9264   1.220   3.227   8.906  0.0755 -0.0113 -0.1228
  583PYPI   D3A 9265   1.001   3.141   8.512  0.1193 -0.2521  0.2596
  583PYPI   C4A 9266   1.137   3.112   8.022 -0.2725  0.1077 -0.1232
  583PYPI   C1B 9267   1.294   3.793   9.251  0.0477  0.0407 -0.2566
  583PYPI   C2B 9268   1.276   3.699   8.794  0.3127  0.0377 -0.1179
  583PYPI   C3B 9269   0.999   3.656   8.528  0.0224  0.0020 -0.2226
  583PYPI   C4B 9270   1.012   3.578   8.033  0.3322 -0.2490 -0.0469
  584PYPI    C1 9271  13.631   2.742   9.701 -0.1230  0.0057  0.2669
  584PYPI    C2 9272  13.680   3.136   9.746  0.1393 -0.0142  0.1711
  584PYPI    C3 9273  13.793   2.958   9.406 -0.2295 -0.1315  0.1053
  584PYPI   PO4 9274  13.395   2.655   9.742  0.0133  0.0950 -0.0729
  584PYPI   GL1 9275  13.221   2.579   9.300  0.0762 -0.1416 -0.1429
  584PYPI   GL2 9276  12.937   2.754   9.153 -0.1208 -0.0523  0.3549
  584PYPI   C1A 9277  13.207   2.558   8.842 -0.0842  0.2542 -0.0237
  584PYPI   C2A 9278  13.139   2.499   8.384 -0.0933 -0.0567  0.0162
  584PYPI   D3A 9279  13.190   2.380   7.930  0.5916 -0.0010 -0.1770
  584PYPI   C4A 9280  13.029   2.605   7.553  0.2786 -0.0119  0.0330
  584PYPI   C1B 9281  12.822   2.832   8.659  0.1813 -0.2350 -0.0925
  584PYPI   C2B 9282  12.486   2.919   8.489 -0.2493  0.1257  0.1399
  584PYPI   C3B 9283  12.337   2.940   8.105 -0.0868  0.2131 -0.1002
  584PYPI   C4B 9284  12.591   2.896   7.620 -0.0046  0.1649 -0.2050
  585ERGO   ROH 9285  18.685  17.747   5.740 -0.0882  0.1034  0.0813
  585ERGO    R1 9286  18.910  17.747   5.912 -0.0227 -0.0832 -0.0026
  585ERGO    R2 9287  18.937  17.924   6.123  0.2260 -0.0712 -0.0442
  585ERGO    R3 9288  18.971  17.696   6.267  0.0624 -0.0793 -0.0157
  585ERGO    R4 9289  19.065  17.910   6.443  0.3507 -0.1308 -0.0956
  585ERGO    R5 9290  19.175  17.731   6.387  0.1520 -0.2547 -0.1100
  585ERGO    C1 9291  19.172  17.688   6.766  0.2694 -0.1733 -0.0988
  585ERGO    C2 9292  19.154  17.525   7.032  0.1930  0.2021  0.1709
  586ERGO   ROH 9293  14.220   8.597   8.921 -0.0579 -0.4242  0.1737
  586ERGO    R1 9294  14.272   8.444   8.688 -0.2320 -0.4081  0.1235
  586ERGO    R2 9295  14.075   8.382   8.503 -0.2499  0.1179 -0.0426
  586ERGO    R3 9296  14.250   8.494   8.329  0.1135 -0.1552  0.1322
  586ERGO    R4 9297  14.102   8.299   8.169 -0.2954  0.3044 -0.0943
  586ERGO    R5 9298  14.318   8.313   8.188 -0.2510 -0.2254  0.0290
  586ERGO    C1 9299  14.282   8.356   7.810  0.0192  0.1565  0.0398
  586ERGO    C2 9300  14.188   8.519   7.468 -0.0769  0.1341 -0.4944
  587ERGO   ROH 9301  15.434   4.336   8.845  0.1681 -0.0045  0.0749
  587ERGO    R1 9302  15.452   4.341   8.563  0.1776  0.1039  0.0769
  587ERGO    R2 9303  15.691   4.304   8.429  0.1244 -0.2133  0.0659
  587ERGO    R3 9304  15.552   4.108   8.301 -0.1893  0.0661 -0.0365
  587ERGO    R4 9305  15.745   4.204   8.102  0.1769 -0.3229  0.1075
  587ERGO    R5 9306  15.529   4.188   8.076  0.1500  0.1228 -0.0587
  587ERGO    C1 9307  15.647   3.962   7.792 -0.0871 -0.1244  0.0358
  587ERGO    C2 9308  15.614   3.727   7.453  0.1957 -0.0509 -0.0091
  588ERGO   ROH 9309  13.137  16.390   5.991 -0.1527 -0.3289  0.0862
  588ERGO    R1 9310  13.189  16.393   6.269 -0.0903 -0.2453  0.0749
  588ERGO    R2 9311  13.256  16.165   6.410  0.0175 -0.1926  0.1169
  588ERGO    R3 9312  13.471  16.314   6.487 -0.0144 -0.1019  0.0285
  588ERGO    R4 9313  13.415  16.141   6.716  0.1626 -0.1291  0.0469
  588ERGO    R5 9314  13.433  16.358   6.719  0.0691 -0.1242  0.0444
  588ERGO    C1 9315  13.708  16.267   6.966  0.2171 -0.0072 -0.0769
  588ERGO    C2 9316  13.918  16.394   7.349 -0.0469 -0.2724 -0.4856
  589ERGO   ROH 9317  14.449   1.332   9.219 -0.2931  0.2340  0.1012
  589ERGO    R1 9318  14.418   1.500   8.993 -0.0143  0.2517  0.0718
  589ERGO    R2 9319  14.629   1.564   8.826  0.0892 -0.1765  0.0191
  589ERGO    R3 9320  14.461   1.470   8.633 -0.1286  0.0915  0.0713
  589ERGO    R4 9321  14.662   1.628   8.488  0.0083 -0.1377  0.0190
  589ERGO    R5 9322  14.445   1.651   8.476  0.0318  0.1513  0.1256
  589ERGO    C1 9323  14.524   1.577   8.110 -0.2433  0.1364  0.0678
  589ERGO    C2 9324  14.501   1.531   7.737 -0.1776 -0.1064 -0.0186
  590ERGO   ROH 9325   2.337   9.269   9.370 -0.2119 -0.1142  0.0598
  590ERGO    R1 9326   2.278   9.297   9.094 -0.1860 -0.1162  0.0555
  590ERGO    R2 9327   2.231   9.542   8.977 -0.1311 -0.1175  0.0440
  590ERGO    R3 9328   2.428   9.463   8.807 -0.1356 -0.1586  0.0554
  590ERGO    R4 9329   2.220   9.574   8.633  0.0133  0.1560  0.0604
  590ERGO    R5 9330   2.311   9.377   8.616 -0.1481  0.0835 -0.0548
  590ERGO    C1 9331   2.398   9.518   8.273  0.0932  0.2765  0.0807
  590ERGO    C2 9332   2.492   9.293   7.978  0.2650  0.0263  0.0067
  591ERGO   ROH 9333  15.286   5.378   9.065  0.0544 -0.0512 -0.0675
  591ERGO    R1 9334  15.132   5.210   8.897 -0.1207  0.0411 -0.0009
  591ERGO    R2 9335  14.937   5.308   8.727  0.1306  0.2041 -0.1979
  591ERGO    R3 9336  15.079   5.171   8.539  0.0220 -0.1967  0.0011
  591ERGO    R4 9337  14.809   5.192   8.428  0.1226  0.2125 -0.1981
  591ERGO    R5 9338  14.925   5.009   8.455 -0.2195  0.0135  0.0208
  591ERGO    C1 9339  14.867   4.995   8.078  0.0161 -0.1588 -0.0114
  591ERGO    C2 9340  14.851   4.988   7.711 -0.2432 -0.1655  0.0206
  592ERGO   ROH 9341  16.184  14.232   5.725  0.2359  0.1771 -0.0803
  592ERGO    R1 9342  16.337  14.299   5.953  0.0252  0.2953  0.0305
  592ERGO    R2 9343  16.236  14.453   6.160 -0.3174  0.0392  0.0713
  592ERGO    R3 9344  16.314  14.242   6.312 -0.0674  0.0709 -0.0115
  592ERGO    R4 9345  16.354  14.473   6.485 -0.2869  0.0434  0.0592
  592ERGO    R5 9346  16.502  14.322   6.436 -0.1362  0.2212 -0.0132
  592ERGO    C1 9347  16.495  14.286   6.816 -0.0342  0.0757 -0.0256
  592ERGO    C2 9348  16.654  14.213   7.077 -0.1307 -0.0907  0.0109
  593ERGO   ROH 9349   0.757  12.638   9.284 -0.0305  0.0189  0.0675
  593ERGO    R1 9350   0.624  12.513   9.067 -0.1136  0.1854  0.0205
  593ERGO    R2 9351   0.574  12.642   8.828  0.2530  0.2139 -0.0473
  593ERGO    R3 9352   0.703  12.428   8.722 -0.0410 -0.0398  0.0902
  593ERGO    R4 9353   0.513  12.510   8.515  0.2682  0.2807 -0.0786
  593ERGO    R5 9354   0.534  12.311   8.600 -0.1600  0.2466 -0.0302
  593ERGO    C1 9355   0.599  12.232   8.233  0.0011  0.0813  0.0323
  593ERGO    C2 9356   0.616  12.324   7.874 -0.2883 -0.2347 -0.1515
  594ERGO   ROH 9357   7.271   9.359   9.106 -0.0765  0.0422  0.1475
  594ERGO    R1 9358   7.396   9.366   8.852 -0.1050 -0.2355  0.1222
  594ERGO    R2 9359   7.321   9.199   8.645 -0.4164 -0.1791  0.1812
  594ERGO    R3 9360   7.294   9.434   8.509 -0.0579 -0.1661  0.1227
  594ERGO    R4 9361   7.238   9.226   8.310 -0.5900 -0.1299  0.2267
  594ERGO    R5 9362   7.384   9.387   8.292 -0.2882 -0.4104  0.0770
  594ERGO    C1 9363   7.165   9.461   7.988 -0.3545 -0.0891  0.1983
  594ERGO    C2 9364   7.122   9.439   7.589 -0.1505 -0.1009 -0.0258
  595ERGO   ROH 9365  10.244   6.340   8.986 -0.1204  0.4095  0.0045
  595ERGO    R1 9366  10.203   6.494   8.753  0.0356  0.2887 -0.1049
  595ERGO    R2 9367  10.381   6.494   8.541  0.0742  0.0164 -0.0781
  595ERGO    R3 9368  10.160   6.429   8.397  0.0486  0.0864 -0.0702
  595ERGO    R4 9369  10.326   6.586   8.213  0.1281 -0.0425 -0.1037
  595ERGO    R5 9370  10.117   6.624   8.263  0.1460  0.0710 -0.1218
  595ERGO    C1 9371  10.086   6.579   7.886  0.1353 -0.0111 -0.1111
  595ERGO    C2 9372   9.764   6.631   7.711 -0.1837 -0.1139  0.0127
  596ERGO   ROH 9373   6.649   0.396   6.405 -0.0761  0.1201  0.0654
  596ERGO    R1 9374   6.713   0.331   6.673  0.0121  0.0744  0.0335
  596ERGO    R2 9375   6.649   0.087   6.787 -0.0037  0.0765  0.0313
  596ERGO    R3 9376   6.915   0.080   6.843  0.0172  0.0057 -0.0737
  596ERGO    R4 9377   6.785  -0.015   7.088  0.0903  0.0576 -0.0170
  596ERGO    R5 9378   6.929   0.147   7.073  0.1290  0.0154 -0.0839
  596ERGO    C1 9379   7.113  -0.082   7.316  0.1647 -0.0199 -0.1438
  596ERGO    C2 9380   7.299  -0.279   7.387  0.0822 -0.0056 -0.2064
  597ERGO   ROH 9381  16.414   0.278   5.981 -0.0862 -0.0790  0.1200
  597ERGO    R1 9382  16.342   0.273   6.255 -0.1436 -0.0697  0.1065
  597ERGO    R2 9383  16.105   0.164   6.345 -0.1287 -0.1431  0.0715
  597ERGO    R3 9384  16.270   0.018   6.504 -0.1085 -0.0651  0.1198
  597ERGO    R4 9385  16.000  -0.048   6.597 -0.0935 -0.0905  0.1292
  597ERGO    R5 9386  16.166   0.023   6.719 -0.1145 -0.0251  0.1127
  597ERGO    C1 9387  16.095  -0.309   6.893 -0.0540  0.0134  0.2080
  597ERGO    C2 9388  15.938  -0.611   7.040  0.1254 -0.0320 -0.1794
  598ERGO   ROH 9389  16.930   7.121   5.506  0.1262  0.1966 -0.0278
  598ERGO    R1 9390  16.933   7.102   5.788  0.0751 -0.0168 -0.0385
  598ERGO    R2 9391  17.141   6.984   5.926  0.1683  0.0842 -0.0765
  598ERGO    R3 9392  17.146   7.221   6.058 -0.1088 -0.0047  0.1000
  598ERGO    R4 9393  17.285   7.034   6.236  0.2164  0.0632 -0.0962
  598ERGO    R5 9394  17.116   7.162   6.289  0.0631 -0.2106  0.0661
  598ERGO    C1 9395  17.374   7.287   6.541 -0.0157 -0.0324  0.0579
  598ERGO    C2 9396  17.618   7.377   6.817 -0.1272 -0.1777 -0.0748
  599ERGO   ROH 9397   3.423   6.716   9.299  0.0143  0.0706 -0.1725
  599ERGO    R1 9398   3.525   6.572   9.077  0.0425  0.2294 -0.2631
  599ERGO    R2 9399   3.382   6.373   8.950  0.2316  0.0105 -0.1385
  599ERGO    R3 9400   3.433   6.524   8.729 -0.1886  0.0949 -0.1855
  599ERGO    R4 9401   3.363   6.260   8.624  0.3573 -0.0934 -0.1105
  599ERGO    R5 9402   3.543   6.374   8.578  0.0938  0.3076 -0.1999
  599ERGO    C1 9403   3.400   6.335   8.227  0.0360 -0.0745 -0.1384
  599ERGO    C2 9404   3.411   6.178   7.838 -0.3413 -0.0204 -0.3162
  600ERGO   ROH 9405   8.980   7.502   5.458 -0.0487 -0.0816 -0.2285
  600ERGO    R1 9406   8.918   7.401   5.715 -0.0741 -0.0988 -0.2412
  600ERGO    R2 9407   9.077   7.215   5.844 -0.0386 -0.0414 -0.2001
  600ERGO    R3 9408   9.076   7.400   6.043 -0.1506 -0.0375 -0.2042
  600ERGO    R4 9409   9.166   7.152   6.172  0.0689  0.0368 -0.2136
  600ERGO    R5 9410   9.000   7.279   6.236 -0.0212 -0.0931 -0.1881
  600ERGO    C1 9411   9.216   7.289   6.550  0.0263  0.0861 -0.2252
  600ERGO    C2 9412   9.282   7.568   6.848  0.0306 -0.0022  0.5902
  601ERGO   ROH 9413  17.844  11.562   5.995 -0.0735  0.1014  0.0388
  601ERGO    R1 9414  17.771  11.591   6.267  0.1593  0.0092  0.1127
  601ERGO    R2 9415  17.514  11.547   6.358  0.1543  0.3297  0.2517
  601ERGO    R3 9416  17.638  11.378   6.530  0.0186  0.0098  0.0453
  601ERGO    R4 9417  17.381  11.439   6.658  0.2249  0.4117  0.3139
  601ERGO    R5 9418  17.578  11.460   6.747  0.3597  0.0114  0.1492
  601ERGO    C1 9419  17.419  11.216   6.994  0.1383  0.1591  0.1563
  601ERGO    C2 9420  17.279  11.160   7.356  0.1338 -0.3922  0.1998
  602ERGO   ROH 9421  14.027   1.588   9.222  0.1549 -0.1880 -0.0074
  602ERGO    R1 9422  13.922   1.613   8.960  0.0532 -0.0636  0.0436
  602ERGO    R2 9423  13.914   1.854   8.825  0.1330 -0.0238  0.1049
  602ERGO    R3 9424  14.047   1.714   8.634 -0.0305 -0.0566  0.0142
  602ERGO    R4 9425  13.922   1.936   8.489  0.0532  0.0583  0.1232
  602ERGO    R5 9426  13.903   1.724   8.442 -0.0984  0.0834  0.0730
  602ERGO    C1 9427  14.051   1.853   8.114 -0.1467  0.0752  0.0485
  602ERGO    C2 9428  14.084   1.758   7.878 -0.1139  0.2356  0.1532
  603ERGO   ROH 9429  11.838   0.542   9.541  0.1393  0.0485  0.0866
  603ERGO    R1 9430  11.786   0.451   9.278 -0.1115  0.2173  0.0768
  603ERGO    R2 9431  11.745   0.623   9.066  0.3936  0.3639  0.1010
  603ERGO    R3 9432  11.945   0.479   8.951 -0.0030 -0.2105  0.0827
  603ERGO    R4 9433  11.765   0.550   8.729  0.4361  0.8756 -0.0186
  603ERGO    R5 9434  11.834   0.349   8.783 -0.3614  0.4762 -0.2689
  603ERGO    C1 9435  11.964   0.371   8.425  0.0885  0.6342 -0.1055
  603ERGO    C2 9436  11.947   0.562   8.148 -0.0685 -0.1895  0.2057
  604ERGO   ROH 9437   3.662  11.204   5.651  0.1959  0.1025  0.1205
  604ERGO    R1 9438   3.674  11.102   5.914  0.1250  0.0618  0.1079
  604ERGO    R2 9439   3.911  11.020   6.031  0.0801 -0.0316  0.1292
  604ERGO    R3 9440   3.837  11.194   6.226  0.1109 -0.0361  0.1453
  604ERGO    R4 9441   4.089  11.078   6.322  0.1913  0.0449  0.0471
  604ERGO    R5 9442   3.900  11.085   6.430  0.2328 -0.0025  0.1289
  604ERGO    C1 9443   4.123  11.275   6.674  0.2850  0.0853  0.0145
  604ERGO    C2 9444   4.242  11.503   6.812 -0.4601  0.1643  0.2546
  605ERGO   ROH 9445  18.797   9.498   9.007 -0.1015 -0.3147  0.2009
  605ERGO    R1 9446  18.597   9.459   8.810 -0.1227 -0.1493  0.1836
  605ERGO    R2 9447  18.513   9.661   8.641 -0.0894 -0.0156  0.2964
  605ERGO    R3 9448  18.576   9.482   8.447 -0.1228  0.0791  0.2016
  605ERGO    R4 9449  18.374   9.656   8.325 -0.2351  0.0119  0.3616
  605ERGO    R5 9450  18.368   9.438   8.337 -0.1415  0.0247  0.2887
  605ERGO    C1 9451  18.352   9.483   7.958 -0.3513  0.1170  0.3107
  605ERGO    C2 9452  18.230   9.598   7.689 -0.0513 -0.0815  0.1132
  606ERGO   ROH 9453   4.819   6.427   9.749 -0.0864  0.0175  0.0521
  606ERGO    R1 9454   4.946   6.518   9.513  0.1410 -0.1147  0.1195
  606ERGO    R2 9455   5.093   6.351   9.349 -0.0781 -0.3103  0.1110
  606ERGO    R3 9456   4.925   6.447   9.157  0.1304  0.0292  0.0925
  606ERGO    R4 9457   5.116   6.279   9.012 -0.0764 -0.1863  0.0842
  606ERGO    R5 9458   5.067   6.486   8.968  0.2510 -0.0948  0.1607
  606ERGO    C1 9459   4.972   6.326   8.636  0.1203  0.2047  0.0513
  606ERGO    C2 9460   4.818   6.449   8.343 -0.2134 -0.2469 -0.2126
  607ERGO   ROH 9461  17.786   7.819   5.920  0.0980 -0.1368  0.0589
  607ERGO    R1 9462  17.819   8.043   6.091  0.0633 -0.0973  0.0147
  607ERGO    R2 9463  17.696   8.062   6.337 -0.0484 -0.0062 -0.0456
  607ERGO    R3 9464  17.949   8.103   6.425 -0.0800 -0.0351  0.0591
  607ERGO    R4 9465  17.794   8.326   6.537 -0.0326  0.1738 -0.2869
  607ERGO    R5 9466  17.976   8.341   6.418  0.0463 -0.0555 -0.1966
  607ERGO    C1 9467  18.089   8.519   6.736 -0.0530  0.2515 -0.3291
  607ERGO    C2 9468  18.078   8.884   6.947 -0.0194  0.0667  0.0386
  608ERGO   ROH 9469  17.537   7.744   8.861 -0.0326 -0.1508  0.0877
  608ERGO    R1 9470  17.556   7.709   8.581 -0.0774 -0.2267  0.0938
  608ERGO    R2 9471  17.403   7.523   8.443 -0.2923 -0.0836  0.1323
  608ERGO    R3 9472  17.333   7.740   8.295 -0.0508 -0.0289  0.0936
  608ERGO    R4 9473  17.394   7.533   8.097 -0.1568 -0.0906  0.1280
  608ERGO    R5 9474  17.479   7.733   8.105  0.0134 -0.1631  0.1481
  608ERGO    C1 9475  17.323   7.741   7.757  0.1489 -0.0432  0.0892
  608ERGO    C2 9476  17.274   7.572   7.504 -0.0198 -0.2861  0.1184
  609ERGO   ROH 9477   1.426  13.078   5.603  0.2131 -0.1504  0.0264
  609ERGO    R1 9478   1.491  13.103   5.878  0.1237 -0.0618  0.0399
  609ERGO    R2 9479   1.613  13.327   5.982  0.0360 -0.0028  0.0183
  609ERGO    R3 9480   1.400  13.325   6.152 -0.0159 -0.0114 -0.0462
  609ERGO    R4 9481   1.624  13.427   6.313 -0.0276 -0.1856  0.0772
  609ERGO    R5 9482   1.494  13.258   6.363 -0.1074 -0.1610 -0.0525
  609ERGO    C1 9483   1.432  13.483   6.665 -0.1134 -0.3001  0.0508
  609ERGO    C2 9484   1.366  13.586   6.933  0.1812 -0.1350 -0.0632
  610ERGO   ROH 9485   8.373  11.125   5.943  0.0383  0.1148  0.1962
  610ERGO    R1 9486   8.312  11.152   6.218  0.0906  0.1757  0.2024
  610ERGO    R2 9487   8.260  10.935   6.381 -0.1601  0.2262  0.1976
  610ERGO    R3 9488   8.459  11.043   6.533 -0.0150 -0.0173  0.1852
  610ERGO    R4 9489   8.312  10.867   6.716 -0.1787  0.1144  0.1777
  610ERGO    R5 9490   8.358  11.078   6.747  0.0594  0.0596  0.2062
  610ERGO    C1 9491   8.529  10.928   7.053 -0.0534 -0.1793  0.1545
  610ERGO    C2 9492   8.786  10.894   7.346  0.1923 -0.0135  0.0801
  611ERGO   ROH 9493  18.264  11.597   9.219  0.1303  0.0657  0.0777
  611ERGO    R1 9494  18.188  11.454   8.986  0.1414  0.0698  0.0716
  611ERGO    R2 9495  17.938  11.480   8.871  0.1706  0.1230  0.0212
  611ERGO    R3 9496  18.082  11.537   8.648  0.2275  0.0742  0.0452
  611ERGO    R4 9497  17.823  11.444   8.547  0.1512  0.3137  0.0059
  611ERGO    R5 9498  18.020  11.367   8.491  0.0937  0.1701 -0.0088
  611ERGO    C1 9499  17.892  11.477   8.149  0.1931  0.3788  0.0196
  611ERGO    C2 9500  17.775  11.588   7.849  0.1746  0.2129  0.0925
  612ERGO   ROH 9501  13.589  17.717   9.535  0.0963  0.1987  0.0490
  612ERGO    R1 9502  13.652  17.661   9.265  0.0385  0.3063  0.0119
  612ERGO    R2 9503  13.496  17.496   9.107  0.2049  0.0616  0.0924
  612ERGO    R3 9504  13.495  17.711   8.941 -0.2249  0.0728  0.1003
  612ERGO    R4 9505  13.521  17.479   8.763  0.4497  0.1324  0.1045
  612ERGO    R5 9506  13.651  17.654   8.768  0.0242  0.4602  0.1884
  612ERGO    C1 9507  13.533  17.671   8.406  0.1889  0.1842  0.1190
  612ERGO    C2 9508  13.467  17.782   8.111 -0.2367  0.3347  0.1963
  613ERGO   ROH 9509   5.927  13.488   9.703 -0.0326  0.0564 -0.0729
  613ERGO    R1 9510   5.850  13.481   9.431 -0.0143  0.0618 -0.0782
  613ERGO    R2 9511   5.729  13.695   9.304  0.0503  0.0857 -0.0982
  613ERGO    R3 9512   5.933  13.663   9.127  0.0550  0.0242 -0.0823
  613ERGO    R4 9513   5.724  13.801   8.975  0.1426  0.1732 -0.0718
  613ERGO    R5 9514   5.825  13.617   8.919  0.0532  0.1338 -0.1072
  613ERGO    C1 9515   5.912  13.834   8.618  0.2007  0.1665 -0.0416
  613ERGO    C2 9516   5.943  14.095   8.539  0.1295 -0.0601 -0.0284
  614ERGO   ROH 9517  12.385  12.196   5.958 -0.1534  0.1543 -0.1109
  614ERGO    R1 9518  12.185  12.123   6.145 -0.0596  0.0226 -0.0610
  614ERGO    R2 9519  12.239  12.086   6.413  0.0492 -0.0339 -0.0888
  614ERGO    R3 9520  12.038  12.267   6.445 -0.0103 -0.1204  0.0325
  614ERGO    R4 9521  12.069  12.141   6.709  0.2091 -0.0984  0.0169
  614ERGO    R5 9522  11.884  12.158   6.593  0.1290 -0.1817  0.1329
  614ERGO    C1 9523  11.781  12.343   6.911  0.2462 -0.2169  0.1923
  614ERGO    C2 9524  11.571  12.462   7.038 -0.1734  0.0902 -0.0910
  615PSPI    C1 9525  15.624   8.964   4.982 -0.2793 -0.0175 -0.0806
  615PSPI    C2 9526  15.320   8.836   4.755 -0.3752  0.4332 -0.2162
  615PSPI    C3 9527  15.588   9.091   4.604 -0.0672  0.2325 -0.0192
  615PSPI   PO4 9528  15.600   8.897   5.248  0.0768  0.0878 -0.2531
  615PSPI   GL1 9529  15.720   9.039   5.642 -0.0683  0.0339 -0.3110
  615PSPI   GL2 9530  15.441   8.815   5.765  0.1242 -0.0920  0.2924
  615PSPI   C1A 9531  15.808   9.033   6.001 -0.3459  0.5683 -0.1272
  615PSPI   C2A 9532  15.911   9.133   6.472 -0.3468  0.3744 -0.1898
  615PSPI   C3A 9533  15.913   9.219   6.983  0.0428  0.1861  0.3403
  615PSPI   C4A 9534  15.632   9.231   7.405 -0.1149 -0.2894  0.0444
  615PSPI   C1B 9535  15.285   8.759   6.157  0.1927  0.0443 -0.3049
  615PSPI   C2B 9536  14.996   8.612   6.508  0.1605  0.0704 -0.1479
  615PSPI   C3B 9537  14.567   8.443   6.578  0.2134  0.0804 -0.0466
  615PSPI   C4B 9538  14.281   8.657   6.759  0.1717 -0.0649  0.1159
  616PSPI    C1 9539  11.149   8.573   5.022 -0.0363 -0.0012 -0.1373
  616PSPI    C2 9540  10.782   8.701   4.927 -0.0962  0.0038  0.0950
  616PSPI    C3 9541  10.848   8.312   4.989 -0.0938  0.0197  0.1933
  616PSPI   PO4 9542  11.233   8.687   5.256 -0.3071 -0.0117  0.0436
  616PSPI   GL1 9543  11.287   8.744   5.707 -0.2284 -0.0552  0.2800
  616PSPI   GL2 9544  11.314   8.402   5.751 -0.4303 -0.2554 -0.1052
  616PSPI   C1A 9545  11.532   8.868   6.075  0.3137 -0.1103  0.1692
  616PSPI   C2A 9546  11.573   9.098   6.397  0.0451  0.0000  0.3695
  616PSPI   C3A 9547  11.730   9.471   6.730 -0.1071  0.5461 -0.0008
  616PSPI   C4A 9548  11.732   9.718   7.141  0.1903  0.2529  0.0750
  616PSPI   C1B 9549  11.408   8.304   6.153  0.1825  0.1793 -0.0115
  616PSPI   C2B 9550  11.283   8.401   6.570  0.3522  0.0446  0.3477
  616PSPI   C3B 9551  11.529   8.615   6.903  0.1230 -0.0342  0.2867
  616PSPI   C4B 9552  11.558   8.944   6.959 -0.0024  0.2185  0.1750
  617PSPI    C1 9553  17.984  17.725   4.824  0.0807 -0.1122  0.0204
  617PSPI    C2 9554  17.755  18.017   4.676  0.2994 -0.0245 -0.1502
  617PSPI    C3 9555  17.764  17.660   4.496  0.1315 -0.0981 -0.0163
  617PSPI   PO4 9556  18.043  17.847   5.061  0.1904  0.3440  0.0459
  617PSPI   GL1 9557  18.135  17.974   5.458 -0.0232  0.0443  0.0185
  617PSPI   GL2 9558  18.410  18.120   5.616 -0.0429  0.3090  0.1549
  617PSPI   C1A 9559  17.982  17.880   5.837  0.2887  0.3017  0.3148
  617PSPI   C2A 9560  17.902  17.759   6.265  0.1570  0.2807  0.3667
  617PSPI   C3A 9561  17.618  17.568   6.552  0.1906 -0.4675  0.1611
  617PSPI   C4A 9562  17.324  17.329   6.862 -0.0590 -0.1061  0.0888
  617PSPI   C1B 9563  18.151  18.413   5.817 -0.2775 -0.2448 -0.1131
  617PSPI   C2B 9564  18.403  18.632   6.294 -0.1246 -0.1591 -0.0945
  617PSPI   C3B 9565  18.561  18.684   6.762  0.1749 -0.1011 -0.1376
  617PSPI   C4B 9566  18.421  18.763   7.096 -0.2345 -0.0300  0.0130
  618PSPI    C1 9567  13.641   2.352   5.209  0.2579 -0.2580 -0.2291
  618PSPI    C2 9568  13.412   2.115   4.982 -0.1219 -0.1351  0.0163
  618PSPI    C3 9569  13.496   2.487   4.861 -0.4349 -0.0238  0.1326
  618PSPI   PO4 9570  13.517   2.318   5.419  0.0716 -0.0853  0.0670
  618PSPI   GL1 9571  13.496   2.114   5.877  0.2310 -0.0088 -0.0281
  618PSPI   GL2 9572  13.633   2.467   5.895 -0.2313 -0.0582 -0.2855
  618PSPI   C1A 9573  13.321   1.955   6.251 -0.0341 -0.1342 -0.0391
  618PSPI   C2A 9574  13.421   1.524   6.446 -0.5223 -0.1793 -0.0234
  618PSPI   C3A 9575  13.551   1.491   6.878 -0.1976 -0.0261 -0.3206
  618PSPI   C4A 9576  13.903   1.431   7.274 -0.0651 -0.0930 -0.0369
  618PSPI   C1B 9577  13.725   2.329   6.315  0.0548  0.2393 -0.0889
  618PSPI   C2B 9578  13.371   2.143   6.720  0.1218 -0.3545  0.1754
  618PSPI   C3B 9579  13.149   1.855   7.078  0.3168 -0.0587  0.1597
  618PSPI   C4B 9580  12.768   1.673   7.364  0.2537  0.0621  0.0708
  619PSPI    C1 9581  14.185   1.834   4.908  0.0552  0.1689 -0.0762
  619PSPI    C2 9582  14.145   2.169   5.124 -0.0191  0.0697  0.0655
  619PSPI    C3 9583  13.889   2.091   4.827 -0.2014 -0.0175  0.2429
  619PSPI   PO4 9584  14.262   1.666   5.162  0.0993 -0.2658  0.1188
  619PSPI   GL1 9585  14.179   1.630   5.544  0.2199 -0.1064  0.5393
  619PSPI   GL2 9586  14.276   1.325   5.649  0.1280  0.0684  0.2618
  619PSPI   C1A 9587  14.291   1.775   5.979 -0.2370 -0.2409  0.1822
  619PSPI   C2A 9588  14.190   2.133   6.302 -0.0316 -0.1672  0.1136
  619PSPI   C3A 9589  14.210   2.141   6.805 -0.0856  0.2293 -0.1491
  619PSPI   C4A 9590  14.237   1.931   7.271  0.2531 -0.2444 -0.3094
  619PSPI   C1B 9591  13.940   1.241   6.002  0.1852  0.0438  0.1675
  619PSPI   C2B 9592  13.872   1.059   6.363 -0.0004  0.0040 -0.1220
  619PSPI   C3B 9593  13.780   1.022   6.839 -0.0985 -0.3842 -0.1376
  619PSPI   C4B 9594  13.958   0.897   7.178 -0.0392  0.1394 -0.1313
  620PSPI    C1 9595  10.436   8.731   5.283 -0.1711  0.0672 -0.1015
  620PSPI    C2 9596  10.058   8.721   5.152 -0.1168  0.1129 -0.2648
  620PSPI    C3 9597  10.331   8.936   4.956 -0.0314  0.1770 -0.0782
  620PSPI   PO4 9598  10.371   8.744   5.502 -0.6662 -0.0416  0.2830
  620PSPI   GL1 9599  10.356   8.624   5.955  0.1219  0.3939 -0.1974
  620PSPI   GL2 9600  10.392   8.937   6.026  0.2297  0.5684 -0.2141
  620PSPI   C1A 9601   9.974   8.507   6.197 -0.1241  0.1049 -0.2080
  620PSPI   C2A 9602  10.008   8.346   6.648  0.2497  0.0772 -0.1095
  620PSPI   C3A 9603  10.016   8.430   7.135  0.1174  0.0488 -0.1156
  620PSPI   C4A 9604   9.953   8.721   7.450  0.2594 -0.1190 -0.1105
  620PSPI   C1B 9605  10.169   8.971   6.368 -0.1184 -0.0318 -0.1282
  620PSPI   C2B 9606   9.950   9.051   6.817 -0.1487  0.1191 -0.1401
  620PSPI   C3B 9607   9.535   9.081   7.116 -0.2009 -0.2225 -0.0712
  620PSPI   C4B 9608   9.131   8.841   7.336 -0.0171 -0.3436  0.1368
  621PSPI    C1 9609   4.433   0.324   5.951 -0.1262 -0.2087 -0.1457
  621PSPI    C2 9610   4.314   0.473   5.600  0.0066 -0.2170 -0.1946
  621PSPI    C3 9611   4.616   0.645   5.799 -0.1539 -0.1330 -0.0207
  621PSPI   PO4 9612   4.323   0.308   6.072 -0.0008 -0.1843 -0.2832
  621PSPI   GL1 9613   4.097   0.601   6.295 -0.0964 -0.1918  0.0639
  621PSPI   GL2 9614   3.736   0.387   6.233  0.1352 -0.1858 -0.1465
  621PSPI   C1A 9615   3.898   0.544   6.719 -0.1755  0.1070  0.0066
  621PSPI   C2A 9616   3.678   0.213   6.951  0.1534 -0.0537 -0.0566
  621PSPI   C3A 9617   3.605  -0.154   7.284  0.0211 -0.0085  0.3048
  621PSPI   C4A 9618   3.293  -0.455   7.409  0.0641  0.2648  0.4978
  621PSPI   C1B 9619   3.373   0.362   6.433  0.5897 -0.2662 -0.1098
  621PSPI   C2B 9620   3.187   0.153   6.691  0.2061 -0.3619 -0.1826
  621PSPI   C3B 9621   3.169  -0.030   6.975 -0.3664 -0.0239  0.1812
  621PSPI   C4B 9622   3.069  -0.498   6.972 -0.0520 -0.1167 -0.2677
  622PSPI    C1 9623   7.058   5.175   5.569 -0.1900 -0.0692 -0.3039
  622PSPI    C2 9624   6.871   5.423   5.822  0.2540 -0.1835  0.1515
  622PSPI    C3 9625   6.844   5.482   5.427 -0.2255  0.1627  0.2281
  622PSPI   PO4 9626   7.266   5.167   5.722  0.0912  0.1086 -0.2088
  622PSPI   GL1 9627   7.442   5.459   5.957  0.0924  0.2755  0.0861
  622PSPI   GL2 9628   7.600   5.792   6.053  0.0353 -0.0696  0.0576
  622PSPI   C1A 9629   7.398   5.450   6.358 -0.2009  0.2569  0.0008
  622PSPI   C2A 9630   7.567   5.144   6.679  0.2816 -0.1743 -0.2221
  622PSPI   C3A 9631   7.471   5.158   7.159 -0.3163 -0.2673 -0.1510
  622PSPI   C4A 9632   7.513   5.320   7.530 -0.1168  0.1513  0.2554
  622PSPI   C1B 9633   7.403   5.914   6.463  0.1571  0.0299  0.2415
  622PSPI   C2B 9634   7.617   6.105   6.836 -0.2752  0.1582 -0.1029
  622PSPI   C3B 9635   7.687   6.484   7.045  0.3410  0.2052  0.0034
  622PSPI   C4B 9636   7.837   6.918   7.207 -0.1996  0.2114 -0.1427
  623PSPI    C1 9637  15.728  14.428   5.279 -0.1079 -0.0077  0.0409
  623PSPI    C2 9638  15.683  14.676   4.968 -0.1210 -0.0932 -0.0258
  623PSPI    C3 9639  15.547  14.300   4.946 -0.1318 -0.0962  0.0875
  623PSPI   PO4 9640  15.937  14.534   5.358 -0.3250 -0.0459 -0.0626
  623PSPI   GL1 9641  15.961  14.818   5.715  0.0452  0.2037 -0.1270
  623PSPI   GL2 9642  15.815  14.583   5.913  0.2927  0.0052 -0.0287
  623PSPI   C1A 9643  16.270  15.021   6.069 -0.1334 -0.1782 -0.2070
  623PSPI   C2A 9644  16.287  15.308   6.385 -0.3296 -0.1977 -0.0009
  623PSPI   C3A 9645  16.271  15.366   6.838 -0.0834  0.0880 -0.0281
  623PSPI   C4A 9646  16.042  15.456   7.200 -0.0449 -0.2432 -0.0415
  623PSPI   C1B 9647  15.468  14.736   6.257 -0.0890 -0.1369 -0.3585
  623PSPI   C2B 9648  15.321  14.710   6.650 -0.3029 -0.0033 -0.0949
  623PSPI   C3B 9649  15.194  14.472   6.933 -0.0501  0.4460  0.0545
  623PSPI   C4B 9650  15.021  14.157   7.186 -0.2003  0.0686  0.4038
  624PSPI    C1 9651   2.560   7.551   5.485 -0.0258 -0.2342 -0.1957
  624PSPI    C2 9652   2.708   7.334   5.183  0.3625 -0.2124 -0.0274
  624PSPI    C3 9653   2.553   7.697   5.112  0.3318 -0.2611 -0.2162
  624PSPI   PO4 9654   2.562   7.490   5.713 -0.1228 -0.0776  0.1090
  624PSPI   GL1 9655   2.387   7.507   6.221 -0.2617 -0.0384  0.0037
  624PSPI   GL2 9656   2.145   7.613   6.006  0.2922  0.1164  0.2890
  624PSPI   C1A 9657   2.215   7.448   6.664  0.2691  0.0507  0.0820
  624PSPI   C2A 9658   1.911   7.340   6.863  0.1045 -0.2058 -0.0543
  624PSPI   C3A 9659   1.542   7.143   7.000  0.4663 -0.0587 -0.1503
  624PSPI   C4A 9660   1.513   6.768   7.121  0.0442 -0.1855  0.0317
  624PSPI   C1B 9661   1.800   8.033   6.085  0.0872  0.1659 -0.0088
  624PSPI   C2B 9662   1.872   8.406   6.276 -0.1676 -0.0107  0.0243
  624PSPI   C3B 9663   1.697   8.511   6.677 -0.1879  0.0625 -0.3287
  624PSPI   C4B 9664   1.211   8.399   6.857  0.3768  0.1428 -0.2739
  625PSPI    C1 9665  15.940   3.119   5.601 -0.3806 -0.3768  0.0134
  625PSPI    C2 9666  15.697   3.435   5.630 -0.0776 -0.1261 -0.1255
  625PSPI    C3 9667  15.760   3.263   5.274  0.2119  0.0269 -0.1514
  625PSPI   PO4 9668  16.223   3.206   5.615 -0.0547  0.2768  0.2261
  625PSPI   GL1 9669  16.517   3.052   5.911  0.1745  0.1107 -0.0948
  625PSPI   GL2 9670  16.484   2.768   5.728 -0.2327  0.0857  0.0997
  625PSPI   C1A 9671  16.487   2.931   6.415 -0.0191 -0.0436 -0.1477
  625PSPI   C2A 9672  16.737   2.808   6.786 -0.1241  0.1997  0.4071
  625PSPI   C3A 9673  16.833   3.106   7.144 -0.3199 -0.3178 -0.0225
  625PSPI   C4A 9674  16.811   3.614   7.224  0.0481  0.1368 -0.0661
  625PSPI   C1B 9675  16.436   2.507   6.106  0.0911  0.0053  0.0090
  625PSPI   C2B 9676  16.378   2.493   6.580  0.0060 -0.0043 -0.3350
  625PSPI   C3B 9677  16.548   2.317   7.082  0.2662 -0.1246 -0.2384
  625PSPI   C4B 9678  16.596   2.220   7.526 -0.2407 -0.0310  0.1058
  626PSPI    C1 9679   3.898  12.165   5.228  0.0961  0.0478  0.0901
  626PSPI    C2 9680   4.088  12.196   5.579  0.0053 -0.0154  0.1453
  626PSPI    C3 9681   4.163  12.459   5.287 -0.0810  0.1703  0.2886
  626PSPI   PO4 9682   3.676  12.052   5.252 -0.1145 -0.1698 -0.0420
  626PSPI   GL1 9683   3.626  11.967   5.680 -0.4048  0.0105 -0.0006
  626PSPI   GL2 9684   3.579  11.683   5.805  0.0015  0.0865 -0.1128
  626PSPI   C1A 9685   3.857  12.076   5.999  0.1222 -0.2370 -0.5358
  626PSPI   C2A 9686   4.090  12.172   6.398  0.4198  0.1239 -0.1219
  626PSPI   C3A 9687   4.098  11.973   6.877  0.4374  0.1187  0.2154
  626PSPI   C4A 9688   4.500  11.860   7.161 -0.1887 -0.0628  0.1134
  626PSPI   C1B 9689   3.178  11.665   5.951 -0.1360 -0.0802  0.3455
  626PSPI   C2B 9690   2.859  11.952   5.976  0.1068 -0.1487 -0.1002
  626PSPI   C3B 9691   2.567  12.272   5.987 -0.5476 -0.0445 -0.1478
  626PSPI   C4B 9692   2.554  12.366   5.591 -0.1070 -0.0835  0.2296
  627PSPI    C1 9693  17.621  12.784   4.636  0.1359  0.0233 -0.0427
  627PSPI    C2 9694  17.863  12.765   4.318  0.1249  0.0360 -0.0516
  627PSPI    C3 9695  17.715  13.118   4.437 -0.0924 -0.0028 -0.1994
  627PSPI   PO4 9696  17.816  12.658   4.826 -0.0769  0.0911  0.1839
  627PSPI   GL1 9697  18.022  12.657   5.203  0.1357 -0.3804 -0.2778
  627PSPI   GL2 9698  17.988  12.912   5.222  0.1963  0.1251  0.0787
  627PSPI   C1A 9699  18.057  12.475   5.605  0.4019  0.2163 -0.0203
  627PSPI   C2A 9700  18.045  12.535   6.038  0.1779  0.1099  0.0343
  627PSPI   C3A 9701  17.751  12.519   6.488 -0.0806  0.2998  0.0947
  627PSPI   C4A 9702  17.749  12.392   6.905  0.2085 -0.0180  0.2261
  627PSPI   C1B 9703  17.760  12.884   5.606 -0.1345 -0.2413 -0.0502
  627PSPI   C2B 9704  17.671  12.826   6.082  0.1095 -0.1832 -0.0940
  627PSPI   C3B 9705  17.494  12.941   6.526 -0.0152  0.1690  0.0142
  627PSPI   C4B 9706  17.135  13.151   6.752  0.1354  0.3130 -0.0033
  628PSPI    C1 9707   4.327  11.342   5.025 -0.1423 -0.1411 -0.1966
  628PSPI    C2 9708   4.470  11.272   4.658  0.1444 -0.1791 -0.0800
  628PSPI    C3 9709   4.483  11.642   4.810 -0.0131 -0.1551 -0.1236
  628PSPI   PO4 9710   4.442  11.011   5.115  0.1124 -0.1014  0.0546
  628PSPI   GL1 9711   4.478  10.723   5.433  0.1005  0.0526  0.1536
  628PSPI   GL2 9712   4.560  10.453   5.491 -0.0017  0.1290 -0.4436
  628PSPI   C1A 9713   4.187  10.626   5.755 -0.2327  0.3626  0.1605
  628PSPI   C2A 9714   4.014  10.530   6.130 -0.0007  0.2016  0.2256
  628PSPI   C3A 9715   4.050  10.540   6.614  0.1586  0.2401  0.0706
  628PSPI   C4A 9716   4.188  10.451   7.041  0.2652 -0.2205  0.2418
  628PSPI   C1B 9717   4.768  10.373   5.754  0.0491  0.0207  0.0061
  628PSPI   C2B 9718   5.043  10.122   5.968  0.0195 -0.1750 -0.1766
  628PSPI   C3B 9719   5.449   9.922   6.175 -0.1450 -0.0678 -0.0723
  628PSPI   C4B 9720   5.725   9.682   6.424 -0.0923 -0.0839  0.1352
  629PSPI    C1 9721   7.524   8.919   5.035  0.2667 -0.0411 -0.1015
  629PSPI    C2 9722   7.410   9.052   4.675 -0.2384  0.1795  0.1290
  629PSPI    C3 9723   7.477   8.662   4.733 -0.0287  0.1578 -0.2301
  629PSPI   PO4 9724   7.375   8.946   5.301 -0.2469  0.1195 -0.2024
  629PSPI   GL1 9725   7.459   8.981   5.686  0.0752 -0.1415 -0.0331
  629PSPI   GL2 9726   7.737   8.798   5.794  0.2350  0.0405  0.0091
  629PSPI   C1A 9727   7.395   9.013   6.136  0.1583  0.1086 -0.2614
  629PSPI   C2A 9728   7.501   8.896   6.547 -0.0462  0.0812 -0.1027
  629PSPI   C3A 9729   7.424   8.852   6.933 -0.0695  0.0875 -0.3502
  629PSPI   C4A 9730   7.050   8.780   7.053 -0.3653 -0.2641  0.1489
  629PSPI   C1B 9731   7.943   9.084   6.087  0.0449 -0.2193 -0.0492
  629PSPI   C2B 9732   7.921   9.122   6.558  0.0376  0.2970  0.0574
  629PSPI   C3B 9733   7.843   9.125   6.955 -0.1443  0.5336  0.0433
  629PSPI   C4B 9734   7.469   9.171   7.329 -0.1856  0.0690  0.2099
  630PSPI    C1 9735  11.495   0.859   5.429  0.0296 -0.3386 -0.0496
  630PSPI    C2 9736  11.845   0.932   5.249  0.0400 -0.0620  0.0772
  630PSPI    C3 9737  11.520   0.851   5.030  0.1276 -0.0694 -0.0514
  630PSPI   PO4 9738  11.473   1.098   5.621  0.1845  0.1680  0.0533
  630PSPI   GL1 9739  11.661   1.494   5.845 -0.2219 -0.0407 -0.2246
  630PSPI   GL2 9740  12.028   1.459   5.775 -0.2140  0.0391  0.0206
  630PSPI   C1A 9741  11.547   1.505   6.236 -0.0327  0.0896 -0.0063
  630PSPI   C2A 9742  11.574   1.385   6.769  0.0515  0.2367  0.4620
  630PSPI   C3A 9743  11.403   1.122   7.005 -0.2082 -0.1775 -0.1086
  630PSPI   C4A 9744  10.976   0.936   7.156 -0.1085  0.3399 -0.4169
  630PSPI   C1B 9745  12.027   1.726   6.117 -0.1172  0.5980  0.3671
  630PSPI   C2B 9746  11.982   1.662   6.565  0.2099  0.1352  0.0578
  630PSPI   C3B 9747  11.984   1.574   6.989  0.0932 -0.3253  0.1952
  630PSPI   C4B 9748  11.670   1.449   7.297  0.1236  0.5439  0.1556
  631PSPI    C1 9749   7.831   7.611   5.182  0.0715 -0.0345  0.1722
  631PSPI    C2 9750   8.208   7.725   5.251  0.0811  0.0041  0.0583
  631PSPI    C3 9751   8.130   7.460   4.963  0.0188  0.0133  0.0667
  631PSPI   PO4 9752   7.771   7.708   5.457  0.0615  0.1642  0.1918
  631PSPI   GL1 9753   8.201   7.714   5.739 -0.1249 -0.2311  0.1867
  631PSPI   GL2 9754   8.461   7.527   5.738 -0.2367  0.0122 -0.0179
  631PSPI   C1A 9755   8.043   7.976   6.100 -0.0968  0.2842 -0.0736
  631PSPI   C2A 9756   8.196   8.165   6.455  0.2568  0.0072  0.0193
  631PSPI   C3A 9757   8.348   8.462   6.636  0.2489 -0.1675  0.0851
  631PSPI   C4A 9758   8.273   8.878   6.829  0.0309  0.3108  0.0177
  631PSPI   C1B 9759   8.249   7.480   6.139  0.1940 -0.0591  0.2296
  631PSPI   C2B 9760   8.244   7.707   6.580 -0.0397  0.1961  0.2304
  631PSPI   C3B 9761   8.193   7.951   6.929 -0.1358  0.1363  0.3317
  631PSPI   C4B 9762   8.029   8.157   7.260  0.0580 -0.1240 -0.1816
  632PSPI    C1 9763  17.551   6.577   5.273 -0.3795 -0.0104 -0.0891
  632PSPI    C2 9764  17.687   6.431   4.926 -0.2091 -0.1469  0.0333
  632PSPI    C3 9765  17.419   6.728   4.927 -0.1099 -0.0539 -0.2131
  632PSPI   PO4 9766  17.505   6.353   5.470  0.2141  0.0393  0.2624
  632PSPI   GL1 9767  17.363   6.323   5.793 -0.1250  0.1634  0.0801
  632PSPI   GL2 9768  17.086   6.506   5.789 -0.2223  0.0521 -0.0365
  632PSPI   C1A 9769  17.226   6.117   6.204 -0.0116  0.0990 -0.0074
  632PSPI   C2A 9770  16.849   5.916   6.526  0.2210  0.0011 -0.3739
  632PSPI   C3A 9771  16.463   5.716   6.802 -0.1178  0.3488 -0.1525
  632PSPI   C4A 9772  16.261   5.338   6.948 -0.1998  0.1500 -0.0390
  632PSPI   C1B 9773  16.803   6.628   6.161  0.1298 -0.0056 -0.0596
  632PSPI   C2B 9774  16.752   6.416   6.533 -0.0418  0.1750  0.1592
  632PSPI   C3B 9775  16.757   6.267   6.990  0.0727 -0.1818  0.2352
  632PSPI   C4B 9776  17.053   6.106   7.272 -0.3219 -0.3301 -0.0038
  633PSPI    C1 9777   9.427   1.209   5.005  0.1433 -0.0184  0.3224
  633PSPI    C2 9778   9.444   0.809   4.985  0.2636 -0.0089  0.2303
  633PSPI    C3 9779   9.112   1.001   4.871  0.4413 -0.0427 -0.3827
  633PSPI   PO4 9780   9.618   1.240   5.263  0.1131 -0.1938  0.2624
  633PSPI   GL1 9781   9.826   1.330   5.720  0.0196  0.0560 -0.1608
  633PSPI   GL2 9782   9.443   1.148   5.794  0.0091 -0.2041 -0.0322
  633PSPI   C1A 9783  10.069   1.417   6.075  0.0942 -0.1779 -0.3914
  633PSPI   C2A 9784  10.247   1.311   6.274 -0.1740 -0.1619 -0.2306
  633PSPI   C3A 9785  10.557   1.303   6.472  0.2475  0.0958 -0.0197
  633PSPI   C4A 9786  10.902   1.176   6.709 -0.1393  0.0455 -0.3396
  633PSPI   C1B 9787   9.421   0.741   5.900  0.0592  0.0498 -0.1962
  633PSPI   C2B 9788   9.522   0.546   6.285 -0.1618  0.0207  0.1904
  633PSPI   C3B 9789   9.969   0.402   6.475  0.0611  0.1013 -0.2804
  633PSPI   C4B 9790  10.080   0.058   6.571  0.1477 -0.2266 -0.0032
  634PSPI    C1 9791  10.237  10.331   5.099  0.0108 -0.1186 -0.0635
  634PSPI    C2 9792  10.447  10.461   4.784 -0.2859 -0.0134 -0.2213
  634PSPI    C3 9793  10.136  10.215   4.730 -0.3959  0.0788 -0.0196
  634PSPI   PO4 9794  10.424  10.253   5.279  0.2915  0.1332  0.2159
  634PSPI   GL1 9795  10.403  10.349   5.758  0.1132 -0.0376  0.3360
  634PSPI   GL2 9796  10.209  10.591   5.593  0.1994 -0.3227  0.1316
  634PSPI   C1A 9797  10.318  10.538   6.240 -0.0363 -0.0301 -0.0809
  634PSPI   C2A 9798  10.445  10.682   6.605  0.1019 -0.1089 -0.2319
  634PSPI   C3A 9799  10.255  10.547   7.059 -0.0607 -0.1610  0.0381
  634PSPI   C4A 9800  10.379  10.333   7.304 -0.1001 -0.1678  0.0471
  634PSPI   C1B 9801  10.047  10.861   5.995  0.1103 -0.0613 -0.3003
  634PSPI   C2B 9802   9.964  11.079   6.457 -0.0264 -0.1516 -0.1087
  634PSPI   C3B 9803  10.135  10.995   6.870 -0.2163  0.0806 -0.0122
  634PSPI   C4B 9804   9.980  10.941   7.405 -0.2821 -0.0136 -0.1253
  635POPI    C1 9805   4.791  14.806   5.112  0.0937  0.2028 -0.1052
  635POPI    C2 9806   5.124  14.585   5.097  0.0135  0.0564  0.1830
  635POPI    C3 9807   5.065  14.877   4.830  0.1995 -0.1580 -0.0986
  635POPI   PO4 9808   4.771  14.764   5.469  0.2978 -0.1151  0.0576
  635POPI   GL1 9809   4.938  14.772   5.981 -0.2438 -0.3947 -0.0279
  635POPI   GL2 9810   4.623  14.565   5.926 -0.2070 -0.0028 -0.0599
  635POPI   C1A 9811   4.915  14.873   6.445 -0.1367  0.2178  0.3005
  635POPI   D2A 9812   4.669  15.091   6.687  0.0903 -0.1383 -0.2754
  635POPI   C3A 9813   4.650  15.463   6.606 -0.0809 -0.2869  0.1070
  635POPI   C4A 9814   4.482  15.808   6.753 -0.0114 -0.1155 -0.0384
  635POPI   C1B 9815   4.505  14.484   6.417  0.0033 -0.1426  0.0364
  635POPI   C2B 9816   4.764  14.581   6.828  0.0149  0.0815  0.0516
  635POPI   C3B 9817   5.026  14.526   7.207 -0.0907  0.0553  0.0615
  635POPI   C4B 9818   5.079  14.811   7.642 -0.0687  0.1191 -0.0895
  636POPI    C1 9819   3.850  15.212   4.951  0.1290  0.1448  0.0458
  636POPI    C2 9820   4.053  14.901   4.803  0.0347  0.0318  0.1524
  636POPI    C3 9821   3.655  14.917   4.764  0.0321  0.1058  0.2072
  636POPI   PO4 9822   3.881  15.257   5.307  0.0204  0.0170  0.2344
  636POPI   GL1 9823   4.090  15.260   5.621 -0.1284  0.0639  0.2574
  636POPI   GL2 9824   3.971  14.891   5.734 -0.1614  0.0746 -0.0740
  636POPI   C1A 9825   4.128  15.289   6.031  0.1214 -0.2031 -0.3404
  636POPI   D2A 9826   4.171  15.574   6.441  0.0037  0.1805  0.1426
  636POPI   C3A 9827   4.141  15.328   6.842  0.3627 -0.0770  0.2935
  636POPI   C4A 9828   3.931  15.066   7.018  0.0878  0.0420 -0.3563
  636POPI   C1B 9829   4.161  14.703   6.005 -0.1788  0.0510 -0.2120
  636POPI   C2B 9830   4.009  14.426   6.266 -0.1433  0.0424  0.1056
  636POPI   C3B 9831   3.867  14.081   6.335  0.1390  0.0146 -0.0103
  636POPI   C4B 9832   3.598  13.784   6.458 -0.1320  0.2509  0.0481
  637POPI    C1 9833  17.289  12.434   4.634  0.0017  0.0017  0.0668
  637POPI    C2 9834  16.898  12.400   4.709  0.0503 -0.0243  0.3148
  637POPI    C3 9835  17.061  12.762   4.658 -0.0460 -0.0253 -0.0180
  637POPI   PO4 9836  17.387  12.356   4.926 -0.2791  0.0145  0.2251
  637POPI   GL1 9837  17.273  12.355   5.415 -0.0616  0.1194  0.1967
  637POPI   GL2 9838  17.692  12.317   5.311  0.4294  0.1184 -0.1887
  637POPI   C1A 9839  17.109  12.395   5.881 -0.0748 -0.2283 -0.1764
  637POPI   D2A 9840  17.223  12.529   6.255  0.2843 -0.0430  0.1818
  637POPI   C3A 9841  17.288  12.484   6.594 -0.2088 -0.1302 -0.1669
  637POPI   C4A 9842  17.185  12.383   6.967 -0.1251  0.3000 -0.0957
  637POPI   C1B 9843  17.582  12.419   5.786 -0.1850 -0.1515 -0.1384
  637POPI   C2B 9844  17.497  12.109   6.130 -0.2673 -0.1072 -0.1788
  637POPI   C3B 9845  17.607  11.965   6.638 -0.0778  0.2561  0.4647
  637POPI   C4B 9846  17.571  11.984   7.089 -0.1183 -0.3271  0.1175
  638POPI    C1 9847   3.425  10.975   5.180 -0.0874 -0.0262 -0.0806
  638POPI    C2 9848   3.820  10.983   5.240 -0.1507 -0.1947  0.3940
  638POPI    C3 9849   3.636  11.301   5.083  0.1856 -0.1569  0.0628
  638POPI   PO4 9850   3.314  11.000   5.354  0.2317  0.0336  0.0547
  638POPI   GL1 9851   3.298  10.787   5.708 -0.1609 -0.0568  0.1489
  638POPI   GL2 9852   3.717  10.711   5.658  0.3160 -0.0040 -0.1280
  638POPI   C1A 9853   3.238  11.149   6.003  0.3262 -0.0690 -0.1248
  638POPI   D2A 9854   3.374  11.236   6.362 -0.0610 -0.1387  0.1584
  638POPI   C3A 9855   3.529  11.562   6.354 -0.0056 -0.1655  0.1241
  638POPI   C4A 9856   3.913  11.677   6.403 -0.0947  0.1288  0.0664
  638POPI   C1B 9857   3.554  10.708   6.164  0.4585  0.0462 -0.1412
  638POPI   C2B 9858   3.568  10.730   6.548  0.1192  0.0922 -0.2661
  638POPI   C3B 9859   3.523  11.068   6.794  0.0947  0.1209 -0.1610
  638POPI   C4B 9860   3.674  11.467   6.800  0.0284  0.3311  0.0136
  639POPI    C1 9861   1.577   5.146   5.474 -0.1975  0.0601 -0.0054
  639POPI    C2 9862   1.186   5.148   5.555 -0.2309  0.1673 -0.1641
  639POPI    C3 9863   1.317   5.282   5.202 -0.0473  0.1697 -0.0960
  639POPI   PO4 9864   1.661   5.300   5.725  0.0093  0.3150  0.0484
  639POPI   GL1 9865   1.663   5.446   6.164 -0.1463  0.0682 -0.1734
  639POPI   GL2 9866   1.924   5.656   6.232 -0.1368 -0.0192  0.0333
  639POPI   C1A 9867   1.696   5.555   6.725 -0.2866 -0.4850  0.5649
  639POPI   D2A 9868   1.472   5.349   7.007 -0.3522  0.1431 -0.0389
  639POPI   C3A 9869   1.644   5.087   7.403 -0.2675 -0.4315 -0.0177
  639POPI   C4A 9870   1.926   5.010   7.802  0.0083  0.3712 -0.0227
  639POPI   C1B 9871   2.176   5.665   6.498 -0.1807  0.0278 -0.1780
  639POPI   C2B 9872   2.193   5.744   7.013 -0.3082  0.0856 -0.0343
  639POPI   C3B 9873   1.828   5.713   7.310  0.0198  0.1905  0.1932
  639POPI   C4B 9874   1.595   5.730   7.664  0.2459  0.2858 -0.1224
  640POPI    C1 9875  17.158   8.887   5.243  0.3592 -0.1082  0.2873
  640POPI    C2 9876  17.428   9.147   5.103  0.0499  0.0102 -0.1107
  640POPI    C3 9877  17.252   8.888   4.854 -0.0633 -0.1975  0.1793
  640POPI   PO4 9878  17.325   8.768   5.468  0.0508 -0.3831  0.1532
  640POPI   GL1 9879  17.313   8.489   5.793 -0.0716 -0.0334 -0.0014
  640POPI   GL2 9880  17.523   8.331   5.825 -0.1213 -0.0891  0.2077
  640POPI   C1A 9881  17.007   8.631   6.051 -0.2078  0.0792  0.1673
  640POPI   D2A 9882  16.791   8.972   6.113 -0.0329 -0.2249 -0.1075
  640POPI   C3A 9883  16.730   9.144   6.489 -0.1169  0.4449  0.1603
  640POPI   C4A 9884  16.955   9.380   6.777  0.1533  0.1264 -0.0457
  640POPI   C1B 9885  17.475   8.726   6.163  0.0695 -0.1216 -0.1498
  640POPI   C2B 9886  17.743   8.842   6.547 -0.3451 -0.0983 -0.0677
  640POPI   C3B 9887  18.115   9.131   6.454  0.2556  0.1363 -0.2144
  640POPI   C4B 9888  18.543   9.252   6.375  0.0725 -0.1783  0.0952
  641POPI    C1 9889   5.382   4.809   5.324  0.0910  0.3836  0.0840
  641POPI    C2 9890   5.118   4.955   5.061 -0.1225  0.0748  0.1220
  641POPI    C3 9891   5.066   4.589   5.215  0.3476 -0.0050  0.1053
  641POPI   PO4 9892   5.359   5.049   5.500 -0.0993  0.2838  0.0570
  641POPI   GL1 9893   5.224   5.011   5.906  0.3641 -0.1373 -0.0194
  641POPI   GL2 9894   5.551   4.785   5.927  0.1912  0.2681  0.1711
  641POPI   C1A 9895   5.322   5.121   6.338 -0.1852  0.3140  0.3323
  641POPI   D2A 9896   5.439   5.276   6.662 -0.2645  0.0625  0.0182
  641POPI   C3A 9897   5.175   5.656   6.866 -0.1547  0.0324  0.1535
  641POPI   C4A 9898   4.894   6.023   6.903 -0.0138  0.5379  0.1049
  641POPI   C1B 9899   5.767   4.828   6.392  0.1504 -0.0692 -0.2317
  641POPI   C2B 9900   5.644   4.743   6.798 -0.0635  0.0522  0.1351
  641POPI   C3B 9901   5.770   4.546   7.267 -0.2691 -0.1396 -0.0853
  641POPI   C4B 9902   5.511   4.565   7.648  0.0847  0.0381  0.0755
  642POPI    C1 9903  14.550   9.191   5.551 -0.0178  0.2696 -0.1103
  642POPI    C2 9904  14.624   8.892   5.295  0.2444  0.1344  0.1175
  642POPI    C3 9905  14.316   8.867   5.548  0.1600  0.1376  0.0156
  642POPI   PO4 9906  14.732   9.383   5.425 -0.1013 -0.3270  0.0925
  642POPI   GL1 9907  14.793   9.667   5.623 -0.4134 -0.0331  0.1551
  642POPI   GL2 9908  15.017   9.812   5.755  0.0519  0.1297  0.1588
  642POPI   C1A 9909  14.528   9.940   6.074  0.1153  0.2077 -0.1124
  642POPI   D2A 9910  14.345   9.925   6.471  0.1753  0.2086  0.0026
  642POPI   C3A 9911  14.608   9.759   6.873  0.3819  0.2883 -0.0339
  642POPI   C4A 9912  14.501   9.478   7.207 -0.0106  0.1439 -0.0435
  642POPI   C1B 9913  15.005   9.530   6.120  0.2725 -0.2739  0.1406
  642POPI   C2B 9914  14.962   9.562   6.607  0.1832 -0.2182  0.0457
  642POPI   C3B 9915  14.933   9.308   6.930 -0.4489  0.1053  0.1709
  642POPI   C4B 9916  15.096   9.327   7.446  0.2083  0.0531  0.0194
  643POPI    C1 9917   5.762  14.274   5.628  0.0190 -0.1245 -0.1024
  643POPI    C2 9918   5.572  14.387   5.294  0.1218 -0.3409 -0.2365
  643POPI    C3 9919   5.899  14.583   5.414 -0.1770  0.0315 -0.0062
  643POPI   PO4 9920   5.566  14.067   5.711  0.0999 -0.0891 -0.1420
  643POPI   GL1 9921   5.550  13.720   6.024  0.0705  0.3444 -0.0562
  643POPI   GL2 9922   5.264  13.847   6.177 -0.2741 -0.0178 -0.0116
  643POPI   C1A 9923   5.664  13.570   6.438 -0.0501 -0.1105 -0.1032
  643POPI   D2A 9924   5.649  13.404   6.832 -0.0431  0.1510 -0.3621
  643POPI   C3A 9925   5.433  13.190   7.147  0.1191  0.2522 -0.1507
  643POPI   C4A 9926   5.187  12.938   7.441  0.0044 -0.1510 -0.1845
  643POPI   C1B 9927   4.903  13.927   6.408 -0.1535 -0.0914  0.0543
  643POPI   C2B 9928   4.859  14.050   6.837  0.0520 -0.0634 -0.0047
  643POPI   C3B 9929   4.559  13.774   7.091  0.0852 -0.1445  0.1235
  643POPI   C4B 9930   4.212  13.788   7.231  0.0930 -0.0315 -0.0335
  644POPI    C1 9931   1.316   1.717   5.602  0.1533  0.2088 -0.1668
  644POPI    C2 9932   1.379   1.323   5.635  0.1075  0.2253  0.1388
  644POPI    C3 9933   1.308   1.484   5.276 -0.1780 -0.0913  0.0484
  644POPI   PO4 9934   1.220   1.783   5.878 -0.1080  0.2458 -0.1560
  644POPI   GL1 9935   1.323   1.434   6.166  0.2273 -0.2152  0.0118
  644POPI   GL2 9936   1.687   1.307   6.139  0.0668  0.1555 -0.0718
  644POPI   C1A 9937   1.106   1.387   6.441 -0.3525  0.0151 -0.1898
  644POPI   D2A 9938   1.138   1.609   6.814  0.0076  0.3227  0.0130
  644POPI   C3A 9939   1.283   1.372   7.075  0.4275 -0.0610  0.0747
  644POPI   C4A 9940   1.252   1.304   7.499  0.1484 -0.2279  0.0022
  644POPI   C1B 9941   1.837   1.286   6.547 -0.2658 -0.1693 -0.2306
  644POPI   C2B 9942   1.861   1.363   7.050 -0.2725  0.3506  0.0552
  644POPI   C3B 9943   1.984   1.191   7.400  0.3599  0.1267  0.2226
  644POPI   C4B 9944   2.057   0.993   7.846 -0.2857  0.1275 -0.1753
  645POPI    C1 9945  11.303   4.428   5.342  0.2992  0.1851 -0.1476
  645POPI    C2 9946  11.349   4.053   5.210  0.1952  0.0902  0.0808
  645POPI    C3 9947  11.262   4.347   4.953  0.0968 -0.0736 -0.0748
  645POPI   PO4 9948  11.531   4.395   5.573  0.1535 -0.1563  0.1642
  645POPI   GL1 9949  11.573   4.544   5.969 -0.0810 -0.0449  0.1567
  645POPI   GL2 9950  11.834   4.522   5.981  0.3210 -0.0653 -0.2096
  645POPI   C1A 9951  11.593   4.511   6.471 -0.0792  0.1248  0.0128
  645POPI   D2A 9952  11.448   4.565   6.829  0.0188  0.0823 -0.2361
  645POPI   C3A 9953  11.459   4.748   7.240 -0.0073  0.1101  0.2355
  645POPI   C4A 9954  11.287   4.474   7.556 -0.1041  0.2231 -0.0977
  645POPI   C1B 9955  12.264   4.555   5.902  0.1997 -0.0064 -0.1346
  645POPI   C2B 9956  12.596   4.273   6.067  0.2421  0.1251  0.4755
  645POPI   C3B 9957  12.925   3.930   6.073 -0.1542  0.3952 -0.0374
  645POPI   C4B 9958  13.088   3.709   6.452 -0.3176  0.0416 -0.0290
  646POPI    C1 9959  12.141   7.073   4.938 -0.0702 -0.0122 -0.1420
  646POPI    C2 9960  12.049   6.693   5.021 -0.2886  0.0087 -0.2802
  646POPI    C3 9961  12.328   6.776   4.746  0.1559 -0.0549  0.1371
  646POPI   PO4 9962  12.135   7.188   5.237  0.0239 -0.0990 -0.0898
  646POPI   GL1 9963  12.311   7.548   5.462  0.0084 -0.2012 -0.1436
  646POPI   GL2 9964  12.302   7.860   5.737 -0.1432 -0.3130 -0.1053
  646POPI   C1A 9965  12.029   7.475   5.876  0.0496  0.3548  0.1757
  646POPI   D2A 9966  12.018   7.524   6.340  0.0239 -0.1610 -0.1518
  646POPI   C3A 9967  11.860   7.381   6.756  0.0718  0.1823 -0.1214
  646POPI   C4A 9968  11.660   7.065   6.917  0.1345 -0.1383  0.0968
  646POPI   C1B 9969  12.372   7.993   6.092 -0.0021 -0.3027 -0.2504
  646POPI   C2B 9970  12.295   7.889   6.433  0.5453 -0.2257 -0.0927
  646POPI   C3B 9971  12.156   7.831   6.972  0.1218 -0.1293 -0.3955
  646POPI   C4B 9972  11.884   8.161   7.232  0.0781  0.1612  0.0826
  647POPI    C1 9973   7.475  14.561   5.548  0.1615  0.0056 -0.0828
  647POPI    C2 9974   7.303  14.908   5.650 -0.0413 -0.0882 -0.1009
  647POPI    C3 9975   7.134  14.675   5.372  0.0213 -0.2656  0.0081
  647POPI   PO4 9976   7.523  14.306   5.786 -0.0164  0.0340 -0.1907
  647POPI   GL1 9977   7.579  14.179   6.237 -0.2345 -0.1243 -0.0493
  647POPI   GL2 9978   7.613  13.809   6.250 -0.1499 -0.0001 -0.3029
  647POPI   C1A 9979   7.771  14.178   6.702 -0.0607  0.0864  0.0001
  647POPI   D2A 9980   7.782  13.834   6.962 -0.3608  0.0125 -0.0689
  647POPI   C3A 9981   7.935  13.913   7.461 -0.0246 -0.1810 -0.3293
  647POPI   C4A 9982   8.229  14.236   7.676  0.1696 -0.3580 -0.0908
  647POPI   C1B 9983   7.408  13.677   6.651  0.1455 -0.0862 -0.1060
  647POPI   C2B 9984   7.399  13.725   7.210 -0.1534 -0.0772  0.2191
  647POPI   C3B 9985   7.569  13.672   7.671  0.2902 -0.3444  0.2231
  647POPI   C4B 9986   7.227  13.733   7.887 -0.0640  0.2912 -0.1018
  648POPI    C1 9987   2.591   6.255   5.498 -0.2276  0.1492  0.1762
  648POPI    C2 9988   2.275   6.042   5.621 -0.0737 -0.2051 -0.0263
  648POPI    C3 9989   2.272   6.214   5.260 -0.0557 -0.1620 -0.0060
  648POPI   PO4 9990   2.649   6.461   5.769  0.1741 -0.1271  0.2454
  648POPI   GL1 9991   2.661   6.691   6.211  0.2580 -0.1817 -0.0431
  648POPI   GL2 9992   2.374   6.586   6.133  0.0782  0.1231  0.3996
  648POPI   C1A 9993   2.687   7.086   6.590 -0.1608 -0.1167  0.0756
  648POPI   D2A 9994   3.069   7.347   6.767  0.2167  0.2665  0.0226
  648POPI   C3A 9995   3.246   7.097   7.135 -0.2821  0.3527 -0.1097
  648POPI   C4A 9996   3.493   7.032   7.489 -0.1234 -0.2277  0.2211
  648POPI   C1B 9997   2.053   6.475   6.409 -0.0837 -0.1216 -0.2202
  648POPI   C2B 9998   1.788   6.720   6.666 -0.1304  0.5549 -0.4845
  648POPI   C3B 9999   1.495   7.023   6.507  0.2441 -0.1534 -0.0600
  648POPI   C4B10000   1.069   7.115   6.397 -0.0598  0.1186  0.0881
  649POPI    C110001  14.341  11.548   5.619 -0.0745  0.1562  0.0702
  649POPI    C210002  14.189  11.184   5.551  0.2425 -0.0041  0.2000
  649POPI    C310003  14.406  11.365   5.269 -0.0163  0.1390  0.0898
  649POPI   PO410004  14.182  11.605   5.818 -0.0507  0.1061 -0.2544
  649POPI   GL110005  14.226  11.551   6.212 -0.2046  0.1465  0.0760
  649POPI   GL210006  14.424  11.204   6.066  0.0739 -0.0573  0.0488
  649POPI   C1A10007  14.354  11.793   6.640  0.0144 -0.0798 -0.1669
  649POPI   D2A10008  14.553  11.794   6.920  0.3650 -0.1794 -0.0054
  649POPI   C3A10009  14.345  11.797   7.314  0.1199 -0.0273  0.0273
  649POPI   C4A10010  14.362  11.907   7.724  0.0979 -0.1270  0.2217
  649POPI   C1B10011  14.151  11.027   6.416 -0.0441  0.1385 -0.1794
  649POPI   C2B10012  14.095  10.787   6.797  0.1351  0.0802 -0.2707
  649POPI   C3B10013  14.267  10.572   7.060 -0.2918  0.2223  0.1607
  649POPI   C4B10014  14.058  10.251   7.323  0.3820 -0.1306  0.2293
  650POPI    C110015   8.732  17.524   5.299 -0.0831  0.0234 -0.3075
  650POPI    C210016   8.954  17.843   5.202 -0.0207 -0.0343 -0.3564
  650POPI    C310017   9.096  17.474   5.140  0.0533 -0.0745  0.0267
  650POPI   PO410018   8.686  17.581   5.608  0.0151 -0.2411  0.1458
  650POPI   GL110019   8.782  17.765   5.938 -0.6228  0.2822 -0.1475
  650POPI   GL210020   8.827  17.576   6.165  0.1663 -0.0847  0.0716
  650POPI   C1A10021   8.726  18.036   6.282  0.0044  0.1423 -0.3634
  650POPI   D2A10022   8.830  18.297   6.638  0.1067  0.2945 -0.4363
  650POPI   C3A10023   8.529  18.351   6.964  0.3482 -0.0050 -0.0470
  650POPI   C4A10024   8.228  18.496   7.283 -0.2058  0.0286  0.2839
  650POPI   C1B10025   9.112  17.200   6.239 -0.0141  0.2648  0.0008
  650POPI   C2B10026   9.540  17.059   6.443  0.0638  0.0985  0.0053
  650POPI   C3B10027   9.749  17.208   6.723  0.0084 -0.3097 -0.0128
  650POPI   C4B10028  10.026  17.415   6.872 -0.2136 -0.1683  0.2096
  651POPI    C110029  15.317  18.141   5.432 -0.3095 -0.1902  0.1716
  651POPI    C210030  15.085  17.820   5.376 -0.2319 -0.2033 -0.0872
  651POPI    C310031  15.228  18.022   5.061 -0.0185 -0.1036  0.0704
  651POPI   PO410032  15.407  18.032   5.724 -0.3776  0.0696 -0.1567
  651POPI   GL110033  15.276  17.702   6.063  0.0736  0.2799 -0.1163
  651POPI   GL210034  14.995  17.776   6.069  0.0664  0.1380 -0.1032
  651POPI   C1A10035  15.498  17.605   6.486 -0.1591 -0.3010 -0.0126
  651POPI   D2A10036  15.700  17.571   6.869 -0.1708 -0.3587 -0.0810
  651POPI   C3A10037  16.021  17.726   6.873 -0.0804  0.2569 -0.4725
  651POPI   C4A10038  16.275  18.013   6.898  0.4184  0.4936  0.1244
  651POPI   C1B10039  14.992  17.838   6.511  0.0417  0.0677  0.2966
  651POPI   C2B10040  15.194  17.733   6.923 -0.1878 -0.1302  0.1678
  651POPI   C3B10041  15.322  17.595   7.207  0.0778  0.2515  0.0416
  651POPI   C4B10042  15.130  17.377   7.573 -0.0186 -0.1175  0.0560
  652POPI    C110043   1.824   9.640   5.336  0.1802 -0.0359 -0.0158
  652POPI    C210044   1.630   9.318   5.198 -0.1648  0.1389  0.0503
  652POPI    C310045   1.559   9.678   5.038  0.0755  0.2126  0.1063
  652POPI   PO410046   1.864   9.595   5.613 -0.2321 -0.4158 -0.1273
  652POPI   GL110047   2.152   9.712   5.978  0.1105 -0.1893 -0.3775
  652POPI   GL210048   2.035  10.016   5.791  0.0817 -0.3113 -0.1857
  652POPI   C1A10049   2.277   9.585   6.425 -0.2285  0.2270 -0.1904
  652POPI   D2A10050   2.473   9.503   6.756 -0.3699 -0.1592 -0.0217
  652POPI   C3A10051   2.340   9.328   7.082 -0.2680  0.0305 -0.0290
  652POPI   C4A10052   2.619   9.150   7.493 -0.0411 -0.1742 -0.2216
  652POPI   C1B10053   2.297  10.163   6.218  0.0307 -0.2071  0.1542
  652POPI   C2B10054   2.449  10.001   6.626  0.3040 -0.2138  0.2715
  652POPI   C3B10055   2.296   9.971   7.006  0.1306 -0.0260  0.0895
  652POPI   C4B10056   2.043  10.238   7.335 -0.0475  0.2588 -0.4459
  653POPI    C110057   7.307  17.160   5.195  0.3137  0.0358  0.4199
  653POPI    C210058   7.014  17.305   5.425 -0.0158 -0.1535  0.1296
  653POPI    C310059   7.006  16.922   5.309  0.2045 -0.0896 -0.1041
  653POPI   PO410060   7.513  17.249   5.450 -0.4012 -0.0760 -0.1000
  653POPI   GL110061   7.721  17.269   5.884 -0.0048 -0.1473 -0.0581
  653POPI   GL210062   7.742  17.577   5.824 -0.2288  0.0953 -0.1574
  653POPI   C1A10063   7.903  17.096   6.306  0.1070 -0.0721 -0.1252
  653POPI   D2A10064   8.004  17.229   6.645  0.3442  0.0805  0.0035
  653POPI   C3A10065   8.369  17.190   6.839  0.0167 -0.2316  0.3572
  653POPI   C4A10066   8.607  17.195   6.420  0.0649 -0.0085  0.2342
  653POPI   C1B10067   7.465  17.518   6.300  0.1321 -0.3436 -0.1157
  653POPI   C2B10068   7.514  17.242   6.642 -0.0057  0.2449 -0.0782
  653POPI   C3B10069   7.706  17.160   7.105 -0.2588  0.1294 -0.1326
  653POPI   C4B10070   8.003  16.893   7.088 -0.3891 -0.1594  0.0243
  654POPI    C110071  13.457   9.146   4.974 -0.0489  0.0338  0.1393
  654POPI    C210072  13.550   9.525   4.889  0.0048 -0.0596 -0.2348
  654POPI    C310073  13.838   9.249   4.909 -0.0399 -0.0917 -0.0129
  654POPI   PO410074  13.172   9.209   5.191  0.0382  0.0170 -0.1019
  654POPI   GL110075  13.184   9.383   5.661  0.0856 -0.0014 -0.1950
  654POPI   GL210076  12.859   9.247   5.562  0.1392  0.2267 -0.0146
  654POPI   C1A10077  13.143   9.802   5.927 -0.1402  0.3859 -0.1873
  654POPI   D2A10078  13.008  10.316   5.897 -0.1825  0.2476  0.1440
  654POPI   C3A10079  12.588  10.417   5.681 -0.1238  0.2176  0.0186
  654POPI   C4A10080  12.179  10.542   5.667  0.0094  0.3727  0.2597
  654POPI   C1B10081  12.797   9.416   5.987 -0.0781 -0.2867  0.2881
  654POPI   C2B10082  12.608   9.263   6.413 -0.1155 -0.0301 -0.1031
  654POPI   C3B10083  12.456   9.262   6.863 -0.0330 -0.2210 -0.0097
  654POPI   C4B10084  12.282   9.579   7.050  0.3263  0.0722 -0.0237
  655POPI    C110085   0.250   4.284   5.503  0.0534 -0.0643 -0.0959
  655POPI    C210086   0.236   4.628   5.299 -0.1120  0.0161  0.0488
  655POPI    C310087   0.204   4.279   5.106 -0.2043  0.0897 -0.0701
  655POPI   PO410088   0.479   4.336   5.645 -0.1275  0.0542  0.0156
  655POPI   GL110089   0.627   4.438   6.057 -0.0810 -0.2991  0.0898
  655POPI   GL210090   0.577   4.843   5.976 -0.5402  0.1456 -0.1299
  655POPI   C1A10091   0.659   4.429   6.401 -0.4592  0.0635 -0.0950
  655POPI   D2A10092   0.770   4.235   6.766  0.1073  0.2028  0.0101
  655POPI   C3A10093   0.597   4.282   7.088 -0.2270  0.2775  0.1338
  655POPI   C4A10094   0.294   4.315   7.431  0.0715  0.3561 -0.1152
  655POPI   C1B10095   0.329   4.752   6.320  0.2655  0.0923 -0.6545
  655POPI   C2B10096   0.273   4.588   6.735 -0.0873 -0.3227  0.1214
  655POPI   C3B10097   0.118   4.637   7.036  0.0037 -0.0377 -0.1348
  655POPI   C4B10098  -0.208   4.397   7.360 -0.0170 -0.1161  0.2525
  656POPI    C110099  16.556   8.830   4.763  0.1259  0.1616  0.1769
  656POPI    C210100  16.531   8.972   4.390  0.2152 -0.2278  0.0184
  656POPI    C310101  16.889   8.896   4.551  0.1682 -0.2967  0.0911
  656POPI   PO410102  16.403   8.875   4.992 -0.0441 -0.2261  0.1143
  656POPI   GL110103  16.560   9.053   5.412 -0.1875  0.2285 -0.0873
  656POPI   GL210104  16.607   9.279   5.739  0.2792 -0.1704  0.0645
  656POPI   C1A10105  16.419   8.819   5.832  0.2142 -0.0466 -0.3226
  656POPI   D2A10106  16.515   8.481   6.103 -0.3631  0.2341  0.1631
  656POPI   C3A10107  16.778   8.642   6.500  0.0064 -0.0894  0.1874
  656POPI   C4A10108  16.954   8.739   6.745  0.0220 -0.2573 -0.0500
  656POPI   C1B10109  16.497   9.683   6.024 -0.1041 -0.1900  0.0651
  656POPI   C2B10110  16.338  10.111   6.183  0.1013  0.1824 -0.0517
  656POPI   C3B10111  16.048  10.184   6.571 -0.0969  0.0837 -0.1364
  656POPI   C4B10112  16.379  10.204   6.930 -0.1894 -0.0747  0.1416
  657POPI    C110113   4.250  17.086   5.422  0.0606  0.0596  0.0714
  657POPI    C210114   3.882  16.950   5.344  0.1133 -0.0560  0.0212
  657POPI    C310115   3.935  17.329   5.463 -0.0272 -0.0558  0.0849
  657POPI   PO410116   4.391  16.811   5.551 -0.0706 -0.0793 -0.1887
  657POPI   GL110117   4.438  16.775   6.041 -0.2947  0.1276  0.0567
  657POPI   GL210118   4.741  16.745   6.211  0.2496 -0.2274  0.3013
  657POPI   C1A10119   4.450  16.333   6.267 -0.0772 -0.0171  0.5026
  657POPI   D2A10120   4.072  16.064   6.450 -0.1086  0.0042  0.1982
  657POPI   C3A10121   3.917  15.882   6.791 -0.1963  0.1215  0.1370
  657POPI   C4A10122   3.770  15.996   7.191  0.1887 -0.1795 -0.1193
  657POPI   C1B10123   4.547  16.909   6.610  0.1086  0.1139 -0.0666
  657POPI   C2B10124   4.545  17.166   6.911  0.0147 -0.1413  0.0141
  657POPI   C3B10125   4.389  17.305   7.373  0.0250 -0.2766  0.2585
  657POPI   C4B10126   4.312  17.176   7.759  0.1758  0.3216  0.1182
  658POPI    C110127   4.686  18.298   5.483 -0.1596  0.0530  0.0594
  658POPI    C210128   4.415  18.088   5.275 -0.2593  0.0441  0.1968
  658POPI    C310129   4.393  18.487   5.286 -0.2499  0.0449  0.1842
  658POPI   PO410130   4.658  18.240   5.748  0.0111  0.0570  0.0491
  658POPI   GL110131   4.599  17.929   6.039 -0.0595 -0.0253  0.1560
  658POPI   GL210132   4.392  17.764   6.112  0.2512  0.1392  0.0727
  658POPI   C1A10133   4.629  17.961   6.445 -0.1640 -0.1064 -0.0850
  658POPI   D2A10134   4.731  18.198   6.868 -0.1560  0.1923 -0.0086
  658POPI   C3A10135   4.484  18.156   7.256  0.0009 -0.1031 -0.0866
  658POPI   C4A10136   4.162  18.268   7.560 -0.0685 -0.2040 -0.2018
  658POPI   C1B10137   3.992  17.737   6.335 -0.0185  0.0779  0.2939
  658POPI   C2B10138   3.610  17.745   6.640  0.0278  0.2032  0.1622
  658POPI   C3B10139   3.687  17.786   7.127 -0.0901 -0.1905 -0.0925
  658POPI   C4B10140   4.159  17.768   7.379 -0.1013  0.2055  0.0114
  659POPI    C110141  10.590  14.188   5.698  0.0767  0.2676 -0.0300
  659POPI    C210142  10.710  14.180   5.317  0.2712 -0.0790  0.0337
  659POPI    C310143  10.971  14.268   5.607  0.1480  0.0817  0.0974
  659POPI   PO410144  10.349  14.327   5.644  0.0177  0.1544  0.0902
  659POPI   GL110145  10.287  14.431   6.089 -0.0795 -0.1282 -0.0505
  659POPI   GL210146  10.498  14.320   6.164  0.0719 -0.1933 -0.2337
  659POPI   C1A10147  10.189  14.114   6.439 -0.1710 -0.1667  0.2024
  659POPI   D2A10148  10.420  13.957   6.800 -0.1505 -0.1175  0.1518
  659POPI   C3A10149  10.290  13.979   7.255  0.1432  0.1670  0.2532
  659POPI   C4A10150  10.196  13.569   7.434  0.2317  0.3232  0.2589
  659POPI   C1B10151  10.669  14.442   6.572  0.1576 -0.0223 -0.0650
  659POPI   C2B10152  10.610  14.334   6.986  0.0633  0.2118 -0.1048
  659POPI   C3B10153  10.493  14.422   7.440  0.0203  0.0323 -0.1036
  659POPI   C4B10154  10.249  14.482   7.767  0.0315  0.0894  0.2248
  660POPI    C110155  14.873   0.369   5.105  0.1560  0.0817 -0.1804
  660POPI    C210156  14.581   0.096   5.128  0.2261  0.0301  0.1578
  660POPI    C310157  14.573   0.374   4.840 -0.0654 -0.0737  0.0613
  660POPI   PO410158  15.055   0.297   5.245 -0.0248  0.0525  0.2132
  660POPI   GL110159  15.334   0.241   5.574  0.1542 -0.0578  0.2931
  660POPI   GL210160  15.250   0.530   5.701 -0.2303  0.3105 -0.4179
  660POPI   C1A10161  15.130   0.023   5.890 -0.1659  0.1342 -0.4477
  660POPI   D2A10162  15.073  -0.255   6.288  0.1145  0.3749  0.0550
  660POPI   C3A10163  15.485  -0.488   6.424  0.2245 -0.0972 -0.1619
  660POPI   C4A10164  15.841  -0.523   6.527 -0.1988  0.1051 -0.1893
  660POPI   C1B10165  15.277   0.580   6.080 -0.1523 -0.0348  0.3122
  660POPI   C2B10166  15.521   0.417   6.469 -0.0151 -0.1960  0.0252
  660POPI   C3B10167  15.459  -0.074   6.650  0.2539  0.0868  0.2410
  660POPI   C4B10168  15.484  -0.424   6.909  0.0772  0.0928 -0.1925
  661POPI    C110169   0.543   1.248   5.427  0.1386 -0.0159 -0.2929
  661POPI    C210170   0.388   1.579   5.263 -0.2567 -0.0289  0.0376
  661POPI    C310171   0.784   1.520   5.259 -0.1832  0.4300 -0.0559
  661POPI   PO410172   0.456   1.276   5.646 -0.0049  0.2522  0.1571
  661POPI   GL110173   0.587   1.233   6.118  0.0837  0.0950  0.0708
  661POPI   GL210174   0.708   1.555   6.232 -0.0040  0.1352 -0.0066
  661POPI   C1A10175   0.809   1.007   6.335  0.3814 -0.0366  0.1254
  661POPI   D2A10176   1.082   0.921   6.734  0.0209 -0.1923  0.2968
  661POPI   C3A10177   0.907   0.618   6.996 -0.3230 -0.0316  0.0553
  661POPI   C4A10178   1.206   0.264   7.054 -0.4981  0.0289  0.0210
  661POPI   C1B10179   0.621   1.539   6.571 -0.0325 -0.0470  0.2715
  661POPI   C2B10180   0.657   1.770   6.886 -0.1557  0.3456 -0.3659
  661POPI   C3B10181   0.502   2.084   7.224 -0.1993 -0.1649  0.1966
  661POPI   C4B10182   0.546   2.543   7.323 -0.2407  0.2178 -0.0132
  662POPI    C110183   2.567  11.518   5.030 -0.0859 -0.2852  0.0758
  662POPI    C210184   2.431  11.827   4.817  0.1535 -0.2546 -0.0358
  662POPI    C310185   2.299  11.457   4.740 -0.0225 -0.2000 -0.0009
  662POPI   PO410186   2.617  11.623   5.291  0.2925 -0.0474  0.0519
  662POPI   GL110187   2.643  11.532   5.792 -0.0558 -0.1594 -0.0690
  662POPI   GL210188   2.826  11.355   5.803  0.0670  0.2571  0.0666
  662POPI   C1A10189   2.425  11.743   6.214 -0.1674 -0.3617  0.0035
  662POPI   D2A10190   2.613  11.994   6.549  0.0520 -0.1082 -0.0050
  662POPI   C3A10191   2.872  12.351   6.616  0.2119  0.1960  0.0638
  662POPI   C4A10192   2.857  12.619   6.997 -0.0917  0.0724  0.4576
  662POPI   C1B10193   2.825  11.393   6.226  0.1646  0.4030  0.0218
  662POPI   C2B10194   2.734  11.520   6.636 -0.0593 -0.2012  0.1575
  662POPI   C3B10195   2.650  11.747   7.008  0.2409 -0.0575  0.2239
  662POPI   C4B10196   2.606  12.215   7.123 -0.0525  0.0671 -0.0382
  663POPI    C110197  14.133  13.202   4.995 -0.0895 -0.0860  0.2321
  663POPI    C210198  14.020  13.564   4.867  0.1207 -0.1399 -0.1195
  663POPI    C310199  13.935  13.239   4.649 -0.0439 -0.3027  0.1810
  663POPI   PO410200  14.130  13.276   5.325 -0.3429 -0.0256 -0.3028
  663POPI   GL110201  14.189  13.438   5.734  0.0097  0.0210  0.2257
  663POPI   GL210202  13.873  13.701   5.768 -0.1292 -0.2717  0.0254
  663POPI   C1A10203  14.205  13.281   6.122 -0.0065 -0.3843 -0.2679
  663POPI   D2A10204  14.309  13.115   6.426  0.1831 -0.0231 -0.2235
  663POPI   C3A10205  14.425  13.292   6.830 -0.0166  0.0620 -0.2279
  663POPI   C4A10206  14.465  13.254   7.312  0.0898 -0.0859  0.0447
  663POPI   C1B10207  13.693  13.406   6.087 -0.1442 -0.0841  0.3558
  663POPI   C2B10208  13.443  13.048   6.022  0.2217 -0.7744 -0.2226
  663POPI   C3B10209  13.436  12.728   6.155  0.2471  0.1116 -0.1339
  663POPI   C4B10210  13.352  12.548   6.588  0.0340 -0.0139  0.0247
  664POPI    C110211   9.815   3.325   5.350  0.0743 -0.0976 -0.0055
  664POPI    C210212  10.019   3.079   5.110  0.0135 -0.2209  0.0682
  664POPI    C310213  10.196   3.235   5.433  0.1066 -0.0257 -0.0749
  664POPI   PO410214   9.462   3.273   5.289  0.2655  0.3463  0.1963
  664POPI   GL110215   9.304   3.309   5.664 -0.0239 -0.2393  0.2319
  664POPI   GL210216   9.447   3.053   5.758 -0.4551  0.1370  0.2605
  664POPI   C1A10217   9.304   3.745   5.984 -0.0572 -0.0059  0.0799
  664POPI   D2A10218   9.520   4.006   6.315 -0.1174  0.3207 -0.0951
  664POPI   C3A10219   9.463   3.922   6.710  0.2785  0.0402  0.1314
  664POPI   C4A10220   9.416   4.229   7.081 -0.1566  0.2048  0.2375
  664POPI   C1B10221   9.727   3.331   5.987 -0.1304 -0.0366  0.2647
  664POPI   C2B10222   9.905   3.249   6.365 -0.1574 -0.1517 -0.1548
  664POPI   C3B10223   9.721   2.930   6.619 -0.0518  0.1516  0.0038
  664POPI   C4B10224   9.613   3.198   6.906  0.2081  0.0157 -0.0598
  665POPI    C110225   6.829  14.166   5.203  0.1363 -0.0771 -0.1194
  665POPI    C210226   6.712  14.428   4.924 -0.2055  0.0082  0.0975
  665POPI    C310227   6.535  14.070   4.950  0.1040 -0.1603 -0.0508
  665POPI   PO410228   6.723  14.311   5.420 -0.1509  0.3355  0.1443
  665POPI   GL110229   7.009  14.301   5.778  0.2466  0.1369  0.2483
  665POPI   GL210230   7.199  14.598   6.042 -0.5306 -0.0785  0.1179
  665POPI   C1A10231   6.943  14.202   6.217 -0.1954  0.1531  0.0105
  665POPI   D2A10232   6.898  13.819   6.563  0.1096 -0.0600 -0.0090
  665POPI   C3A10233   6.480  13.812   6.748  0.1109 -0.1483 -0.1926
  665POPI   C4A10234   6.447  13.980   7.197 -0.1111  0.2355  0.2026
  665POPI   C1B10235   7.254  14.490   6.451 -0.0299 -0.1490 -0.1156
  665POPI   C2B10236   7.288  14.168   6.684  0.0168  0.0250  0.0183
  665POPI   C3B10237   7.027  13.991   7.017  0.2056  0.2776 -0.0752
  665POPI   C4B10238   6.954  13.787   7.430 -0.0616 -0.0101  0.2373
  666POPI    C110239   3.884  13.018   5.272  0.1360  0.0970 -0.0999
  666POPI    C210240   3.591  13.285   5.320  0.0344  0.0300 -0.3314
  666POPI    C310241   3.947  13.346   5.491 -0.0701  0.1805 -0.1635
  666POPI   PO410242   3.775  12.814   5.322 -0.1314 -0.1339  0.0274
  666POPI   GL110243   3.729  12.483   5.576  0.0028  0.4490 -0.1431
  666POPI   GL210244   3.445  12.416   5.412  0.1187 -0.2151 -0.0948
  666POPI   C1A10245   4.096  12.515   5.967  0.3164  0.1175 -0.0917
  666POPI   D2A10246   4.346  12.759   6.228 -0.0467  0.0086  0.0089
  666POPI   C3A10247   3.956  12.992   6.377 -0.2102  0.0186 -0.2921
  666POPI   C4A10248   3.642  12.822   6.620 -0.0780  0.0331 -0.0253
  666POPI   C1B10249   3.251  12.408   5.733  0.3318 -0.0789  0.2059
  666POPI   C2B10250   3.225  12.266   6.133 -0.2333 -0.0760 -0.0082
  666POPI   C3B10251   3.117  11.939   6.413 -0.0163 -0.2882 -0.0093
  666POPI   C4B10252   3.169  11.707   6.846  0.0606  0.1639  0.2131
  667POPI    C110253  12.465  15.601   5.620  0.1536  0.0338  0.0454
  667POPI    C210254  12.310  15.553   5.254  0.2378 -0.2372  0.0432
  667POPI    C310255  12.580  15.841   5.320  0.0006  0.0076 -0.0353
  667POPI   PO410256  12.497  15.322   5.644  0.4399 -0.3284 -0.0016
  667POPI   GL110257  12.735  15.406   6.055  0.0675 -0.4294 -0.0719
  667POPI   GL210258  12.829  15.169   6.292 -0.0492  0.2219 -0.0807
  667POPI   C1A10259  12.325  15.182   6.416  0.2586 -0.2038  0.1432
  667POPI   D2A10260  11.952  15.439   6.662  0.0189  0.1613  0.1345
  667POPI   C3A10261  11.907  15.496   7.057 -0.0387  0.3077 -0.1724
  667POPI   C4A10262  11.731  15.647   7.393 -0.2430  0.0070 -0.1873
  667POPI   C1B10263  12.813  15.114   6.717 -0.2512  0.1543 -0.1770
  667POPI   C2B10264  12.800  15.056   7.056  0.2471  0.2872 -0.1110
  667POPI   C3B10265  12.820  15.413   7.437 -0.0825 -0.3001  0.0130
  667POPI   C4B10266  13.219  15.553   7.725  0.0293  0.2937  0.2343
  668POPI    C110267   9.240  11.668   5.321  0.1438  0.2470 -0.1189
  668POPI    C210268   9.303  12.054   5.237  0.1683  0.2481 -0.0959
  668POPI    C310269   9.246  11.791   4.941  0.0216  0.2913 -0.1071
  668POPI   PO410270   9.387  11.717   5.580 -0.0766  0.3685 -0.0439
  668POPI   GL110271   9.687  11.618   5.872 -0.2613  0.1025 -0.0752
  668POPI   GL210272   9.937  11.317   5.823  0.0556 -0.4771 -0.0551
  668POPI   C1A10273   9.691  11.633   6.407  0.1133 -0.4250  0.1239
  668POPI   D2A10274   9.863  11.542   6.815  0.2265  0.2311 -0.1081
  668POPI   C3A10275  10.237  11.486   6.792  0.2614  0.1396  0.2050
  668POPI   C4A10276  10.600  11.513   6.892 -0.2271  0.1146  0.1499
  668POPI   C1B10277  10.097  11.471   6.183  0.0728 -0.0620 -0.2191
  668POPI   C2B10278  10.454  11.614   6.347  0.5588  0.0861 -0.2300
  668POPI   C3B10279  10.458  11.952   6.698  0.4648  0.2043  0.0992
  668POPI   C4B10280  10.251  11.850   7.134 -0.1467 -0.2067  0.2477
  669POPI    C110281   1.386   0.144   5.317 -0.0582 -0.2216  0.0945
  669POPI    C210282   1.263  -0.150   5.075 -0.1438 -0.1247  0.0198
  669POPI    C310283   1.236   0.231   4.956  0.1617 -0.0976  0.0312
  669POPI   PO410284   1.556  -0.030   5.463  0.0206  0.1896 -0.0817
  669POPI   GL110285   1.741  -0.154   5.855  0.0301 -0.2030 -0.0534
  669POPI   GL210286   1.914   0.118   5.849  0.0314 -0.3352  0.2033
  669POPI   C1A10287   1.643  -0.383   6.379  0.1526 -0.1058  0.1939
  669POPI   D2A10288   1.562  -0.623   6.749  0.1462  0.4840  0.0912
  669POPI   C3A10289   1.544  -1.012   6.670  0.1473  0.0183  0.3340
  669POPI   C4A10290   1.636  -1.368   6.451 -0.0194  0.2726  0.1743
  669POPI   C1B10291   2.092  -0.257   6.117 -0.0466  0.0758 -0.2290
  669POPI   C2B10292   2.304  -0.221   6.468 -0.0915  0.1426 -0.0349
  669POPI   C3B10293   2.424  -0.407   6.852  0.1185 -0.0802  0.0126
  669POPI   C4B10294   2.235  -0.612   7.138  0.0676 -0.0378  0.0707
  670POPI    C110295   8.633   9.594   5.164 -0.1176  0.1665  0.4357
  670POPI    C210296   8.260   9.574   5.305 -0.3363  0.0481 -0.1310
  670POPI    C310297   8.479   9.241   5.273 -0.1621  0.1226  0.2358
  670POPI   PO410298   8.837   9.774   5.432 -0.4575 -0.4061 -0.2260
  670POPI   GL110299   8.978   9.934   5.785  0.1672 -0.2667  0.2339
  670POPI   GL210300   9.191  10.098   5.776 -0.3978  0.0309  0.0378
  670POPI   C1A10301   8.866   9.709   6.119 -0.2607  0.3782  0.0817
  670POPI   D2A10302   8.426   9.541   6.172  0.1589 -0.0401 -0.1558
  670POPI   C3A10303   8.093   9.728   6.480  0.2087 -0.1892  0.1090
  670POPI   C4A10304   8.050   9.594   6.841 -0.0521 -0.0824 -0.0907
  670POPI   C1B10305   9.290  10.046   6.218  0.1764  0.0880 -0.0167
  670POPI   C2B10306   9.581   9.977   6.586 -0.1592  0.2391  0.1846
  670POPI   C3B10307   9.486  10.089   7.057  0.0989 -0.3061  0.0745
  670POPI   C4B10308   9.219   9.826   7.397  0.0091  0.0566 -0.2775
  671POPI    C110309   3.409   5.213   5.716 -0.2864  0.3087  0.1253
  671POPI    C210310   3.650   5.533   5.724  0.0797  0.0424  0.0350
  671POPI    C310311   3.508   5.398   5.375 -0.1769  0.1763  0.0845
  671POPI   PO410312   3.358   5.201   5.968  0.0395  0.1319 -0.2515
  671POPI   GL110313   3.432   5.508   6.285 -0.0527 -0.2075 -0.0204
  671POPI   GL210314   3.154   5.353   6.511 -0.0024 -0.1747  0.0673
  671POPI   C1A10315   3.884   5.702   6.483  0.0251  0.1107 -0.2183
  671POPI   D2A10316   4.027   5.593   6.964 -0.1342  0.0284 -0.2441
  671POPI   C3A10317   3.586   5.689   7.215 -0.1366  0.0800 -0.0280
  671POPI   C4A10318   3.531   6.108   7.355  0.0495 -0.0454 -0.3477
  671POPI   C1B10319   3.102   5.377   6.886  0.0068  0.3145  0.1874
  671POPI   C2B10320   3.258   5.305   7.261  0.1514  0.0299 -0.0871
  671POPI   C3B10321   3.114   5.005   7.454 -0.0094  0.1777 -0.1063
  671POPI   C4B10322   3.054   4.758   7.709 -0.2341 -0.1167  0.0412
  672POPI    C110323  18.392   0.536   5.352  0.2558  0.1990  0.2737
  672POPI    C210324  18.658   0.261   5.234 -0.0422  0.0275 -0.0149
  672POPI    C310325  18.619   0.603   5.030 -0.0121  0.0731  0.0552
  672POPI   PO410326  18.195   0.311   5.487 -0.2674  0.0568  0.3835
  672POPI   GL110327  18.063   0.324   5.899  0.1662  0.0460  0.0758
  672POPI   GL210328  18.234   0.079   5.956 -0.2347 -0.0803 -0.3158
  672POPI   C1A10329  18.311   0.537   6.175 -0.1411 -0.0437 -0.1233
  672POPI   D2A10330  18.361   0.913   6.502  0.1484 -0.2210 -0.0122
  672POPI   C3A10331  18.454   1.324   6.781  0.2443  0.1112  0.3084
  672POPI   C4A10332  18.790   1.634   6.776 -0.2912 -0.3170  0.0559
  672POPI   C1B10333  18.286   0.056   6.385  0.2249  0.0518 -0.0505
  672POPI   C2B10334  18.034   0.059   6.669  0.3499 -0.2588 -0.0845
  672POPI   C3B10335  17.614  -0.135   6.876  0.2601  0.0442  0.3796
  672POPI   C4B10336  17.483  -0.353   7.332 -0.0915 -0.0895 -0.3299
  673POPI    C110337   2.401  15.229   5.351 -0.1719 -0.0673  0.0828
  673POPI    C210338   2.294  15.378   4.995  0.2195  0.3038  0.1113
  673POPI    C310339   2.681  15.337   5.086  0.1237 -0.2483  0.3147
  673POPI   PO410340   2.239  15.315   5.509  0.0507  0.2161  0.1915
  673POPI   GL110341   1.916  15.465   5.730  0.2404 -0.3677 -0.0948
  673POPI   GL210342   1.642  15.652   5.669 -0.3285 -0.0483 -0.0153
  673POPI   C1A10343   2.033  15.538   6.196 -0.1712 -0.2098 -0.1546
  673POPI   D2A10344   2.100  15.430   6.668 -0.0486 -0.1066  0.0093
  673POPI   C3A10345   2.107  15.160   7.021 -0.2459  0.1168  0.1107
  673POPI   C4A10346   2.049  14.924   7.358  0.2131 -0.2793  0.0655
  673POPI   C1B10347   1.404  15.907   5.971 -0.3524 -0.0309  0.0120
  673POPI   C2B10348   0.947  15.853   6.016 -0.0646  0.0400 -0.3550
  673POPI   C3B10349   0.499  15.881   6.261  0.0256  0.1221 -0.0013
  673POPI   C4B10350   0.334  16.181   6.170  0.0634  0.0547  0.0926
  674POPI    C110351  14.146  17.262   5.309 -0.2292 -0.3442 -0.0034
  674POPI    C210352  14.061  17.111   4.948  0.1348  0.0643 -0.2698
  674POPI    C310353  14.051  17.507   5.007  0.1656  0.0071  0.1475
  674POPI   PO410354  14.343  17.182   5.490  0.2105 -0.2708 -0.3066
  674POPI   GL110355  14.439  16.821   5.714 -0.0861  0.1483 -0.1485
  674POPI   GL210356  14.504  16.547   5.887  0.2672  0.0655  0.1056
  674POPI   C1A10357  14.539  17.003   6.130 -0.1259  0.0828  0.0212
  674POPI   D2A10358  14.659  17.132   6.610 -0.1302  0.1183  0.0081
  674POPI   C3A10359  14.976  16.867   6.830  0.2922 -0.4298 -0.2801
  674POPI   C4A10360  15.067  17.127   7.165  0.1030 -0.3299  0.0797
  674POPI   C1B10361  14.674  16.263   5.955 -0.0379  0.0561 -0.1232
  674POPI   C2B10362  14.936  16.089   6.316 -0.0437 -0.0281 -0.0883
  674POPI   C3B10363  15.144  16.045   6.691  0.2606 -0.0594  0.1480
  674POPI   C4B10364  15.075  15.742   7.039  0.0593 -0.3864  0.2729
  675POPI    C110365   3.293   8.680   5.421 -0.1077 -0.0354 -0.0460
  675POPI    C210366   3.026   8.972   5.361  0.0302  0.0835 -0.0876
  675POPI    C310367   3.025   8.767   5.705 -0.0938  0.1045 -0.0750
  675POPI   PO410368   3.556   8.787   5.469  0.1474  0.3027  0.1861
  675POPI   GL110369   3.848   8.746   5.685  0.1385  0.1900 -0.2232
  675POPI   GL210370   3.763   8.445   5.796  0.1314 -0.0285 -0.1977
  675POPI   C1A10371   4.099   8.922   6.046  0.2758  0.2065  0.0253
  675POPI   D2A10372   4.422   8.954   6.317  0.0070  0.1271  0.0158
  675POPI   C3A10373   4.665   9.217   6.191 -0.0146  0.1419 -0.1174
  675POPI   C4A10374   4.877   9.533   6.531 -0.0475  0.0886  0.3098
  675POPI   C1B10375   3.987   8.431   6.191 -0.2784 -0.0460 -0.0599
  675POPI   C2B10376   4.113   8.538   6.529 -0.0262 -0.3121 -0.0632
  675POPI   C3B10377   4.191   8.487   6.991  0.0521  0.1978  0.1601
  675POPI   C4B10378   4.210   8.163   7.376  0.0627  0.0727  0.2185
  676POPI    C110379  15.554   9.463   5.060  0.1662  0.2698  0.2507
  676POPI    C210380  15.731   9.809   4.965  0.3728  0.0846 -0.0577
  676POPI    C310381  15.865   9.466   4.809 -0.0008 -0.1069  0.0302
  676POPI   PO410382  15.478   9.369   5.361 -0.4227  0.1209 -0.1935
  676POPI   GL110383  15.332   9.282   5.828 -0.0527  0.1190 -0.0736
  676POPI   GL210384  15.103   9.186   5.679  0.4586 -0.2670  0.1042
  676POPI   C1A10385  15.411   9.428   6.323  0.3021  0.2180 -0.5186
  676POPI   D2A10386  15.480   9.467   6.730 -0.2084 -0.5768  0.1588
  676POPI   C3A10387  15.571   9.565   7.068  0.0649 -0.1251  0.1991
  676POPI   C4A10388  15.734   9.856   7.417  0.1763  0.1516  0.0715
  676POPI   C1B10389  14.894   9.032   6.029  0.2556 -0.2122 -0.0858
  676POPI   C2B10390  14.943   9.060   6.347  0.3057 -0.1463  0.0125
  676POPI   C3B10391  15.358   9.017   6.609 -0.2741  0.0744 -0.0071
  676POPI   C4B10392  15.441   8.884   7.058  0.1129 -0.3637  0.1057
  677POPI    C110393  12.397   6.404   5.213  0.0515  0.0362 -0.2771
  677POPI    C210394  12.439   6.789   5.315 -0.0477 -0.0795  0.2265
  677POPI    C310395  12.714   6.612   5.085  0.1625  0.2088  0.2505
  677POPI   PO410396  12.409   6.294   5.454 -0.5980 -0.0965  0.2735
  677POPI   GL110397  12.457   6.555   5.748  0.0785  0.0841 -0.0054
  677POPI   GL210398  12.855   6.520   5.621 -0.2693 -0.0588 -0.1716
  677POPI   C1A10399  12.314   6.715   6.115  0.0173 -0.0153  0.0619
  677POPI   D2A10400  12.492   6.742   6.473 -0.0656  0.3297 -0.3561
  677POPI   C3A10401  12.339   6.603   6.850 -0.1480 -0.0965 -0.0737
  677POPI   C4A10402  11.971   6.649   6.985  0.0316  0.3464  0.3916
  677POPI   C1B10403  13.007   6.459   5.984  0.0982  0.2093  0.4477
  677POPI   C2B10404  12.954   6.507   6.464  0.0535 -0.0379  0.2414
  677POPI   C3B10405  12.700   6.257   6.698 -0.3070 -0.0290  0.0220
  677POPI   C4B10406  12.567   6.164   7.107  0.1924  0.0515  0.0991
  678POPI    C110407  17.923   7.835   5.420  0.0143 -0.0401  0.1403
  678POPI    C210408  18.217   7.612   5.264 -0.0184  0.0221 -0.0120
  678POPI    C310409  18.097   7.550   5.640  0.0505 -0.1403 -0.0159
  678POPI   PO410410  17.980   8.044   5.440 -0.3289 -0.1345  0.1369
  678POPI   GL110411  18.362   8.165   5.735  0.0123  0.1684 -0.0250
  678POPI   GL210412  18.141   8.424   5.925 -0.1144  0.3843 -0.0892
  678POPI   C1A10413  18.310   7.848   6.121 -0.0328  0.1103 -0.1493
  678POPI   D2A10414  18.260   7.345   6.035  0.0784  0.0986 -0.0839
  678POPI   C3A10415  18.199   7.162   6.456  0.3248 -0.1700  0.3185
  678POPI   C4A10416  18.067   7.076   6.847 -0.3016  0.2022 -0.1551
  678POPI   C1B10417  18.480   8.272   6.214 -0.1088 -0.1912  0.0907
  678POPI   C2B10418  18.628   8.087   6.575  0.1142  0.2726  0.0785
  678POPI   C3B10419  18.805   7.858   6.989  0.0003  0.1385  0.5460
  678POPI   C4B10420  19.283   7.779   7.000 -0.0663  0.0401  0.4034
  679POPI    C110421  13.392  14.944   5.438  0.0975  0.0643 -0.0160
  679POPI    C210422  13.056  15.012   5.232  0.0344  0.2387  0.1414
  679POPI    C310423  13.359  14.814   5.062 -0.1423  0.0919 -0.0058
  679POPI   PO410424  13.310  14.748   5.684 -0.0324 -0.0714  0.1176
  679POPI   GL110425  13.356  14.432   5.948  0.0420  0.0286 -0.2204
  679POPI   GL210426  13.327  14.051   5.899  0.2244  0.1075 -0.0450
  679POPI   C1A10427  13.615  14.521   6.217  0.0750  0.2218 -0.0278
  679POPI   D2A10428  13.946  14.438   6.463 -0.2266 -0.1028 -0.2072
  679POPI   C3A10429  14.171  14.471   6.843 -0.0982 -0.1167  0.0951
  679POPI   C4A10430  14.224  14.710   7.223 -0.2220  0.0016  0.2075
  679POPI   C1B10431  13.186  13.756   6.189 -0.0879 -0.3425  0.2073
  679POPI   C2B10432  13.035  13.466   6.372 -0.1200  0.0839 -0.4778
  679POPI   C3B10433  13.172  13.445   6.647  0.2477  0.0241  0.3627
  679POPI   C4B10434  13.210  13.219   7.020  0.2000 -0.1121 -0.0389
  680POPI    C110435   7.077   9.484   5.269  0.0863 -0.0114  0.2048
  680POPI    C210436   7.332   9.407   4.971 -0.0410  0.0327  0.0837
  680POPI    C310437   7.351   9.756   5.165  0.0488 -0.0004  0.1346
  680POPI   PO410438   7.058   9.280   5.506 -0.0357 -0.0332  0.2268
  680POPI   GL110439   6.966   8.979   5.833 -0.1232  0.0112  0.1086
  680POPI   GL210440   6.925   9.269   6.032 -0.2066  0.0619 -0.0074
  680POPI   C1A10441   6.716   8.708   6.109  0.1639 -0.1017  0.2047
  680POPI   D2A10442   6.312   8.591   6.408 -0.0811 -0.1646 -0.1647
  680POPI   C3A10443   6.271   8.812   6.730 -0.1114  0.1203  0.1255
  680POPI   C4A10444   6.284   8.969   7.178  0.0966  0.0654 -0.0604
  680POPI   C1B10445   7.065   9.315   6.456 -0.3365 -0.0080 -0.1081
  680POPI   C2B10446   7.128   9.228   6.864  0.0230 -0.2118 -0.0089
  680POPI   C3B10447   6.901   9.466   7.124 -0.1157  0.1903  0.4139
  680POPI   C4B10448   6.708   9.790   7.338 -0.0473  0.2071  0.1345
  681POPI    C110449   9.205  10.283   5.045 -0.3915 -0.0851 -0.0559
  681POPI    C210450   9.322   9.984   4.806  0.2314  0.1170 -0.0215
  681POPI    C310451   8.943  10.002   4.933  0.0958 -0.4529 -0.3120
  681POPI   PO410452   9.385  10.259   5.330 -0.2224  0.3113 -0.1687
  681POPI   GL110453   9.599  10.476   5.737  0.0436 -0.2027 -0.1265
  681POPI   GL210454   9.715  10.860   5.671 -0.0225 -0.0297 -0.1557
  681POPI   C1A10455   9.769  10.367   6.055 -0.1693 -0.4266  0.0054
  681POPI   D2A10456   9.873  10.572   6.421 -0.1221  0.1149  0.0511
  681POPI   C3A10457  10.080  10.339   6.633  0.3097  0.0359  0.1471
  681POPI   C4A10458  10.017  10.108   6.996  0.0748  0.2352  0.0438
  681POPI   C1B10459   9.547  11.105   6.027 -0.0469 -0.1389 -0.1251
  681POPI   C2B10460   9.486  11.163   6.361  0.0519  0.0258  0.0673
  681POPI   C3B10461   9.564  11.023   6.730 -0.1278 -0.2083 -0.1541
  681POPI   C4B10462   9.595  11.081   7.112 -0.3641 -0.0839  0.3223
  682POPS   CNO10463   0.310  18.468   5.402  0.0717  0.0625 -0.2156
  682POPS   PO410464   0.453  18.880   5.325 -0.1739  0.0379 -0.0802
  682POPS   GL110465   0.399  18.795   5.762 -0.1235  0.4774 -0.3039
  682POPS   GL210466   0.732  18.702   5.764 -0.2537  0.3416  0.1018
  682POPS   C1A10467   0.355  18.747   6.202 -0.2105 -0.0313  0.2856
  682POPS   D2A10468   0.159  18.382   6.339 -0.0008 -0.0297 -0.2378
  682POPS   C3A10469   0.388  18.054   6.090  0.0785 -0.0333 -0.1656
  682POPS   C4A10470   0.452  17.566   5.994  0.1616 -0.0150 -0.2751
  682POPS   C1B10471   0.723  18.427   6.078 -0.3088  0.0818 -0.0945
  682POPS   C2B10472   0.632  18.501   6.510 -0.3617  0.1759 -0.0487
  682POPS   C3B10473   0.576  18.507   7.023  0.2635  0.1429 -0.0671
  682POPS   C4B10474   0.778  18.329   7.357  0.2398 -0.1335 -0.1397
  683POPS   CNO10475  11.240   5.563   4.913 -0.1824  0.0700  0.1092
  683POPS   PO410476  11.007   5.917   5.026  0.2891  0.1097 -0.2140
  683POPS   GL110477  11.168   5.779   5.393 -0.0112 -0.1218  0.0450
  683POPS   GL210478  11.302   6.014   5.542 -0.1075  0.0712 -0.0633
  683POPS   C1A10479  11.096   5.694   5.866  0.2049 -0.3080  0.3129
  683POPS   D2A10480  10.934   5.913   6.130  0.3221  0.0479 -0.2843
  683POPS   C3A10481  10.631   5.855   6.392  0.0993  0.1219  0.0839
  683POPS   C4A10482  10.271   5.955   6.229  0.2086  0.0870  0.1314
  683POPS   C1B10483  11.446   6.067   5.986 -0.0444 -0.0381 -0.2640
  683POPS   C2B10484  11.386   5.883   6.415  0.0908 -0.1156 -0.0498
  683POPS   C3B10485  11.318   5.879   6.807  0.0067  0.0130  0.2589
  683POPS   C4B10486  11.435   5.747   7.087  0.2208  0.1119 -0.2301
  684POPS   CNO10487  11.617  13.262   5.627  0.1030 -0.3331 -0.1476
  684POPS   PO410488  11.833  13.708   5.704 -0.0769 -0.0094 -0.1497
  684POPS   GL110489  12.010  13.828   6.107  0.1054 -0.2557  0.0033
  684POPS   GL210490  12.052  14.087   6.218 -0.1189  0.0821 -0.1804
  684POPS   C1A10491  12.054  13.488   6.465  0.1776 -0.2498 -0.0576
  684POPS   D2A10492  12.255  13.347   6.953 -0.1291 -0.0516 -0.1229
  684POPS   C3A10493  12.204  13.639   7.275  0.1196 -0.3463 -0.0277
  684POPS   C4A10494  11.916  13.992   7.152 -0.0526  0.1714  0.2859
  684POPS   C1B10495  12.219  13.893   6.694  0.0368 -0.1935  0.0623
  684POPS   C2B10496  12.472  14.018   7.086 -0.1743 -0.0521 -0.0426
  684POPS   C3B10497  12.681  13.991   7.484  0.2122 -0.2158 -0.4301
  684POPS   C4B10498  13.061  14.137   7.536 -0.4361  0.0088  0.0537
  685POPS   CNO10499  13.599   0.608   5.165  0.3040 -0.1337 -0.1614
  685POPS   PO410500  13.339   1.020   5.239 -0.2449 -0.0248 -0.0453
  685POPS   GL110501  13.397   0.796   5.653  0.1733  0.0214 -0.3372
  685POPS   GL210502  13.287   0.432   5.692  0.5025 -0.0532 -0.0045
  685POPS   C1A10503  13.837   0.683   5.874 -0.0281 -0.3386 -0.1257
  685POPS   D2A10504  14.262   0.522   6.037 -0.2136  0.1431  0.5125
  685POPS   C3A10505  14.345   0.387   6.460  0.0742  0.0142 -0.1890
  685POPS   C4A10506  14.131   0.529   6.808  0.0339  0.1456  0.3678
  685POPS   C1B10507  13.507   0.357   6.044  0.0676  0.1873 -0.0272
  685POPS   C2B10508  13.368   0.250   6.462 -0.2245  0.3019  0.2355
  685POPS   C3B10509  13.526   0.061   6.844  0.0345 -0.0784  0.0837
  685POPS   C4B10510  13.282  -0.251   7.087 -0.0574  0.0160 -0.2526
  686POPS   CNO10511   3.667  10.735   4.817  0.0047  0.4120  0.0870
  686POPS   PO410512   3.973  10.514   5.158 -0.3497 -0.0497 -0.0233
  686POPS   GL110513   3.807  10.202   5.478  0.0837  0.0134 -0.3514
  686POPS   GL210514   4.165  10.123   5.588 -0.0426  0.1528 -0.2300
  686POPS   C1A10515   3.670  10.222   5.897  0.1442  0.5037 -0.1603
  686POPS   D2A10516   3.689  10.291   6.390 -0.0890  0.0831  0.1124
  686POPS   C3A10517   3.246  10.340   6.553  0.1260 -0.0816 -0.2603
  686POPS   C4A10518   2.990  10.140   6.480  0.1104 -0.0366 -0.2233
  686POPS   C1B10519   4.366  10.090   5.944 -0.0728  0.1246 -0.2797
  686POPS   C2B10520   4.327  10.216   6.394  0.0337 -0.0661 -0.1342
  686POPS   C3B10521   4.523  10.057   6.835 -0.1751  0.0833 -0.0630
  686POPS   C4B10522   4.942   9.888   7.022 -0.4967  0.0032 -0.0729
  687POPS   CNO10523   4.721   9.354   5.067  0.4157 -0.3554  0.0771
  687POPS   PO410524   4.884   9.561   5.286  0.0675 -0.1808 -0.3154
  687POPS   GL110525   4.903   9.510   5.816  0.4829  0.0743  0.2549
  687POPS   GL210526   4.641   9.659   5.810 -0.0879  0.0832  0.1677
  687POPS   C1A10527   5.229   9.438   6.173 -0.1367  0.1171  0.2142
  687POPS   D2A10528   5.320   9.347   6.605  0.2304  0.2812 -0.3043
  687POPS   C3A10529   5.569   9.139   6.782 -0.2312 -0.1132  0.1613
  687POPS   C4A10530   5.973   9.267   6.830  0.0661 -0.0166  0.2404
  687POPS   C1B10531   4.707   9.813   6.161  0.1004 -0.1797  0.1274
  687POPS   C2B10532   4.389   9.725   6.494 -0.1779 -0.0469 -0.1241
  687POPS   C3B10533   4.449   9.400   6.772 -0.1237  0.0543 -0.1980
  687POPS   C4B10534   4.779   9.261   7.005 -0.0118  0.2236  0.0985
  688POPS   CNO10535  10.023   3.950   5.606 -0.1508  0.1798 -0.1396
  688POPS   PO410536  10.195   3.720   5.466  0.1160 -0.1736 -0.5247
  688POPS   GL110537  10.237   3.509   5.896  0.2167 -0.2072 -0.1491
  688POPS   GL210538  10.457   3.742   5.956  0.0966  0.2574  0.2025
  688POPS   C1A10539  10.404   3.516   6.378 -0.0682 -0.1373  0.2707
  688POPS   D2A10540  10.454   3.528   6.782 -0.0509 -0.1703 -0.1293
  688POPS   C3A10541  10.103   3.392   7.132  0.0231  0.2786  0.2153
  688POPS   C4A10542   9.982   2.946   7.069 -0.0156  0.0230 -0.0575
  688POPS   C1B10543  10.375   4.087   6.111 -0.2612  0.0991 -0.2457
  688POPS   C2B10544  10.260   4.542   6.209  0.0461 -0.2153  0.0171
  688POPS   C3B10545  10.299   5.040   6.308  0.0141  0.2666  0.1057
  688POPS   C4B10546  10.343   5.403   6.186 -0.2305 -0.3499  0.0214
  689POPS   CNO10547   5.031   7.333   5.337  0.1000  0.0327  0.1248
  689POPS   PO410548   5.121   7.820   5.489 -0.0796  0.0959 -0.0661
  689POPS   GL110549   5.280   7.878   5.826  0.1935  0.2236  0.3111
  689POPS   GL210550   5.130   8.147   6.047  0.0066 -0.0260  0.0692
  689POPS   C1A10551   5.291   7.674   6.142  0.1632 -0.2343  0.1122
  689POPS   D2A10552   5.470   7.466   6.526 -0.0510  0.1858  0.0326
  689POPS   C3A10553   5.456   7.373   6.962  0.0283  0.2666 -0.0591
  689POPS   C4A10554   5.507   7.333   7.443 -0.1818 -0.1081 -0.2551
  689POPS   C1B10555   5.204   8.414   6.388  0.2839  0.0050 -0.0778
  689POPS   C2B10556   5.137   8.473   6.764  0.1113  0.1872  0.0943
  689POPS   C3B10557   5.165   8.208   7.126 -0.0705 -0.0794 -0.0301
  689POPS   C4B10558   5.031   7.842   7.251 -0.0867  0.3108  0.4475
  690POPS   CNO10559   7.540  11.901   5.393 -0.1214  0.1758 -0.1438
  690POPS   PO410560   7.179  12.201   5.634  0.1832  0.2883 -0.1005
  690POPS   GL110561   7.152  11.901   5.948 -0.1478  0.1758 -0.0385
  690POPS   GL210562   6.858  12.065   5.972  0.1060  0.0922  0.1566
  690POPS   C1A10563   7.495  11.773   6.177 -0.0919 -0.0724 -0.3342
  690POPS   D2A10564   7.656  11.669   6.603 -0.2089 -0.2331  0.1740
  690POPS   C3A10565   7.462  11.852   7.011  0.2562 -0.0439  0.0922
  690POPS   C4A10566   7.372  12.260   7.260  0.2097 -0.3445  0.1122
  690POPS   C1B10567   6.769  11.858   6.249  0.4412  0.0630 -0.0875
  690POPS   C2B10568   6.698  11.710   6.745  0.0427  0.0106 -0.0396
  690POPS   C3B10569   6.459  11.759   7.145 -0.0931 -0.0688  0.0489
  690POPS   C4B10570   6.528  11.443   7.606 -0.0954 -0.1373 -0.0349
  691POPS   CNO10571  10.068   5.262   5.763  0.0449  0.1156 -0.2539
  691POPS   PO410572   9.628   5.396   5.750  0.1790  0.0333  0.0457
  691POPS   GL110573   9.586   5.383   6.213  0.2085 -0.1630  0.5280
  691POPS   GL210574   9.907   5.309   6.345  0.1567 -0.2333  0.1678
  691POPS   C1A10575   9.459   5.268   6.566 -0.0114  0.2797  0.1366
  691POPS   D2A10576   9.743   5.437   6.879  0.0837 -0.0733  0.1355
  691POPS   C3A10577   9.926   5.157   7.181  0.0399 -0.0584 -0.1974
  691POPS   C4A10578  10.193   4.784   7.085  0.0756  0.1069  0.1933
  691POPS   C1B10579   9.874   5.754   6.463 -0.0988  0.1837 -0.2960
  691POPS   C2B10580   9.851   6.001   6.926  0.1815 -0.2645 -0.1322
  691POPS   C3B10581   9.631   6.235   7.285 -0.2393  0.0939  0.0556
  691POPS   C4B10582   9.410   6.066   7.603  0.0735  0.1890  0.0734
  692POPS   CNO10583   0.466   2.153   5.310 -0.1437 -0.0764 -0.3213
  692POPS   PO410584   0.247   2.244   5.668 -0.1989 -0.0169 -0.0545
  692POPS   GL110585   0.169   2.424   6.054  0.1237 -0.1952 -0.0233
  692POPS   GL210586   0.184   2.729   6.381  0.0686 -0.0827 -0.3249
  692POPS   C1A10587  -0.022   2.279   6.469  0.1763  0.1647  0.2688
  692POPS   D2A10588   0.102   2.015   6.670  0.1607 -0.1248 -0.1677
  692POPS   C3A10589   0.038   2.067   7.162 -0.2649 -0.0318  0.0023
  692POPS   C4A10590  -0.128   2.414   7.383  0.4247  0.3834  0.2273
  692POPS   C1B10591  -0.033   3.066   6.581  0.2855  0.3699  0.0346
  692POPS   C2B10592  -0.417   3.327   6.765 -0.4320 -0.3376  0.0085
  692POPS   C3B10593  -0.526   3.305   7.207  0.0191  0.0270  0.1106
  692POPS   C4B10594  -0.407   3.586   7.571  0.1853  0.0108 -0.1293
  693POPS   CNO10595  13.862   9.018   5.314 -0.1232  0.0577  0.1014
  693POPS   PO410596  14.156   9.282   5.251  0.1118 -0.0042 -0.0265
  693POPS   GL110597  14.236   9.566   5.639  0.0211  0.1135 -0.1003
  693POPS   GL210598  14.030   9.336   5.764  0.0142 -0.3727  0.0577
  693POPS   C1A10599  14.078   9.725   6.109  0.1071 -0.4097  0.4232
  693POPS   D2A10600  14.048  10.145   6.123 -0.0486  0.1469  0.0712
  693POPS   C3A10601  14.391  10.359   6.278  0.1051 -0.0143  0.0916
  693POPS   C4A10602  14.651  10.487   6.743 -0.2278  0.0213 -0.1029
  693POPS   C1B10603  13.827   9.236   6.224 -0.0687  0.0892  0.3780
  693POPS   C2B10604  13.790   8.927   6.491  0.1785  0.0282 -0.1954
  693POPS   C3B10605  13.751   8.688   6.795  0.0400  0.2140  0.0952
  693POPS   C4B10606  13.967   8.388   7.047 -0.1606 -0.0299 -0.1233
  694POPS   CNO10607  11.453  15.406   5.672 -0.0653  0.0631 -0.2296
  694POPS   PO410608  11.558  15.016   5.884  0.3604  0.1246 -0.1876
  694POPS   GL110609  11.586  14.994   6.242  0.1694 -0.3171  0.2499
  694POPS   GL210610  11.953  14.826   6.363 -0.2329 -0.1873  0.0461
  694POPS   C1A10611  11.512  15.100   6.632 -0.2867  0.1009  0.2940
  694POPS   D2A10612  11.452  15.284   7.040  0.0558  0.0012  0.2877
  694POPS   C3A10613  11.450  15.153   7.385  0.1991  0.0265 -0.2751
  694POPS   C4A10614  11.602  14.972   7.798 -0.0030 -0.0015 -0.2204
  694POPS   C1B10615  11.899  14.839   6.791 -0.0263  0.2952  0.0528
  694POPS   C2B10616  11.821  14.925   7.129  0.2942 -0.1225 -0.0141
  694POPS   C3B10617  12.031  15.107   7.464  0.0604  0.1078  0.0091
  694POPS   C4B10618  12.235  15.224   7.779 -0.2105  0.1382  0.0046
  695POPS   CNO10619   6.179  13.385   6.009  0.1124  0.1393 -0.2834
  695POPS   PO410620   6.113  13.118   5.723 -0.3006  0.2243  0.2444
  695POPS   GL110621   5.943  12.875   6.025 -0.2127  0.0505 -0.1223
  695POPS   GL210622   5.741  13.138   6.122 -0.1791  0.0867 -0.5676
  695POPS   C1A10623   6.067  12.656   6.367  0.2926 -0.1160 -0.2348
  695POPS   D2A10624   5.955  12.546   6.780  0.0019 -0.0913 -0.1150
  695POPS   C3A10625   6.345  12.553   7.001  0.1846  0.1596  0.1341
  695POPS   C4A10626   6.390  12.630   7.478 -0.4852  0.2826  0.3620
  695POPS   C1B10627   5.735  12.964   6.559  0.0816  0.0662  0.3146
  695POPS   C2B10628   5.598  12.764   6.989  0.1696  0.0687  0.2033
  695POPS   C3B10629   5.222  12.518   7.144  0.0146  0.0735 -0.0161
  695POPS   C4B10630   4.888  12.499   7.408  0.3877 -0.2110  0.2104
  696POPS   CNO10631  15.792   5.739   4.861 -0.1872 -0.2587  0.1264
  696POPS   PO410632  15.666   5.881   5.132  0.1064 -0.1709 -0.1098
  696POPS   GL110633  15.633   5.833   5.535  0.0631 -0.0762  0.0907
  696POPS   GL210634  15.805   5.989   5.650  0.2214  0.3145  0.2394
  696POPS   C1A10635  15.368   5.848   5.884 -0.1609  0.4226 -0.0787
  696POPS   D2A10636  15.329   5.762   6.283  0.1984  0.0203 -0.3052
  696POPS   C3A10637  14.851   5.665   6.435 -0.0218 -0.1405 -0.4838
  696POPS   C4A10638  14.527   5.468   6.355 -0.2442 -0.0799  0.1231
  696POPS   C1B10639  15.845   6.401   5.756  0.3031 -0.0902 -0.2362
  696POPS   C2B10640  15.887   6.660   6.104  0.0268  0.0108  0.1832
  696POPS   C3B10641  15.779   6.514   6.521  0.1969  0.2630  0.1857
  696POPS   C4B10642  15.542   6.232   6.723 -0.1804  0.0192 -0.0586
  697POPS   CNO10643  17.334  14.857   5.272 -0.4877 -0.1759  0.1609
  697POPS   PO410644  17.176  15.382   5.250 -0.1380  0.1875  0.1200
  697POPS   GL110645  17.175  15.169   5.672 -0.0931  0.1678 -0.2150
  697POPS   GL210646  17.003  14.832   5.790  0.3190 -0.0486 -0.0932
  697POPS   C1A10647  17.456  15.075   6.048  0.1710  0.1179 -0.1789
  697POPS   D2A10648  17.618  14.982   6.518  0.1311 -0.0223 -0.0272
  697POPS   C3A10649  17.679  15.386   6.778  0.0206  0.0328 -0.1234
  697POPS   C4A10650  17.718  15.646   7.041  0.4029  0.0263 -0.1905
  697POPS   C1B10651  16.738  14.786   6.118  0.0253 -0.1100  0.2422
  697POPS   C2B10652  16.534  14.901   6.513  0.4126  0.0334 -0.3217
  697POPS   C3B10653  16.298  14.784   6.848 -0.0739 -0.3020 -0.0814
  697POPS   C4B10654  16.252  14.548   7.169  0.1144 -0.0409  0.2486
  698POPS   CNO10655   7.884  16.380   5.214 -0.0661  0.3505 -0.1029
  698POPS   PO410656   7.963  16.401   5.689  0.3211  0.1093 -0.0194
  698POPS   GL110657   7.861  16.145   5.956  0.0933 -0.0653 -0.1603
  698POPS   GL210658   7.576  16.207   6.124  0.0772 -0.1803 -0.2606
  698POPS   C1A10659   8.026  15.878   6.205  0.0490 -0.2527  0.0629
  698POPS   D2A10660   8.232  15.569   6.490  0.1244 -0.1290 -0.1268
  698POPS   C3A10661   8.226  15.637   6.905 -0.0774  0.1482 -0.2772
  698POPS   C4A10662   7.964  15.699   7.246 -0.1560 -0.4029 -0.0392
  698POPS   C1B10663   7.572  16.178   6.587  0.0308 -0.0409  0.0632
  698POPS   C2B10664   7.579  16.172   7.007  0.0603 -0.1916 -0.0120
  698POPS   C3B10665   7.283  16.076   7.390 -0.0829  0.0402 -0.1281
  698POPS   C4B10666   7.055  15.678   7.478  0.1613  0.0707 -0.2135
  699POPS   CNO10667   0.246  13.438   5.177 -0.2422 -0.1753 -0.0029
  699POPS   PO410668  -0.216  13.496   5.051  0.0084  0.0784 -0.1255
  699POPS   GL110669  -0.158  13.615   5.498 -0.1572 -0.1795  0.0367
  699POPS   GL210670  -0.316  13.843   5.740  0.0713  0.2001  0.0030
  699POPS   C1A10671  -0.022  13.426   5.905  0.1800  0.2837  0.0400
  699POPS   D2A10672  -0.015  12.961   6.130  0.2917  0.0838  0.1474
  699POPS   C3A10673  -0.040  12.890   6.570 -0.2961 -0.2112 -0.0245
  699POPS   C4A10674  -0.245  12.651   6.901 -0.2874 -0.0986 -0.1353
  699POPS   C1B10675  -0.057  14.304   5.758  0.1598 -0.3374 -0.2218
  699POPS   C2B10676   0.242  14.511   5.892 -0.0399  0.0182  0.5367
  699POPS   C3B10677   0.401  14.622   6.158 -0.1229  0.2235 -0.1619
  699POPS   C4B10678   0.588  14.609   6.601 -0.0549 -0.0836  0.2316
  700POPS   CNO10679   8.709   3.806   5.594 -0.1074 -0.0074  0.3362
  700POPS   PO410680   8.211   3.889   5.518  0.2018 -0.0583  0.3242
  700POPS   GL110681   8.196   3.730   6.014 -0.3209 -0.0119 -0.0641
  700POPS   GL210682   7.862   3.782   6.151 -0.0461  0.2524 -0.1378
  700POPS   C1A10683   8.007   3.316   6.203 -0.1765  0.1262  0.1152
  700POPS   D2A10684   8.074   2.912   6.371  0.1772  0.3057 -0.0731
  700POPS   C3A10685   8.244   3.010   6.711  0.0839  0.2829 -0.1587
  700POPS   C4A10686   8.497   2.905   6.849 -0.2116  0.2421 -0.1930
  700POPS   C1B10687   8.087   3.680   6.537  0.1303 -0.3097 -0.0457
  700POPS   C2B10688   7.928   3.824   6.978 -0.3586 -0.0295 -0.2176
  700POPS   C3B10689   8.054   3.759   7.366  0.2525  0.1907 -0.1305
  700POPS   C4B10690   7.798   3.740   7.726 -0.0441  0.1430 -0.1451
  701POPS   CNO10691   0.115   3.537   5.675 -0.1717 -0.2127 -0.3973
  701POPS   PO410692   0.519   3.426   5.560 -0.1111  0.2127  0.0807
  701POPS   GL110693   0.402   3.146   5.949  0.2616  0.1108  0.0001
  701POPS   GL210694   0.554   3.090   6.224 -0.2196 -0.0267  0.0953
  701POPS   C1A10695   0.026   3.037   6.045  0.2647  0.0849 -0.3100
  701POPS   D2A10696  -0.264   3.167   5.916 -0.0377 -0.1514  0.0700
  701POPS   C3A10697  -0.409   3.650   5.763  0.0571  0.2674  0.2596
  701POPS   C4A10698  -0.767   3.895   5.976 -0.0702 -0.2346  0.0809
  701POPS   C1B10699   0.479   3.274   6.550 -0.1717 -0.4556 -0.2463
  701POPS   C2B10700   0.237   3.409   6.914 -0.0854  0.0447 -0.1077
  701POPS   C3B10701   0.024   3.441   7.347 -0.1786  0.2350  0.3812
  701POPS   C4B10702   0.156   3.321   7.768 -0.0813 -0.5537 -0.0525
  702POPS   CNO10703   9.044  14.002   5.825  0.2608 -0.1363 -0.1381
  702POPS   PO410704   9.337  14.308   5.942  0.0134  0.2239 -0.0659
  702POPS   GL110705   9.266  13.997   6.289 -0.0983  0.0072 -0.0903
  702POPS   GL210706   8.939  14.063   6.315 -0.2305 -0.1223 -0.1122
  702POPS   C1A10707   9.289  14.078   6.725  0.0690  0.0045 -0.0820
  702POPS   D2A10708   9.280  13.772   7.159 -0.0602  0.3592  0.0678
  702POPS   C3A10709   9.541  13.419   7.384  0.1507  0.0635  0.0776
  702POPS   C4A10710   9.832  13.416   7.749 -0.1406  0.0212 -0.0169
  702POPS   C1B10711   8.852  13.820   6.743 -0.0327 -0.1316 -0.3467
  702POPS   C2B10712   8.768  13.656   7.174  0.1063  0.1394  0.2401
  702POPS   C3B10713   8.978  13.839   7.582  0.2596 -0.1314 -0.2326
  702POPS   C4B10714   8.654  13.909   7.890 -0.0170  0.0367 -0.1214
  703POPS   CNO10715  10.507  12.829   5.511 -0.2373  0.0300  0.2476
  703POPS   PO410716  10.588  12.450   5.526 -0.2239  0.3188  0.3605
  703POPS   GL110717  10.802  12.275   5.844  0.0386 -0.1621 -0.1195
  703POPS   GL210718  10.611  12.055   6.115 -0.0632  0.0353  0.2599
  703POPS   C1A10719  10.943  12.363   6.278 -0.0342 -0.1198  0.1793
  703POPS   D2A10720  10.809  12.393   6.729 -0.0442  0.0221  0.0770
  703POPS   C3A10721  10.651  12.106   7.112 -0.0858 -0.1110  0.0702
  703POPS   C4A10722  10.766  11.786   7.365 -0.1940 -0.1069 -0.0868
  703POPS   C1B10723  10.370  12.351   6.370 -0.2444 -0.3044  0.1816
  703POPS   C2B10724  10.187  12.346   6.845  0.1519  0.0828 -0.0009
  703POPS   C3B10725  10.261  12.410   7.334  0.1833 -0.2997  0.2650
  703POPS   C4B10726  10.411  12.054   7.686 -0.1398 -0.4227 -0.0683
  704POPS   CNO10727   8.764   8.726   5.381  0.1827  0.1299 -0.0813
  704POPS   PO410728   8.982   8.343   5.239  0.2709  0.3153  0.4177
  704POPS   GL110729   9.069   8.323   5.623 -0.2602 -0.0246  0.0821
  704POPS   GL210730   9.167   7.927   5.627  0.1479 -0.0954 -0.2346
  704POPS   C1A10731   9.013   8.545   5.991 -0.3753  0.8094 -0.1438
  704POPS   D2A10732   8.583   8.595   6.223 -0.1806 -0.3112  0.0637
  704POPS   C3A10733   8.383   9.032   6.326  0.0767  0.2359  0.1722
  704POPS   C4A10734   8.388   9.341   6.649 -0.2157 -0.0564  0.1479
  704POPS   C1B10735   9.187   8.069   6.000  0.1726 -0.0745 -0.2487
  704POPS   C2B10736   8.873   8.259   6.433  0.0008 -0.1243  0.0217
  704POPS   C3B10737   8.706   8.187   6.876  0.1621  0.0943  0.1735
  704POPS   C4B10738   8.529   8.130   7.326 -0.0114 -0.1390  0.1930
  705POPS   CNO10739   8.495   0.562   5.069 -0.3962  0.0576  0.2842
  705POPS   PO410740   8.809   0.718   5.195 -0.1357  0.0046 -0.1841
  705POPS   GL110741   8.728   0.816   5.617 -0.0906 -0.0351 -0.0185
  705POPS   GL210742   8.446   0.814   5.642 -0.1053 -0.0858 -0.0602
  705POPS   C1A10743   8.960   0.966   5.842 -0.1071  0.0978 -0.4968
  705POPS   D2A10744   9.115   0.936   6.313 -0.2518 -0.1025  0.0092
  705POPS   C3A10745   9.523   1.172   6.284  0.1261  0.3366 -0.0572
  705POPS   C4A10746   9.601   1.693   6.424 -0.0442 -0.1703  0.1515
  705POPS   C1B10747   8.486   0.697   6.017 -0.2374 -0.0230 -0.3449
  705POPS   C2B10748   8.555   0.592   6.376  0.2127  0.1372 -0.1846
  705POPS   C3B10749   8.690   0.177   6.267  0.1718  0.0324 -0.1422
  705POPS   C4B10750   9.114   0.021   6.164  0.1626 -0.4570  0.1590
  706POPS   CNO10751   6.910  15.577   5.857 -0.1419 -0.3163  0.1679
  706POPS   PO410752   7.309  15.783   5.914  0.0760 -0.2848 -0.2799
  706POPS   GL110753   7.190  15.932   6.352  0.0260  0.1183  0.1204
  706POPS   GL210754   6.840  15.866   6.304 -0.3271  0.2227 -0.0631
  706POPS   C1A10755   7.200  15.896   6.774  0.0667 -0.1529 -0.1002
  706POPS   D2A10756   7.467  15.698   7.160  0.0147  0.0290 -0.0629
  706POPS   C3A10757   7.558  15.541   7.584  0.2407  0.4171  0.0934
  706POPS   C4A10758   7.223  15.693   7.944 -0.2861  0.0803 -0.2697
  706POPS   C1B10759   6.738  16.066   6.737 -0.1351  0.4687 -0.3747
  706POPS   C2B10760   6.535  16.395   6.909  0.1129  0.1244 -0.2606
  706POPS   C3B10761   6.566  16.731   7.258 -0.1939  0.0935  0.1121
  706POPS   C4B10762   6.687  17.108   7.350  0.0505  0.0425  0.1667
  707POPS   CNO10763  14.509  17.698   5.218  0.1016 -0.0863  0.2666
  707POPS   PO410764  14.099  17.733   5.483  0.3069 -0.0979 -0.1336
  707POPS   GL110765  14.032  17.504   5.807  0.1830 -0.1155 -0.1818
  707POPS   GL210766  14.366  17.401   5.923 -0.0738 -0.4098 -0.3042
  707POPS   C1A10767  13.986  17.641   6.230 -0.0335 -0.1535 -0.2064
  707POPS   D2A10768  13.975  17.687   6.667 -0.2545 -0.3220  0.0044
  707POPS   C3A10769  14.082  17.753   7.066 -0.0512  0.4322  0.3255
  707POPS   C4A10770  14.263  17.626   7.597 -0.2849  0.1187 -0.1919
  707POPS   C1B10771  14.460  17.492   6.320  0.0381 -0.4193  0.2684
  707POPS   C2B10772  14.622  17.613   6.728  0.0446  0.1443  0.0470
  707POPS   C3B10773  14.792  18.025   6.923 -0.2722  0.1844 -0.1105
  707POPS   C4B10774  15.033  18.140   7.320 -0.1108  0.1317  0.0500
  708POPS   CNO10775   1.235  10.062   5.146  0.1200  0.0995  0.2026
  708POPS   PO410776   1.122  10.156   5.424 -0.0883 -0.1225 -0.6217
  708POPS   GL110777   1.343  10.002   5.869  0.0374  0.0127  0.0410
  708POPS   GL210778   1.490   9.767   5.978 -0.0871  0.0877  0.1388
  708POPS   C1A10779   1.070  10.062   6.313  0.2965 -0.1689  0.1344
  708POPS   D2A10780   1.136  10.267   6.643 -0.0553  0.0690  0.0022
  708POPS   C3A10781   1.428  10.196   6.932  0.0489 -0.2283  0.0612
  708POPS   C4A10782   1.548  10.345   7.250  0.0594  0.2955  0.0153
  708POPS   C1B10783   1.716   9.686   6.262  0.2206  0.0828 -0.1202
  708POPS   C2B10784   1.853   9.367   6.460 -0.0817 -0.2431  0.0706
  708POPS   C3B10785   1.917   9.278   6.897 -0.1262 -0.0136  0.2282
  708POPS   C4B10786   1.588   9.331   7.185  0.2777  0.0766 -0.0983
  709POPS   CNO10787  11.497  12.724   5.432 -0.0313 -0.3230 -0.0349
  709POPS   PO410788  11.889  12.864   5.506  0.1151 -0.0512 -0.0342
  709POPS   GL110789  11.980  13.071   5.923  0.1853  0.0752  0.2083
  709POPS   GL210790  12.193  13.427   5.920 -0.3737 -0.3286  0.2995
  709POPS   C1A10791  11.788  13.034   6.335 -0.1883 -0.3634  0.2389
  709POPS   D2A10792  11.772  13.064   6.695  0.0118 -0.1178 -0.2224
  709POPS   C3A10793  11.741  13.113   7.041  0.0023  0.1739  0.3277
  709POPS   C4A10794  11.850  13.254   7.362  0.1543  0.0609 -0.4228
  709POPS   C1B10795  12.432  13.234   6.229 -0.2503 -0.4517 -0.1685
  709POPS   C2B10796  12.535  12.954   6.701 -0.0217  0.3809  0.1675
  709POPS   C3B10797  12.708  13.139   7.040  0.4586 -0.0726 -0.0016
  709POPS   C4B10798  12.541  13.329   7.488  0.1172 -0.1313 -0.3104
  710POPS   CNO10799  15.084  15.542   4.914  0.1003  0.0570 -0.1980
  710POPS   PO410800  15.344  15.364   5.278  0.2564 -0.0457  0.4004
  710POPS   GL110801  15.222  15.310   5.631  0.0091  0.0791 -0.2172
  710POPS   GL210802  15.390  15.176   5.778 -0.2082  0.1899 -0.0825
  710POPS   C1A10803  14.754  15.348   5.914  0.0074 -0.3316 -0.0439
  710POPS   D2A10804  14.565  14.896   5.996 -0.0430 -0.0759 -0.1796
  710POPS   C3A10805  14.455  14.763   6.436  0.1534 -0.0929 -0.1787
  710POPS   C4A10806  14.269  14.951   6.701 -0.0736  0.0288 -0.0756
  710POPS   C1B10807  15.254  15.303   6.149  0.2814 -0.3154 -0.1610
  710POPS   C2B10808  15.427  15.190   6.519  0.3602  0.2173  0.1878
  710POPS   C3B10809  15.411  15.292   6.963  0.3702 -0.2986  0.0700
  710POPS   C4B10810  15.639  15.695   7.103 -0.0666  0.3284 -0.0477
  711POPS   CNO10811  14.735   3.358   4.910  0.0165 -0.0895  0.1187
  711POPS   PO410812  14.949   3.582   5.213 -0.0804 -0.2208  0.0395
  711POPS   GL110813  15.141   3.457   5.629  0.0995  0.1023  0.0607
  711POPS   GL210814  15.021   3.227   5.642  0.1749  0.2775 -0.0085
  711POPS   C1A10815  15.414   3.609   6.029  0.0447  0.0449 -0.2562
  711POPS   D2A10816  15.590   3.772   6.481 -0.0422  0.3724  0.1734
  711POPS   C3A10817  15.764   4.088   6.623 -0.1376  0.0941 -0.6203
  711POPS   C4A10818  15.578   4.410   6.756  0.0443 -0.3051  0.0709
  711POPS   C1B10819  15.108   3.212   6.103  0.0839  0.1141 -0.0869
  711POPS   C2B10820  14.797   3.069   6.398  0.0635  0.0274  0.1204
  711POPS   C3B10821  14.516   2.973   6.797  0.1843 -0.0296 -0.2469
  711POPS   C4B10822  14.553   2.850   7.315 -0.2989 -0.0605  0.0732
  712POPS   CNO10823  13.828   4.071   5.453  0.2934  0.1834  0.0458
  712POPS   PO410824  14.310   4.327   5.603 -0.2364  0.4744 -0.0873
  712POPS   GL110825  14.221   4.100   5.900 -0.2035  0.0445 -0.2789
  712POPS   GL210826  14.588   3.961   5.927 -0.0328 -0.0850 -0.0426
  712POPS   C1A10827  14.167   4.089   6.365  0.2209  0.0171  0.1637
  712POPS   D2A10828  14.148   4.218   6.801  0.0854 -0.1441 -0.0501
  712POPS   C3A10829  14.225   3.863   7.135  0.0727  0.0109  0.0806
  712POPS   C4A10830  14.525   3.787   7.385 -0.1210 -0.0093 -0.0649
  712POPS   C1B10831  14.941   3.762   6.088  0.3882 -0.0318  0.1197
  712POPS   C2B10832  15.026   3.557   6.458 -0.1647  0.0773 -0.1576
  712POPS   C3B10833  15.182   3.723   6.804 -0.0626 -0.0622  0.0651
  712POPS   C4B10834  15.442   4.043   7.059 -0.0457 -0.2308  0.3781
  713POPS   CNO10835  18.962  11.994   4.600 -0.3162  0.2014 -0.2116
  713POPS   PO410836  19.185  12.167   5.035 -0.2805  0.0149  0.3115
  713POPS   GL110837  19.143  12.121   5.461  0.3053 -0.0398  0.2233
  713POPS   GL210838  18.885  12.222   5.549  0.2678  0.2315 -0.0085
  713POPS   C1A10839  19.274  12.343   5.795 -0.0006 -0.0187  0.0210
  713POPS   D2A10840  19.071  12.456   6.183 -0.4132 -0.1777  0.3200
  713POPS   C3A10841  18.973  12.240   6.504 -0.3171 -0.2383  0.0446
  713POPS   C4A10842  18.959  11.885   6.636  0.1762  0.2188 -0.0961
  713POPS   C1B10843  18.690  12.242   5.957 -0.1907  0.0446  0.2717
  713POPS   C2B10844  18.513  12.050   6.347  0.0008 -0.2418 -0.1419
  713POPS   C3B10845  18.463  11.966   6.781  0.3821  0.1677  0.2667
  713POPS   C4B10846  18.822  12.117   7.105  0.3857  0.0964  0.0772
  714POPS   CNO10847  11.182  17.590   5.529  0.0249 -0.0037  0.2517
  714POPS   PO410848  10.847  17.426   5.651  0.2332 -0.2910 -0.1708
  714POPS   GL110849  11.072  17.185   5.959 -0.1189 -0.1677  0.0795
  714POPS   GL210850  10.907  16.927   6.175  0.2660  0.1031  0.0431
  714POPS   C1A10851  11.270  17.371   6.321  0.0585 -0.0579 -0.0613
  714POPS   D2A10852  11.425  17.756   6.540 -0.1679  0.0135  0.1141
  714POPS   C3A10853  11.808  17.602   6.680  0.1890 -0.2077  0.1017
  714POPS   C4A10854  11.930  17.324   6.724 -0.0491  0.0628 -0.0898
  714POPS   C1B10855  11.035  17.024   6.571 -0.0875 -0.1477 -0.0963
  714POPS   C2B10856  11.183  17.306   6.938  0.3054 -0.0478 -0.3595
  714POPS   C3B10857  10.914  17.492   7.233 -0.1596  0.1581  0.0541
  714POPS   C4B10858  10.812  17.947   7.402  0.1038 -0.0738 -0.1556
  715POPS   CNO10859   1.505  10.588   5.248  0.2255  0.1353 -0.0909
  715POPS   PO410860   1.868  10.326   5.146 -0.3800  0.1172  0.0024
  715POPS   GL110861   1.946  10.461   5.540  0.1319  0.1526  0.0761
  715POPS   GL210862   1.870  10.775   5.612 -0.2050  0.0204 -0.0163
  715POPS   C1A10863   2.386  10.347   5.730  0.1481  0.0233 -0.4454
  715POPS   D2A10864   2.729  10.220   5.872  0.0100 -0.1393 -0.0812
  715POPS   C3A10865   2.743   9.833   6.154  0.0495  0.0618 -0.1015
  715POPS   C4A10866   2.917   9.486   6.080 -0.0426  0.1040 -0.3480
  715POPS   C1B10867   2.032  10.647   6.053 -0.1765  0.2463 -0.2869
  715POPS   C2B10868   2.106  10.837   6.420 -0.1605  0.6123 -0.5008
  715POPS   C3B10869   2.032  10.916   6.752 -0.1410 -0.0191 -0.1519
  715POPS   C4B10870   1.832  11.253   6.987 -0.2612 -0.0540 -0.1166
  716POPS   CNO10871  12.975   5.708   5.194  0.2450  0.1819  0.0730
  716POPS   PO410872  13.275   5.702   5.444 -0.2788  0.0428 -0.0385
  716POPS   GL110873  13.110   5.530   5.767  0.1497 -0.0820  0.1031
  716POPS   GL210874  13.022   5.169   5.808 -0.1036  0.1061 -0.1861
  716POPS   C1A10875  13.077   5.596   6.197 -0.3783  0.1818  0.0374
  716POPS   D2A10876  13.250   5.422   6.607 -0.2175 -0.2468  0.3342
  716POPS   C3A10877  13.265   5.471   6.998 -0.1462 -0.1139  0.2297
  716POPS   C4A10878  13.157   5.522   7.421 -0.0176  0.3630  0.1887
  716POPS   C1B10879  13.222   5.092   6.166  0.1780 -0.1818 -0.3101
  716POPS   C2B10880  13.033   4.947   6.561  0.3599  0.2745 -0.0025
  716POPS   C3B10881  13.309   4.939   6.952  0.0213  0.1182 -0.2348
  716POPS   C4B10882  13.476   5.090   7.334 -0.1987 -0.4471 -0.1814
  717POPS   CNO10883  18.371  16.209   5.040  0.1104  0.0482 -0.0932
  717POPS   PO410884  18.308  16.645   5.036  0.0614  0.0345  0.1410
  717POPS   GL110885  18.269  16.468   5.495  0.0058  0.0049 -0.1922
  717POPS   GL210886  18.073  16.248   5.478  0.2416  0.0792  0.0079
  717POPS   C1A10887  18.513  16.353   5.896 -0.0412  0.1610  0.0963
  717POPS   D2A10888  18.911  16.168   5.930  0.0886  0.0416  0.3333
  717POPS   C3A10889  18.912  16.027   6.362 -0.1899  0.1642 -0.1162
  717POPS   C4A10890  18.888  15.936   6.819  0.2864 -0.1771 -0.1366
  717POPS   C1B10891  17.980  16.511   5.945  0.0731  0.4048 -0.0225
  717POPS   C2B10892  17.796  16.738   6.246  0.6069  0.0349  0.0305
  717POPS   C3B10893  17.945  17.014   6.478 -0.1297  0.2302  0.0286
  717POPS   C4B10894  17.987  17.143   6.935  0.0736 -0.5041 -0.0532
  718POPS   CNO10895  12.015  17.902   5.990  0.0427 -0.3224  0.0843
  718POPS   PO410896  12.272  18.000   5.657 -0.2409 -0.1779  0.2087
  718POPS   GL110897  12.374  18.227   5.950  0.2958 -0.1972  0.0451
  718POPS   GL210898  12.751  18.179   5.895  0.1767 -0.0177  0.1151
  718POPS   C1A10899  12.239  18.239   6.319 -0.3023 -0.0916 -0.1006
  718POPS   D2A10900  12.034  18.455   6.666 -0.0036  0.0691 -0.1587
  718POPS   C3A10901  12.282  18.493   7.040 -0.1618  0.0339  0.0849
  718POPS   C4A10902  12.304  18.704   7.408  0.0718 -0.0335  0.1981
  718POPS   C1B10903  12.783  18.155   6.350 -0.4585  0.2458 -0.0498
  718POPS   C2B10904  12.601  18.071   6.691  0.1479 -0.0453  0.0173
  718POPS   C3B10905  12.660  18.157   7.048  0.0169  0.1986 -0.3222
  718POPS   C4B10906  12.749  18.579   7.280  0.0681 -0.1086 -0.0582
  719POPS   CNO10907   7.311  15.416   5.584  0.4202  0.2252 -0.2808
  719POPS   PO410908   6.910  15.223   5.545 -0.0125 -0.0534  0.0023
  719POPS   GL110909   6.920  15.021   6.012  0.3962  0.0425  0.1013
  719POPS   GL210910   7.298  15.266   6.125 -0.0974  0.3408 -0.0095
  719POPS   C1A10911   6.877  14.857   6.369 -0.0632  0.0961  0.0357
  719POPS   D2A10912   6.666  14.819   6.662 -0.4060  0.1705 -0.1843
  719POPS   C3A10913   6.746  14.979   7.145 -0.0198  0.2854  0.1579
  719POPS   C4A10914   6.834  15.205   7.526 -0.1015  0.0050 -0.2773
  719POPS   C1B10915   7.423  15.021   6.351 -0.0991 -0.0372  0.1963
  719POPS   C2B10916   7.298  14.865   6.817 -0.2613  0.0669  0.1829
  719POPS   C3B10917   7.075  14.571   6.951 -0.2888 -0.0204 -0.0111
  719POPS   C4B10918   6.696  14.332   6.790 -0.2989 -0.0172  0.1345
  720POPS   CNO10919   8.383  11.648   4.885 -0.2702 -0.0733  0.0405
  720POPS   PO410920   8.402  11.819   5.310 -0.5923  0.1866  0.1254
  720POPS   GL110921   8.275  11.905   5.712  0.0141  0.3891 -0.0157
  720POPS   GL210922   8.017  12.044   5.901  0.2462  0.0277 -0.0684
  720POPS   C1A10923   8.383  11.728   6.139 -0.4714  0.2183  0.1838
  720POPS   D2A10924   8.241  11.903   6.596  0.2741 -0.3288  0.3820
  720POPS   C3A10925   7.952  11.853   6.947 -0.0639 -0.1753 -0.2586
  720POPS   C4A10926   7.887  12.236   7.213 -0.2555  0.0093 -0.1218
  720POPS   C1B10927   7.719  12.196   6.223  0.0525 -0.0211 -0.1447
  720POPS   C2B10928   7.411  12.140   6.582  0.0352 -0.3502  0.2667
  720POPS   C3B10929   7.115  11.862   6.572 -0.1941  0.0635  0.0559
  720POPS   C4B10930   7.211  11.463   6.784  0.0012 -0.0313 -0.2833
  721POPS   CNO10931   1.055  14.063   4.645 -0.1825 -0.0162 -0.1765
  721POPS   PO410932   0.933  14.079   5.073  0.0966  0.0008 -0.3422
  721POPS   GL110933   0.960  14.091   5.561 -0.1595 -0.0600  0.0432
  721POPS   GL210934   1.272  14.133   5.876  0.0258  0.2934 -0.0288
  721POPS   C1A10935   0.656  13.875   5.898 -0.3515 -0.0472 -0.1859
  721POPS   D2A10936   0.686  13.838   6.288 -0.1793  0.1853 -0.0085
  721POPS   C3A10937   0.459  13.747   6.663  0.1610 -0.0176  0.0598
  721POPS   C4A10938   0.003  13.672   6.977 -0.0110 -0.1731 -0.0936
  721POPS   C1B10939   1.174  13.733   6.151 -0.0522 -0.2760  0.1918
  721POPS   C2B10940   0.880  13.408   6.274  0.2640 -0.2333 -0.3503
  721POPS   C3B10941   0.385  13.405   6.232  0.0650 -0.0429 -0.2985
  721POPS   C4B10942   0.021  13.371   6.409  0.2766 -0.0134 -0.1648
  722POPS   CNO10943  12.221   9.989   5.651 -0.0047 -0.2324  0.0489
  722POPS   PO410944  12.302   9.813   5.253  0.0413  0.0132 -0.3067
  722POPS   GL110945  12.628   9.740   5.541  0.1388 -0.1321  0.1244
  722POPS   GL210946  12.413   9.517   5.721  0.4794 -0.1153 -0.0505
  722POPS   C1A10947  12.609   9.914   5.970 -0.0325  0.0924  0.0151
  722POPS   D2A10948  12.849   9.720   6.352 -0.1968 -0.2377 -0.2534
  722POPS   C3A10949  12.620   9.720   6.671  0.2870  0.0415 -0.0871
  722POPS   C4A10950  12.513  10.086   6.860 -0.1391  0.3091  0.0123
  722POPS   C1B10951  12.271   9.588   6.114  0.1517  0.2862 -0.2018
  722POPS   C2B10952  12.101   9.770   6.605 -0.1758 -0.0506 -0.1459
  722POPS   C3B10953  11.722   9.995   6.614  0.1251 -0.0776  0.0797
  722POPS   C4B10954  11.399  10.167   6.273 -0.0513 -0.0339  0.1706
  723POPS   CNO10955   7.653  17.761   5.375 -0.1439 -0.0214 -0.2255
  723POPS   PO410956   8.026  18.140   5.381 -0.2388 -0.0780 -0.1069
  723POPS   GL110957   7.899  18.056   5.792 -0.2338  0.1218 -0.0006
  723POPS   GL210958   7.565  18.075   5.797  0.2007 -0.1312 -0.2397
  723POPS   C1A10959   7.797  18.066   6.237 -0.0762 -0.0115  0.1828
  723POPS   D2A10960   7.827  17.851   6.658  0.4012  0.3088 -0.2014
  723POPS   C3A10961   8.075  18.073   6.998  0.1402  0.5482 -0.2430
  723POPS   C4A10962   8.270  17.989   7.273 -0.3524 -0.3574 -0.1300
  723POPS   C1B10963   7.462  18.439   6.097  0.1203 -0.0887 -0.0418
  723POPS   C2B10964   7.241  18.793   6.120 -0.0316  0.1647  0.1218
  723POPS   C3B10965   7.154  18.950   6.491  0.0091  0.1444 -0.0674
  723POPS   C4B10966   7.495  19.008   6.847  0.0285 -0.2768  0.2373
  724POPS   CNO10967   4.123   5.504   5.814 -0.1847  0.0554 -0.0953
  724POPS   PO410968   4.455   5.927   5.893  0.1150 -0.2576  0.0773
  724POPS   GL110969   4.486   5.727   6.248  0.0809  0.0359 -0.0405
  724POPS   GL210970   4.838   5.634   6.387  0.2474 -0.0759  0.0035
  724POPS   C1A10971   4.377   5.590   6.617  0.0973 -0.0006 -0.0320
  724POPS   D2A10972   4.679   5.555   6.874 -0.2479  0.2071  0.0154
  724POPS   C3A10973   4.662   5.554   7.409  0.2748 -0.2117  0.2814
  724POPS   C4A10974   4.792   5.674   7.776 -0.1382 -0.1961 -0.2298
  724POPS   C1B10975   5.083   5.986   6.423 -0.1222 -0.1001  0.1755
  724POPS   C2B10976   5.376   6.158   6.725 -0.1161 -0.0228 -0.1580
  724POPS   C3B10977   5.466   6.073   7.169  0.3441 -0.2010 -0.0404
  724POPS   C4B10978   5.837   6.274   7.228 -0.0968 -0.0945 -0.0430
  725POPS   CNO10979   5.675   6.481   5.337 -0.1721  0.3069  0.0571
  725POPS   PO410980   6.045   6.739   5.434  0.2395  0.2520  0.1053
  725POPS   GL110981   5.691   6.697   5.836  0.0105  0.1360 -0.2114
  725POPS   GL210982   5.905   6.417   5.892 -0.2610 -0.0930 -0.2603
  725POPS   C1A10983   5.591   6.972   5.958 -0.2011  0.0256 -0.2415
  725POPS   D2A10984   5.405   6.969   6.400  0.3472  0.0979  0.0512
  725POPS   C3A10985   5.500   6.799   6.801 -0.1248 -0.0861 -0.0168
  725POPS   C4A10986   5.642   6.752   7.195  0.0660 -0.1038  0.0904
  725POPS   C1B10987   5.807   6.594   6.344  0.0812 -0.0555 -0.0174
  725POPS   C2B10988   5.883   6.441   6.734 -0.1434  0.0863 -0.0929
  725POPS   C3B10989   6.192   6.576   7.064  0.1121  0.0715 -0.3841
  725POPS   C4B10990   6.492   6.922   7.121  0.2340  0.1033  0.0731
  726POPS   CNO10991   2.415  13.667   4.755  0.1577 -0.0792  0.1660
  726POPS   PO410992   2.464  13.961   5.038 -0.2093 -0.0747 -0.1345
  726POPS   GL110993   2.509  14.058   5.488 -0.1598 -0.2601  0.2304
  726POPS   GL210994   2.829  13.829   5.563 -0.0264 -0.1119  0.0215
  726POPS   C1A10995   2.300  14.319   5.824 -0.0377  0.0064  0.0357
  726POPS   D2A10996   2.165  14.465   6.251 -0.3398  0.3198  0.4516
  726POPS   C3A10997   1.971  14.280   6.624  0.0253 -0.0439  0.2920
  726POPS   C4A10998   1.914  14.381   7.111 -0.2011 -0.1245 -0.0038
  726POPS   C1B10999   2.671  13.981   5.997 -0.0741  0.3800  0.0371
  726POPS   C2B11000   2.418  13.977   6.335 -0.0681 -0.1065  0.0273
  726POPS   C3B11001   2.551  13.873   6.722  0.0916 -0.0028 -0.0739
  726POPS   C4B11002   2.929  13.867   6.974  0.0466  0.1196  0.5456
  727POPS   CNO11003   1.829  17.826   4.740 -0.0261 -0.0209  0.1168
  727POPS   PO411004   1.987  17.746   5.132  0.0210 -0.1407  0.5477
  727POPS   GL111005   2.041  17.251   5.217 -0.1661 -0.0303 -0.0146
  727POPS   GL211006   1.758  17.208   5.248  0.0135  0.0684 -0.0471
  727POPS   C1A11007   2.123  17.073   5.628  0.0784  0.1065  0.2053
  727POPS   D2A11008   2.502  17.045   5.897  0.0657  0.3033 -0.2628
  727POPS   C3A11009   2.716  17.405   6.102 -0.1042  0.0169  0.4691
  727POPS   C4A11010   2.776  17.824   6.316 -0.1652  0.0369  0.3465
  727POPS   C1B11011   1.691  17.396   5.712  0.0357  0.0451  0.1391
  727POPS   C2B11012   1.849  17.665   6.028  0.2016 -0.3864  0.3721
  727POPS   C3B11013   1.789  18.110   6.103  0.0307 -0.3166  0.0788
  727POPS   C4B11014   1.431  18.278   6.196  0.4007 -0.1575 -0.2795
  728POPS   CNO11015  18.713  16.812   5.317 -0.0575  0.2121  0.0016
  728POPS   PO411016  18.885  16.391   5.381  0.1102  0.0802 -0.0370
  728POPS   GL111017  19.138  16.735   5.579 -0.1102 -0.0998 -0.0952
  728POPS   GL211018  19.325  16.626   5.902  0.0346 -0.2558  0.0422
  728POPS   C1A11019  19.259  17.098   5.804 -0.5506  0.1707  0.0482
  728POPS   D2A11020  19.176  17.243   6.208  0.0854  0.1539 -0.2515
  728POPS   C3A11021  19.524  17.231   6.492 -0.2017  0.0447 -0.4130
  728POPS   C4A11022  19.587  17.097   6.936  0.1651  0.3943  0.1546
  728POPS   C1B11023  19.289  16.695   6.301  0.0960 -0.3010 -0.2287
  728POPS   C2B11024  19.067  16.471   6.619  0.0970  0.0049 -0.0329
  728POPS   C3B11025  18.640  16.473   6.432  0.0291  0.1039  0.0071
  728POPS   C4B11026  18.160  16.436   6.492 -0.0414  0.0820 -0.1207
  729POPS   CNO11027   9.706  17.641   5.688  0.1440 -0.2828  0.5033
  729POPS   PO411028   9.822  17.694   6.099 -0.0501 -0.0580 -0.0565
  729POPS   GL111029   9.686  17.733   6.476 -0.2921  0.2317  0.1915
  729POPS   GL211030   9.495  17.518   6.406 -0.0360 -0.0111 -0.0892
  729POPS   C1A11031   9.917  17.885   6.871  0.1758  0.0531  0.1612
  729POPS   D2A11032   9.982  17.753   7.266 -0.2213 -0.0136  0.0799
  729POPS   C3A11033   9.843  17.402   7.355 -0.1726  0.0561 -0.0639
  729POPS   C4A11034   9.925  17.055   7.657 -0.3513 -0.1166  0.1613
  729POPS   C1B11035   9.201  17.427   6.648 -0.1892 -0.0698 -0.3946
  729POPS   C2B11036   8.815  17.498   6.710  0.0583  0.1735  0.1069
  729POPS   C3B11037   8.569  17.626   7.098  0.1772  0.0415 -0.0116
  729POPS   C4B11038   8.601  17.645   7.551  0.0366  0.1245 -0.2379
  730POPS   CNO11039   5.405  11.167   5.203 -0.0447  0.2595 -0.1027
  730POPS   PO411040   5.709  10.887   5.320 -0.0733 -0.2289 -0.1488
  730POPS   GL111041   5.743  11.177   5.643  0.0193 -0.0287 -0.1217
  730POPS   GL211042   6.061  11.295   5.800 -0.2460  0.4665  0.0583
  730POPS   C1A11043   5.614  11.363   6.014  0.1637 -0.1241 -0.4230
  730POPS   D2A11044   5.254  11.733   6.050 -0.0600  0.3137  0.1821
  730POPS   C3A11045   4.863  11.701   6.163 -0.3785  0.0036 -0.0061
  730POPS   C4A11046   4.630  11.807   6.582 -0.0518 -0.0858 -0.1024
  730POPS   C1B11047   6.272  11.046   6.107 -0.1175  0.2717  0.1246
  730POPS   C2B11048   6.365  11.017   6.560 -0.4376  0.3501  0.0874
  730POPS   C3B11049   6.349  10.867   7.014 -0.2636  0.1808 -0.2581
  730POPS   C4B11050   6.284  10.872   7.481 -0.0659 -0.1049  0.1436
  731POPS   CNO11051  17.352   2.315   4.787 -0.0537 -0.1176  0.0537
  731POPS   PO411052  17.045   2.764   4.996 -0.0730 -0.3044  0.1228
  731POPS   GL111053  17.402   2.821   5.124  0.2049  0.0355  0.1101
  731POPS   GL211054  17.453   2.568   5.225 -0.7166 -0.1075 -0.1124
  731POPS   C1A11055  17.583   3.176   5.395  0.0683  0.1982 -0.0358
  731POPS   D2A11056  17.804   3.621   5.449 -0.2352 -0.0136  0.1346
  731POPS   C3A11057  18.125   3.487   5.715 -0.0259 -0.1571  0.0712
  731POPS   C4A11058  18.321   3.351   5.961  0.0561 -0.2357 -0.1585
  731POPS   C1B11059  17.673   2.665   5.648  0.1756 -0.0507  0.0554
  731POPS   C2B11060  17.861   2.921   5.874 -0.1752 -0.2785 -0.0672
  731POPS   C3B11061  18.193   2.882   6.081  0.2684 -0.0100  0.2839
  731POPS   C4B11062  18.515   3.018   6.442  0.2485 -0.0772 -0.1362
  732POPS   CNO11063  14.082   5.246   5.111  0.0823  0.1865  0.1949
  732POPS   PO411064  14.017   5.702   5.293 -0.0735  0.0279 -0.0880
  732POPS   GL111065  13.706   5.708   5.746  0.1360  0.0906 -0.1536
  732POPS   GL211066  13.558   5.329   5.871  0.0451 -0.1509  0.1648
  732POPS   C1A11067  13.565   5.759   6.190  0.0055  0.0800 -0.0428
  732POPS   D2A11068  13.550   5.853   6.573 -0.3562  0.2748  0.1212
  732POPS   C3A11069  13.511   6.192   6.705 -0.0762 -0.2180 -0.0127
  732POPS   C4A11070  13.480   6.356   7.057  0.2303 -0.1096 -0.3241
  732POPS   C1B11071  13.668   5.302   6.338  0.0516  0.1429  0.0278
  732POPS   C2B11072  14.013   5.519   6.517  0.3478 -0.2232  0.0106
  732POPS   C3B11073  13.992   5.834   6.943 -0.0567  0.1611 -0.0683
  732POPS   C4B11074  13.946   6.201   7.143 -0.1301 -0.0428 -0.1906
  733POPS   CNO11075   6.104  16.499   5.756 -0.2104  0.0877  0.0789
  733POPS   PO411076   5.892  16.858   5.502  0.2306  0.3242 -0.1856
  733POPS   GL111077   6.043  16.974   5.897  0.0460 -0.3961 -0.3821
  733POPS   GL211078   6.205  17.155   5.983  0.0603 -0.1433  0.3096
  733POPS   C1A11079   6.036  16.905   6.338  0.3947 -0.1365  0.1803
  733POPS   D2A11080   6.180  17.014   6.711  0.2213  0.2024 -0.1025
  733POPS   C3A11081   6.643  17.160   6.870  0.0506 -0.2112  0.0741
  733POPS   C4A11082   6.954  17.354   6.569 -0.2120 -0.2325  0.0492
  733POPS   C1B11083   6.383  17.361   6.435 -0.2030 -0.0702  0.2581
  733POPS   C2B11084   6.601  17.691   6.685 -0.1197  0.3590 -0.1489
  733POPS   C3B11085   7.002  17.624   6.988  0.3542  0.1722 -0.0805
  733POPS   C4B11086   7.210  17.373   7.257 -0.0093  0.1237 -0.1593
  734POPS   CNO11087   5.056  12.809   5.269 -0.1519 -0.2599  0.2641
  734POPS   PO411088   5.067  12.436   5.407  0.2113  0.1364 -0.3575
  734POPS   GL111089   5.068  12.351   5.918  0.0254 -0.1004  0.0969
  734POPS   GL211090   5.489  12.234   6.007  0.1594 -0.0091 -0.2783
  734POPS   C1A11091   5.091  12.121   6.384 -0.0551 -0.3129  0.2195
  734POPS   D2A11092   5.228  11.842   6.613 -0.2225  0.0508  0.1163
  734POPS   C3A11093   5.375  11.503   6.493  0.1250  0.1623  0.2799
  734POPS   C4A11094   5.468  11.015   6.401 -0.1306 -0.1649  0.0632
  734POPS   C1B11095   5.581  11.997   6.373  0.0054  0.1067  0.1415
  734POPS   C2B11096   5.646  11.784   6.782  0.1590 -0.0869 -0.0644
  734POPS   C3B11097   5.881  11.484   7.087 -0.2440  0.3320 -0.1189
  734POPS   C4B11098   6.030  11.404   7.509 -0.0873  0.1104  0.1800
  735POPS   CNO11099   4.987   2.220   5.269  0.0048  0.0713  0.3429
  735POPS   PO411100   4.961   2.210   5.723 -0.1114 -0.1136  0.0644
  735POPS   GL111101   4.871   2.153   6.130 -0.1973 -0.1343 -0.0093
  735POPS   GL211102   4.712   2.424   6.390 -0.0229  0.2001  0.0361
  735POPS   C1A11103   5.140   2.156   6.476  0.1347  0.1796  0.2157
  735POPS   D2A11104   5.063   2.109   6.894  0.1003  0.0603 -0.2661
  735POPS   C3A11105   5.300   2.277   7.164  0.3831  0.1972 -0.0681
  735POPS   C4A11106   5.332   2.198   7.608 -0.2884  0.1193  0.1362
  735POPS   C1B11107   4.576   2.575   6.820  0.1535 -0.0356 -0.1406
  735POPS   C2B11108   4.321   2.601   7.102  0.4927 -0.3506 -0.2141
  735POPS   C3B11109   4.129   2.362   7.370  0.0421 -0.1330 -0.0629
  735POPS   C4B11110   4.242   2.217   7.577  0.3324  0.2939 -0.0345
  736POPS   CNO11111  16.496   1.080   5.452  0.0748  0.3422 -0.0584
  736POPS   PO411112  16.906   0.941   5.533  0.0715 -0.0160  0.3039
  736POPS   GL111113  16.868   1.152   5.888  0.0154 -0.0042 -0.2589
  736POPS   GL211114  16.699   1.070   6.136  0.2512 -0.0469  0.2130
  736POPS   C1A11115  16.775   1.570   6.047 -0.1037  0.2682 -0.0684
  736POPS   D2A11116  16.737   1.861   6.398  0.3498  0.0358  0.3432
  736POPS   C3A11117  16.538   1.593   6.589  0.1175 -0.1318 -0.0107
  736POPS   C4A11118  16.433   1.322   6.965  0.1410 -0.0205 -0.3370
  736POPS   C1B11119  16.836   1.206   6.481  0.2761  0.1398  0.0589
  736POPS   C2B11120  16.943   1.397   6.842  0.2599 -0.1840 -0.0315
  736POPS   C3B11121  17.235   1.605   7.038 -0.7322 -0.0320 -0.1505
  736POPS   C4B11122  17.733   1.644   7.045  0.1842  0.2067  0.3494
  737POPS   CNO11123   4.575   3.830   5.742 -0.0721 -0.1999 -0.1926
  737POPS   PO411124   4.441   4.013   6.074 -0.0519 -0.0006 -0.2473
  737POPS   GL111125   4.287   4.403   6.237  0.1545  0.2576 -0.0745
  737POPS   GL211126   4.068   4.231   6.504 -0.0202 -0.1538  0.2429
  737POPS   C1A11127   4.157   4.758   6.439 -0.1963 -0.2411  0.1041
  737POPS   D2A11128   4.254   5.134   6.715 -0.1999  0.0937  0.1604
  737POPS   C3A11129   4.291   5.068   7.104 -0.0524  0.0140 -0.1931
  737POPS   C4A11130   4.529   5.059   7.423  0.0881  0.1443 -0.0786
  737POPS   C1B11131   4.323   4.103   6.862  0.2119  0.1279  0.0216
  737POPS   C2B11132   4.418   4.004   7.347  0.0038 -0.0410  0.2004
  737POPS   C3B11133   4.242   3.619   7.650  0.0983  0.0390  0.1296
  737POPS   C4B11134   3.877   3.599   7.973 -0.1887 -0.2087  0.0014
  738POPS   CNO11135   6.472  10.070   5.658 -0.0799 -0.0408 -0.0407
  738POPS   PO411136   6.722   9.881   5.238  0.2547 -0.0006  0.1443
  738POPS   GL111137   6.771   9.670   5.620 -0.0102  0.0610 -0.1682
  738POPS   GL211138   6.985   9.792   5.725  0.3816 -0.0730 -0.0585
  738POPS   C1A11139   6.568   9.618   6.001 -0.2985  0.1053  0.3401
  738POPS   D2A11140   6.530   9.325   6.279  0.1669  0.1759 -0.1534
  738POPS   C3A11141   6.698   9.008   6.566  0.0576  0.0101  0.1724
  738POPS   C4A11142   7.025   8.731   6.524  0.0787  0.0839 -0.4408
  738POPS   C1B11143   6.871  10.087   5.973  0.0781  0.3143  0.0073
  738POPS   C2B11144   6.991  10.284   6.355 -0.5606 -0.1172 -0.0725
  738POPS   C3B11145   6.815  10.532   6.736  0.1687 -0.2433  0.1612
  738POPS   C4B11146   7.076  10.797   7.074  0.0186  0.1290 -0.0285
  739POPS   CNO11147   3.612  14.148   5.110 -0.1172  0.1509  0.0386
  739POPS   PO411148   3.879  14.264   5.464  0.1062  0.1222 -0.2409
  739POPS   GL111149   3.514  14.542   5.724 -0.0883 -0.1140 -0.0449
  739POPS   GL211150   3.527  14.765   5.908 -0.0054 -0.1388 -0.0378
  739POPS   C1A11151   3.460  14.338   6.166 -0.1735  0.2413  0.0499
  739POPS   D2A11152   3.566  14.499   6.582  0.1262  0.2061  0.2551
  739POPS   C3A11153   3.715  15.031   6.506 -0.1440 -0.2998 -0.0666
  739POPS   C4A11154   3.576  15.259   6.161 -0.1916 -0.1203  0.1050
  739POPS   C1B11155   3.280  14.854   6.222  0.2004  0.2904 -0.2616
  739POPS   C2B11156   3.269  14.886   6.643 -0.0535 -0.1934  0.1232
  739POPS   C3B11157   3.395  15.242   6.824 -0.0479  0.1094  0.0300
  739POPS   C4B11158   3.089  15.451   6.858  0.1431  0.3056 -0.0320
  740POPS   CNO11159   9.625   0.369   5.513  0.1031  0.1336 -0.0280
  740POPS   PO411160   9.185   0.304   5.311  0.0150 -0.2416 -0.1358
  740POPS   GL111161   8.975   0.358   5.693  0.1254  0.1583  0.2070
  740POPS   GL211162   8.602   0.140   5.711  0.1926 -0.0363  0.0754
  740POPS   C1A11163   8.976   0.503   6.115  0.0323  0.1811  0.0276
  740POPS   D2A11164   9.018   0.437   6.538 -0.1710  0.5012  0.0750
  740POPS   C3A11165   9.260   0.567   6.753  0.0595  0.3698  0.2182
  740POPS   C4A11166   9.649   0.561   6.860 -0.1320  0.2127  0.0693
  740POPS   C1B11167   8.297  -0.078   5.990 -0.3588 -0.2178  0.4397
  740POPS   C2B11168   8.327  -0.062   6.496 -0.2101  0.1079  0.3043
  740POPS   C3B11169   8.137   0.312   6.717  0.1567 -0.3555 -0.0143
  740POPS   C4B11170   8.137   0.548   7.128  0.5245 -0.0105  0.1987
  741POPS   CNO11171  14.408   2.767   5.243  0.1505  0.0465  0.4814
  741POPS   PO411172  14.677   3.055   5.391  0.0270 -0.2213  0.2134
  741POPS   GL111173  14.696   2.860   5.790 -0.0364  0.1271  0.2397
  741POPS   GL211174  14.634   3.059   5.915 -0.1657  0.0506 -0.0965
  741POPS   C1A11175  15.025   2.713   6.123 -0.2074 -0.2335 -0.0282
  741POPS   D2A11176  15.301   2.877   6.478 -0.1216  0.1083  0.0096
  741POPS   C3A11177  15.383   3.120   6.864 -0.0007 -0.1447 -0.2432
  741POPS   C4A11178  15.398   3.372   7.167  0.0677 -0.5258 -0.2658
  741POPS   C1B11179  14.357   3.063   6.269 -0.1761 -0.0476  0.0773
  741POPS   C2B11180  14.113   3.099   6.566  0.0586  0.1665 -0.1321
  741POPS   C3B11181  13.890   3.325   6.930  0.0576  0.0313  0.0436
  741POPS   C4B11182  13.799   3.747   6.987 -0.0974  0.3269 -0.3521
  742POPS   CNO11183  18.680   6.886   5.107  0.3266  0.2233  0.1843
  742POPS   PO411184  18.852   6.835   5.521  0.0940 -0.2448 -0.0121
  742POPS   GL111185  18.828   6.714   5.988 -0.2349 -0.0434  0.0282
  742POPS   GL211186  18.618   6.985   5.919  0.1561  0.3969  0.2161
  742POPS   C1A11187  18.538   6.546   6.257  0.3959 -0.2460  0.1222
  742POPS   D2A11188  18.478   6.647   6.702  0.3286 -0.0704  0.1231
  742POPS   C3A11189  18.610   7.122   6.803 -0.0481 -0.1895  0.2194
  742POPS   C4A11190  18.926   7.409   6.705  0.2921 -0.0937 -0.1418
  742POPS   C1B11191  18.725   7.127   6.286  0.0741  0.1331  0.2984
  742POPS   C2B11192  18.528   7.578   6.469  0.0335 -0.2418 -0.0386
  742POPS   C3B11193  18.284   7.612   6.802 -0.0543  0.3673 -0.0628
  742POPS   C4B11194  18.082   7.429   7.247  0.3214  0.1822  0.2636
  743POPS   CNO11195   3.737   1.689   5.626  0.0036 -0.0942  0.0514
  743POPS   PO411196   3.233   1.766   5.715  0.0709  0.1894 -0.2721
  743POPS   GL111197   3.056   1.664   6.180 -0.1188  0.2532 -0.1654
  743POPS   GL211198   3.341   1.770   6.332 -0.1883  0.1740 -0.1442
  743POPS   C1A11199   2.967   1.328   6.457  0.0962 -0.3882  0.2031
  743POPS   D2A11200   2.848   0.983   6.174  0.2262 -0.0129 -0.2378
  743POPS   C3A11201   2.615   0.700   6.206 -0.0954 -0.1552  0.0408
  743POPS   C4A11202   2.416   0.240   6.248 -0.2283  0.0754 -0.0422
  743POPS   C1B11203   3.346   1.799   6.793  0.0137 -0.1615  0.3192
  743POPS   C2B11204   3.343   1.933   7.292 -0.2184  0.0817  0.2153
  743POPS   C3B11205   3.341   2.085   7.711 -0.2304 -0.0008  0.0175
  743POPS   C4B11206   3.294   2.450   7.953  0.3316  0.1045 -0.3148
  744POPS   CNO11207  10.663   2.945   5.492 -0.4016  0.1899  0.0462
  744POPS   PO411208  10.876   2.577   5.508  0.4183 -0.2340 -0.2860
  744POPS   GL111209  10.765   2.666   6.003  0.2322 -0.0671  0.4564
  744POPS   GL211210  10.779   2.348   6.196  0.0342 -0.3505 -0.0267
  744POPS   C1A11211  10.679   2.729   6.466 -0.1940 -0.1184 -0.0096
  744POPS   D2A11212  10.498   2.694   6.897  0.6010 -0.0954  0.1063
  744POPS   C3A11213  10.764   2.516   7.114  0.2477  0.0330  0.0847
  744POPS   C4A11214  11.028   2.153   7.221 -0.0917 -0.1981  0.0936
  744POPS   C1B11215  10.549   2.248   6.546 -0.1865 -0.1864 -0.0221
  744POPS   C2B11216  10.504   1.955   6.848 -0.2843 -0.0333 -0.0442
  744POPS   C3B11217  10.138   1.850   7.106 -0.0553 -0.0097 -0.1472
  744POPS   C4B11218   9.901   2.023   7.314 -0.0593 -0.0307  0.0048
  745POPS   CNO11219  16.339  15.872   4.953 -0.2268  0.1437 -0.1194
  745POPS   PO411220  16.309  15.918   5.389  0.2495 -0.0086 -0.1968
  745POPS   GL111221  16.604  16.028   5.676  0.1619 -0.0888  0.1469
  745POPS   GL211222  16.965  16.070   5.824  0.4082  0.1407 -0.0188
  745POPS   C1A11223  16.672  15.765   6.047  0.0846 -0.2713  0.0002
  745POPS   D2A11224  16.704  15.517   6.457 -0.3180 -0.2836 -0.1312
  745POPS   C3A11225  16.733  15.650   6.763 -0.3436 -0.3306 -0.1439
  745POPS   C4A11226  16.547  15.577   7.228 -0.1318  0.2224 -0.0395
  745POPS   C1B11227  17.278  16.075   6.086  0.1388  0.0329  0.0630
  745POPS   C2B11228  17.619  16.255   6.347 -0.0543  0.0421  0.1141
  745POPS   C3B11229  17.747  16.480   6.669 -0.1476 -0.1484 -0.0781
  745POPS   C4B11230  18.021  16.625   6.992  0.0776 -0.1787 -0.2113
  746POPS   CNO11231  10.348   0.175   5.788 -0.2133  0.3193 -0.2027
  746POPS   PO411232  10.124   0.368   5.531  0.1781  0.3174 -0.0469
  746POPS   GL111233  10.037   0.553   5.822  0.2362  0.0492 -0.2536
  746POPS   GL211234   9.812   0.405   5.985 -0.2640  0.2457  0.2651
  746POPS   C1A11235   9.885   0.914   6.089 -0.0530 -0.2474 -0.0612
  746POPS   D2A11236   9.910   0.925   6.541  0.1941  0.0562  0.2450
  746POPS   C3A11237  10.224   0.660   6.796 -0.0327 -0.0351  0.0236
  746POPS   C4A11238  10.321   0.657   7.188 -0.2728 -0.0111  0.3158
  746POPS   C1B11239   9.605   0.094   6.192  0.0339 -0.1465 -0.1816
  746POPS   C2B11240   9.520   0.092   6.592 -0.2080 -0.1327 -0.1814
  746POPS   C3B11241   9.134   0.062   6.809  0.1786 -0.2639  0.0643
  746POPS   C4B11242   8.932   0.049   7.280 -0.2849  0.0995 -0.0783
  747POPS   CNO11243  13.839   9.948   4.824  0.4625 -0.1244 -0.0464
  747POPS   PO411244  13.582  10.015   5.133  0.2078  0.0419  0.1135
  747POPS   GL111245  13.489   9.970   5.606 -0.0193 -0.0173 -0.0552
  747POPS   GL211246  13.745   9.838   5.763  0.1888 -0.3146  0.0260
  747POPS   C1A11247  13.462  10.196   6.090 -0.1789 -0.0463  0.0831
  747POPS   D2A11248  13.564  10.328   6.547 -0.0716  0.1788 -0.0136
  747POPS   C3A11249  13.612  10.080   6.924 -0.0772 -0.1822 -0.4052
  747POPS   C4A11250  14.054   9.768   7.094 -0.4437 -0.2212  0.1016
  747POPS   C1B11251  13.591   9.616   6.107  0.0510  0.1261 -0.2636
  747POPS   C2B11252  13.342   9.858   6.426 -0.0243 -0.0085 -0.1275
  747POPS   C3B11253  13.126   9.951   6.793  0.1591 -0.0463 -0.8487
  747POPS   C4B11254  13.183  10.393   6.948  0.1989 -0.1593 -0.0952
  748POPS   CNO11255   9.403  17.293   5.895  0.1585 -0.1421  0.0495
  748POPS   PO411256   9.419  16.879   5.666 -0.0945 -0.3152  0.1233
  748POPS   GL111257   9.258  16.702   6.003  0.1322  0.0849  0.1922
  748POPS   GL211258   9.426  16.364   6.033 -0.2211 -0.4793 -0.2345
  748POPS   C1A11259   9.175  16.709   6.410 -0.0509  0.0424  0.2291
  748POPS   D2A11260   8.923  16.980   6.695  0.4142 -0.0650  0.1102
  748POPS   C3A11261   8.830  17.187   7.090 -0.0830 -0.1064 -0.1039
  748POPS   C4A11262   8.435  17.112   7.326  0.0791 -0.0894 -0.0891
  748POPS   C1B11263   9.261  16.140   6.422  0.1380 -0.0789 -0.1889
  748POPS   C2B11264   9.281  16.251   6.777  0.1081  0.1916  0.2599
  748POPS   C3B11265   9.191  16.609   6.964  0.0671 -0.4054  0.2422
  748POPS   C4B11266   9.310  17.111   7.000  0.0647  0.2212  0.1398
  749POPS   CNO11267   9.410  14.816   5.928  0.1116 -0.3961  0.4134
  749POPS   PO411268   9.773  14.661   5.764 -0.1776 -0.2219  0.0832
  749POPS   GL111269   9.776  14.495   6.096 -0.2027 -0.1982 -0.0064
  749POPS   GL211270   9.730  14.171   6.238  0.1635  0.1453 -0.1259
  749POPS   C1A11271   9.608  14.673   6.499  0.0976 -0.2301  0.0182
  749POPS   D2A11272   9.453  14.615   6.855  0.2193 -0.0967  0.3303
  749POPS   C3A11273   9.056  14.543   6.952  0.3029  0.0281  0.0562
  749POPS   C4A11274   8.988  14.139   7.135 -0.0053 -0.1166  0.0049
  749POPS   C1B11275   9.734  14.194   6.719  0.1931  0.3653  0.0423
  749POPS   C2B11276   9.486  14.235   7.146 -0.0540  0.0275 -0.0316
  749POPS   C3B11277   9.284  14.250   7.550  0.0763 -0.1982  0.4053
  749POPS   C4B11278   9.444  14.202   8.031 -0.2961  0.1438 -0.1738
  750POPS   CNO11279  17.905   7.175   5.319  0.4700  0.1329  0.1985
  750POPS   PO411280  18.012   7.031   5.790  0.0548 -0.1216  0.0397
  750POPS   GL111281  17.900   6.948   6.094 -0.3077  0.0277  0.0157
  750POPS   GL211282  18.042   6.705   6.221 -0.0376  0.0690  0.1678
  750POPS   C1A11283  17.688   6.955   6.491 -0.1742 -0.1864  0.2388
  750POPS   D2A11284  17.680   6.800   6.899  0.0797 -0.2010  0.2629
  750POPS   C3A11285  17.845   6.990   7.251 -0.1479  0.1350 -0.1227
  750POPS   C4A11286  17.979   6.889   7.697 -0.0180  0.0346 -0.1150
  750POPS   C1B11287  18.003   6.544   6.651 -0.3113  0.1234 -0.2649
  750POPS   C2B11288  17.806   6.278   7.038 -0.0789  0.1112  0.1348
  750POPS   C3B11289  17.525   6.023   7.297 -0.1669 -0.2982 -0.2486
  750POPS   C4B11290  17.599   5.660   7.583  0.1050  0.2416 -0.0357
  751POPS   CNO11291   0.041   0.568   5.103 -0.1333  0.2760 -0.0133
  751POPS   PO411292  -0.079   0.529   5.465  0.1574 -0.1777  0.3155
  751POPS   GL111293   0.094   0.617   5.862  0.1825  0.3733  0.1183
  751POPS   GL211294   0.141   0.949   6.055 -0.3019 -0.0515  0.0739
  751POPS   C1A11295  -0.027   0.556   6.301  0.2350  0.1565 -0.1326
  751POPS   D2A11296  -0.381   0.507   6.511 -0.0689 -0.4720 -0.0177
  751POPS   C3A11297  -0.479   0.593   6.950  0.0509  0.1290  0.1359
  751POPS   C4A11298  -0.384   0.585   7.412  0.1906  0.0604  0.0803
  751POPS   C1B11299   0.288   0.947   6.411 -0.0500 -0.1913  0.0198
  751POPS   C2B11300   0.618   1.012   6.772  0.5470 -0.0199  0.3786
  751POPS   C3B11301   0.826   1.192   7.181  0.0453  0.0205  0.0050
  751POPS   C4B11302   0.757   1.517   7.487 -0.0220  0.0888 -0.2563
  752YOPS   CNO11303   6.305   2.686   5.690  0.1925 -0.2539  0.0333
  752YOPS   PO411304   6.194   2.961   5.946 -0.1822 -0.5935  0.1128
  752YOPS   GL111305   6.143   3.176   6.292 -0.1209  0.4017  0.3961
  752YOPS   GL211306   6.091   2.883   6.407  0.3421  0.1183  0.1454
  752YOPS   C1A11307   6.198   3.602   6.405  0.0763  0.0251 -0.1508
  752YOPS   D2A11308   6.186   4.051   6.324  0.3461  0.1930 -0.0843
  752YOPS   C3A11309   6.076   4.423   6.628 -0.2966 -0.0826 -0.0255
  752YOPS   C4A11310   6.207   4.390   7.046 -0.2613 -0.2107  0.3224
  752YOPS   C1B11311   6.229   3.001   6.778  0.0543 -0.3301 -0.0633
  752YOPS   C2B11312   6.231   3.448   6.953 -0.0691  0.1382  0.1625
  752YOPS   D3B11313   6.530   3.619   7.253  0.0249  0.0061  0.3055
  752YOPS   C4B11314   6.954   3.472   7.495  0.4643 -0.1874 -0.1863
  753YOPS   CNO11315   8.650   6.420   5.400  0.0623  0.1809  0.1828
  753YOPS   PO411316   8.206   6.663   5.363  0.0499 -0.0544 -0.4507
  753YOPS   GL111317   8.394   6.815   5.698  0.1933  0.3208 -0.3562
  753YOPS   GL211318   8.724   6.957   5.526 -0.3236 -0.3575 -0.3328
  753YOPS   C1A11319   8.475   6.660   6.109  0.0369 -0.1448  0.1093
  753YOPS   D2A11320   8.472   6.866   6.534  0.0271 -0.2229  0.2279
  753YOPS   C3A11321   8.757   7.011   6.807 -0.2252 -0.1133  0.5369
  753YOPS   C4A11322   8.773   6.708   7.211 -0.1368  0.0676  0.0896
  753YOPS   C1B11323   8.613   7.104   6.053  0.2978 -0.1296  0.3366
  753YOPS   C2B11324   8.570   7.340   6.485  0.1395 -0.0850 -0.0807
  753YOPS   D3B11325   8.760   7.639   6.828  0.2194 -0.0560  0.3259
  753YOPS   C4B11326   8.862   7.342   7.118  0.4146 -0.3791 -0.1190
  754YOPS   CNO11327   2.912   8.319   5.399 -0.1696  0.1194  0.0713
  754YOPS   PO411328   2.491   8.163   5.481 -0.2327 -0.4099 -0.1107
  754YOPS   GL111329   2.487   7.988   5.845  0.0419  0.0935  0.1493
  754YOPS   GL211330   2.277   8.158   5.976  0.2218  0.0021 -0.1020
  754YOPS   C1A11331   2.690   7.917   6.212  0.0289  0.2581 -0.0509
  754YOPS   D2A11332   2.641   8.166   6.583  0.4429 -0.0985 -0.1215
  754YOPS   C3A11333   2.348   8.557   6.733 -0.3324  0.1380  0.1150
  754YOPS   C4A11334   2.126   8.950   6.478 -0.2069 -0.0837 -0.0772
  754YOPS   C1B11335   2.216   7.998   6.417 -0.1243  0.0819  0.1203
  754YOPS   C2B11336   2.245   7.945   6.880 -0.1948  0.3258  0.3272
  754YOPS   D3B11337   2.117   7.680   7.296  0.1370 -0.3137 -0.2101
  754YOPS   C4B11338   2.053   7.270   7.364  0.1108  0.4431 -0.2235
  755YOPS   CNO11339  14.970   6.687   4.599  0.3543 -0.3309  0.4880
  755YOPS   PO411340  15.028   6.402   4.981 -0.0380  0.1012  0.3165
  755YOPS   GL111341  15.204   6.090   5.266 -0.1551  0.0488  0.0918
  755YOPS   GL211342  15.094   5.775   5.467  0.4044  0.0318 -0.1857
  755YOPS   C1A11343  15.374   6.254   5.653  0.0450 -0.5289  0.3273
  755YOPS   D2A11344  15.320   6.607   6.011  0.2979  0.1870  0.2012
  755YOPS   C3A11345  15.292   6.716   6.435  0.2689  0.0284  0.0915
  755YOPS   C4A11346  15.380   6.770   6.896  0.1635  0.1796 -0.0621
  755YOPS   C1B11347  14.863   6.037   5.722 -0.1186  0.4719 -0.1501
  755YOPS   C2B11348  15.005   6.084   6.113 -0.1301 -0.0089 -0.4087
  755YOPS   D3B11349  15.142   6.270   6.364 -0.3140 -0.1441 -0.0425
  755YOPS   C4B11350  15.073   6.185   6.732 -0.2368  0.1178  0.0452
  756YOPS   CNO11351  15.863  11.364   4.897  0.0004 -0.1389 -0.1110
  756YOPS   PO411352  15.734  11.469   5.216  0.3188 -0.1875  0.1543
  756YOPS   GL111353  15.777  11.601   5.585 -0.2026  0.0076  0.0673
  756YOPS   GL211354  15.539  11.759   5.732  0.2350  0.1049  0.0769
  756YOPS   C1A11355  16.052  11.699   5.951 -0.0646 -0.2603 -0.1009
  756YOPS   D2A11356  16.385  11.799   6.382 -0.0521 -0.1042  0.1795
  756YOPS   C3A11357  16.536  11.484   6.636  0.0265  0.2128 -0.0702
  756YOPS   C4A11358  16.503  11.101   6.540 -0.4063  0.0276 -0.1338
  756YOPS   C1B11359  15.551  12.093   5.995  0.0293 -0.0838 -0.2597
  756YOPS   C2B11360  15.470  12.207   6.399  0.0061 -0.0532  0.0971
  756YOPS   D3B11361  15.297  12.324   6.765 -0.0089  0.1084  0.1189
  756YOPS   C4B11362  15.550  12.598   7.128  0.1360 -0.0626 -0.0328
  757YOPS   CNO11363  13.206  14.324   5.407  0.2134 -0.0423 -0.1704
  757YOPS   PO411364  12.834  14.573   5.372 -0.1110 -0.0608  0.0864
  757YOPS   GL111365  12.677  14.578   5.795  0.0114  0.1368  0.0261
  757YOPS   GL211366  12.532  14.220   5.917  0.0405  0.1652  0.1510
  757YOPS   C1A11367  12.666  14.701   6.338  0.2232 -0.2783  0.1523
  757YOPS   D2A11368  12.450  14.722   6.604  0.1405  0.0806  0.0868
  757YOPS   C3A11369  12.434  14.739   7.008  0.0479 -0.0655  0.2219
  757YOPS   C4A11370  12.299  15.134   7.006 -0.0804 -0.1686 -0.1524
  757YOPS   C1B11371  12.897  14.250   6.166 -0.2287  0.2099 -0.1123
  757YOPS   C2B11372  13.330  14.193   6.507  0.3204 -0.2986  0.1598
  757YOPS   D3B11373  13.551  14.446   6.794  0.0441  0.0794 -0.3090
  757YOPS   C4B11374  13.731  14.852   6.618 -0.3829  0.0770 -0.1047
  758YOPS   CNO11375  13.916   2.676   5.483 -0.1121  0.3688  0.3062
  758YOPS   PO411376  14.319   2.536   5.649 -0.3102  0.1524 -0.1229
  758YOPS   GL111377  14.136   2.585   6.046  0.1950  0.0051  0.0700
  758YOPS   GL211378  13.970   2.912   5.990  0.0683  0.1917  0.1788
  758YOPS   C1A11379  14.238   2.631   6.604  0.0813 -0.1094 -0.1146
  758YOPS   D2A11380  14.055   2.777   7.035  0.2930 -0.0731  0.1431
  758YOPS   C3A11381  14.119   2.466   7.319 -0.2102  0.1608 -0.1582
  758YOPS   C4A11382  14.511   2.349   7.256  0.2972 -0.0555 -0.0668
  758YOPS   C1B11383  13.799   2.789   6.362  0.0827 -0.0613 -0.0555
  758YOPS   C2B11384  13.306   2.668   6.413  0.0235  0.1240  0.0039
  758YOPS   D3B11385  13.066   2.434   6.105 -0.2752 -0.3314 -0.0182
  758YOPS   C4B11386  12.926   2.061   5.993  0.0737  0.0121 -0.0576
  759YOPS   CNO11387  15.466   5.005   5.665  0.2334 -0.2715 -0.0584
  759YOPS   PO411388  15.760   5.116   5.339  0.1987 -0.1563 -0.3606
  759YOPS   GL111389  15.867   5.392   5.673 -0.2441  0.1075  0.2865
  759YOPS   GL211390  16.231   5.270   5.700 -0.0181 -0.0833 -0.1696
  759YOPS   C1A11391  15.739   5.591   6.122 -0.1845 -0.0460  0.3243
  759YOPS   D2A11392  15.755   5.779   6.549  0.0238 -0.0055  0.0881
  759YOPS   C3A11393  15.837   5.891   6.958  0.1002  0.2393  0.1921
  759YOPS   C4A11394  15.445   5.829   7.058  0.2166 -0.1583 -0.0874
  759YOPS   C1B11395  15.927   5.058   6.101  0.1661 -0.0140 -0.4421
  759YOPS   C2B11396  15.550   5.130   6.213  0.2809  0.0339 -0.1429
  759YOPS   D3B11397  15.163   5.169   6.208  0.0298  0.1584  0.0809
  759YOPS   C4B11398  14.993   5.520   5.923  0.0944  0.0099  0.2669
  760YOPS   CNO11399   6.459   5.200   5.768  0.2672  0.0473 -0.1652
  760YOPS   PO411400   6.153   4.986   5.428  0.0552  0.2774 -0.1253
  760YOPS   GL111401   6.064   4.866   5.870 -0.2452 -0.1333  0.1604
  760YOPS   GL211402   6.176   4.659   6.139 -0.4499  0.2811 -0.0885
  760YOPS   C1A11403   6.196   5.139   6.199  0.2257  0.1717 -0.4149
  760YOPS   D2A11404   6.610   5.273   6.504 -0.1383  0.1307  0.0786
  760YOPS   C3A11405   6.971   5.603   6.564 -0.1991 -0.1368  0.2550
  760YOPS   C4A11406   7.239   5.748   7.020  0.2813  0.0159 -0.2274
  760YOPS   C1B11407   6.217   4.908   6.605 -0.2282 -0.0081 -0.0078
  760YOPS   C2B11408   6.049   4.957   7.015  0.1559 -0.2658  0.0875
  760YOPS   D3B11409   5.756   5.029   7.226 -0.0505 -0.2440 -0.1415
  760YOPS   C4B11410   5.629   5.294   7.097  0.1480  0.0393 -0.2734
  761YOPS   CNO11411  15.364  13.578   5.232  0.2660  0.0587 -0.0912
  761YOPS   PO411412  15.282  13.465   5.497 -0.1205  0.1364  0.2231
  761YOPS   GL111413  15.232  13.366   5.835 -0.0039 -0.0286 -0.2078
  761YOPS   GL211414  14.904  13.581   5.926 -0.2777  0.4282 -0.0423
  761YOPS   C1A11415  15.282  13.210   6.255  0.0346 -0.1397 -0.2681
  761YOPS   D2A11416  15.394  13.225   6.698  0.1145  0.0858 -0.0320
  761YOPS   C3A11417  15.475  13.145   7.110 -0.1171 -0.0581 -0.1564
  761YOPS   C4A11418  15.709  13.542   7.181 -0.2486  0.1451 -0.0823
  761YOPS   C1B11419  14.725  13.281   6.179  0.0086  0.2115 -0.1792
  761YOPS   C2B11420  14.783  13.038   6.567  0.0694 -0.1340  0.0943
  761YOPS   D3B11421  14.756  12.687   6.919  0.3316 -0.2041 -0.0349
  761YOPS   C4B11422  14.458  12.671   7.233  0.0905 -0.0006 -0.1352
  762YOPS   CNO11423   7.833   1.112   5.416  0.0173  0.1141 -0.0417
  762YOPS   PO411424   7.865   1.080   5.847 -0.1102  0.0363 -0.2253
  762YOPS   GL111425   7.977   0.743   6.290 -0.3427  0.0464  0.1710
  762YOPS   GL211426   8.057   0.368   6.162 -0.2608  0.0772  0.0588
  762YOPS   C1A11427   8.132   0.818   6.697  0.0369 -0.3388  0.2716
  762YOPS   D2A11428   8.342   1.186   6.965  0.0520  0.0064  0.3253
  762YOPS   C3A11429   8.341   1.406   7.383  0.3885  0.0387 -0.0997
  762YOPS   C4A11430   8.486   1.572   7.762  0.1250 -0.4221 -0.0438
  762YOPS   C1B11431   7.672   0.250   6.358  0.4462  0.0477 -0.2142
  762YOPS   C2B11432   7.302   0.335   6.588 -0.0800 -0.1932 -0.2524
  762YOPS   D3B11433   7.108   0.613   6.989  0.1717  0.2553 -0.0604
  762YOPS   C4B11434   7.279   0.934   7.272  0.0917 -0.0037 -0.0109
  763YOPS   CNO11435   0.382  11.248   4.862  0.2799  0.1536 -0.2509
  763YOPS   PO411436   0.621  11.424   5.278  0.0287 -0.2380 -0.3063
  763YOPS   GL111437   0.553  11.508   5.641  0.0791 -0.0223  0.0954
  763YOPS   GL211438   0.989  11.411   5.731  0.0859 -0.1963  0.0023
  763YOPS   C1A11439   0.564  11.879   5.897 -0.2962 -0.2129 -0.1471
  763YOPS   D2A11440   0.604  12.345   6.117 -0.2580  0.0248 -0.1062
  763YOPS   C3A11441   0.352  12.516   6.497 -0.1800  0.1889 -0.0616
  763YOPS   C4A11442   0.226  12.195   6.882 -0.1991  0.0981  0.1587
  763YOPS   C1B11443   1.316  11.450   6.166  0.2453 -0.0511  0.0690
  763YOPS   C2B11444   1.182  11.670   6.530  0.3621  0.1358  0.5458
  763YOPS   D3B11445   0.815  11.840   6.841 -0.2670 -0.1833  0.0611
  763YOPS   C4B11446   0.470  11.728   6.915  0.2326  0.0672 -0.0499
  764YOPS   CNO11447  10.930  16.275   5.961 -0.2461  0.2025 -0.1605
  764YOPS   PO411448  10.853  16.084   5.622  0.1423  0.0927 -0.3449
  764YOPS   GL111449  10.631  15.722   5.805  0.2790  0.0244  0.2377
  764YOPS   GL211450  10.374  15.954   5.982 -0.2178 -0.1629 -0.6145
  764YOPS   C1A11451  10.758  15.616   6.308  0.0897 -0.0409 -0.2505
  764YOPS   D2A11452  10.511  15.296   6.433 -0.1937 -0.0096 -0.1371
  764YOPS   C3A11453  10.059  15.187   6.573  0.0931  0.4103  0.0832
  764YOPS   C4A11454  10.010  15.551   6.814 -0.0774  0.1467 -0.0385
  764YOPS   C1B11455  10.629  16.079   6.290 -0.3021  0.0637  0.1006
  764YOPS   C2B11456  11.036  16.005   6.437 -0.1229  0.1760 -0.1835
  764YOPS   D3B11457  11.404  16.153   6.627  0.1313 -0.0844 -0.0316
  764YOPS   C4B11458  11.359  16.206   7.040 -0.0235 -0.3863 -0.0731
  765YOPS   CNO11459  11.640   3.443   5.464 -0.1307  0.0525 -0.2106
  765YOPS   PO411460  11.585   3.006   5.578 -0.0141  0.1404 -0.1562
  765YOPS   GL111461  11.595   3.183   5.876  0.0025 -0.1355  0.0243
  765YOPS   GL211462  11.307   3.286   6.049 -0.2023 -0.0495  0.0105
  765YOPS   C1A11463  11.865   3.024   6.191 -0.2311 -0.0690 -0.0587
  765YOPS   D2A11464  11.745   2.675   6.466  0.0117  0.2376  0.1503
  765YOPS   C3A11465  11.449   2.373   6.740  0.1038 -0.1635 -0.2053
  765YOPS   C4A11466  10.995   2.263   6.746 -0.4225  0.2626 -0.0002
  765YOPS   C1B11467  11.491   3.193   6.447 -0.0728  0.1202 -0.1056
  765YOPS   C2B11468  11.785   3.033   6.864 -0.0055 -0.2100 -0.1374
  765YOPS   D3B11469  11.820   2.740   7.239  0.2409  0.1528 -0.2639
  765YOPS   C4B11470  11.504   2.435   7.275  0.3304  0.1762  0.2520
  766YOPS   CNO11471  13.950   0.173   5.139 -0.2832 -0.0569 -0.0899
  766YOPS   PO411472  14.211  -0.186   4.956 -0.0442 -0.0862  0.0753
  766YOPS   GL111473  14.215  -0.113   5.412  0.0984 -0.2339 -0.4078
  766YOPS   GL211474  14.298  -0.254   5.727  0.0290 -0.2058  0.3785
  766YOPS   C1A11475  14.358   0.268   5.559  0.2352  0.0444 -0.0750
  766YOPS   D2A11476  14.115   0.564   5.472  0.2241  0.2473 -0.3270
  766YOPS   C3A11477  14.226   0.870   5.641 -0.2069  0.3463 -0.0811
  766YOPS   C4A11478  14.679   1.043   5.555 -0.1583  0.0206 -0.2650
  766YOPS   C1B11479  14.036  -0.533   6.013 -0.0726 -0.0207 -0.0141
  766YOPS   C2B11480  13.992  -0.524   6.423 -0.2023 -0.1013  0.1905
  766YOPS   D3B11481  14.096  -0.426   6.772  0.3171  0.0415  0.2599
  766YOPS   C4B11482  13.808  -0.280   7.026  0.3175 -0.0354 -0.1116
  767YOPS   CNO11483   1.440  13.999   4.957  0.1531 -0.2971 -0.2728
  767YOPS   PO411484   1.651  13.609   5.193 -0.3320  0.0631 -0.0752
  767YOPS   GL111485   1.478  13.702   5.642  0.0451  0.0806  0.4132
  767YOPS   GL211486   1.707  13.799   5.902 -0.0825  0.0951  0.2200
  767YOPS   C1A11487   1.088  13.462   5.731 -0.0089 -0.2092  0.0288
  767YOPS   D2A11488   0.988  13.063   5.858 -0.1660  0.1195 -0.2796
  767YOPS   C3A11489   1.115  12.927   6.292 -0.0444  0.0790 -0.1303
  767YOPS   C4A11490   1.092  12.539   6.352 -0.0690 -0.2410 -0.0677
  767YOPS   C1B11491   1.906  13.879   6.215  0.1018  0.4880  0.3365
  767YOPS   C2B11492   1.917  13.790   6.673  0.1105 -0.1060 -0.1523
  767YOPS   D3B11493   2.223  14.007   6.998 -0.1858 -0.1864  0.0931
  767YOPS   C4B11494   2.074  14.030   7.442 -0.0972  0.2474  0.6099
  768YOPS   CNO11495   5.235  13.659   5.589  0.1056  0.3387  0.0883
  768YOPS   PO411496   5.349  13.295   5.317 -0.1427  0.0288 -0.0179
  768YOPS   GL111497   5.403  12.965   5.720  0.1624 -0.4311  0.0192
  768YOPS   GL211498   5.113  12.851   5.817  0.0479 -0.0630 -0.0519
  768YOPS   C1A11499   5.477  12.740   6.139 -0.0628 -0.5904  0.0833
  768YOPS   D2A11500   5.445  12.528   6.393 -0.2368  0.2510 -0.0563
  768YOPS   C3A11501   5.479  12.333   6.739 -0.1006 -0.3695 -0.1488
  768YOPS   C4A11502   5.647  12.223   7.123 -0.2332 -0.0359 -0.1322
  768YOPS   C1B11503   4.926  12.709   6.227  0.1327  0.0068 -0.0535
  768YOPS   C2B11504   5.011  12.528   6.675  0.0705  0.1133 -0.0325
  768YOPS   D3B11505   4.995  12.091   6.916  0.0344 -0.0772 -0.2143
  768YOPS   C4B11506   5.223  11.983   7.235  0.1042 -0.0992  0.2138
  769YOPS   CNO11507  13.551   8.292   5.229  0.3349 -0.0905 -0.1121
  769YOPS   PO411508  13.106   8.196   5.224 -0.1484  0.1368  0.2391
  769YOPS   GL111509  13.167   8.287   5.700  0.0328 -0.1182  0.2945
  769YOPS   GL211510  13.403   8.046   5.645  0.0708 -0.0907 -0.0145
  769YOPS   C1A11511  13.142   8.370   6.196 -0.1791  0.0619  0.2871
  769YOPS   D2A11512  13.228   8.636   6.564 -0.0614 -0.0422  0.0246
  769YOPS   C3A11513  13.236   8.562   6.961 -0.2668 -0.5110  0.1590
  769YOPS   C4A11514  12.840   8.386   7.182 -0.1067  0.3034 -0.1628
  769YOPS   C1B11515  13.316   7.836   6.032 -0.0129 -0.2217 -0.2363
  769YOPS   C2B11516  12.989   7.628   6.199 -0.2488 -0.1846 -0.1824
  769YOPS   D3B11517  12.777   7.588   6.443  0.0287 -0.1884  0.0818
  769YOPS   C4B11518  12.682   7.745   6.893 -0.2377 -0.0658  0.1818
  770YOPS   CNO11519   8.229  10.515   5.117  0.0107 -0.2466 -0.3873
  770YOPS   PO411520   8.486  10.560   5.470 -0.1658 -0.1066 -0.0120
  770YOPS   GL111521   8.632  10.519   5.849 -0.1382  0.3984 -0.1312
  770YOPS   GL211522   8.618  10.698   6.108 -0.2439 -0.0910 -0.1256
  770YOPS   C1A11523   8.831  10.229   6.194  0.2148  0.0617 -0.0602
  770YOPS   D2A11524   9.030  10.140   6.604 -0.0298  0.2479  0.2247
  770YOPS   C3A11525   9.064  10.423   6.984  0.1261  0.0403  0.2874
  770YOPS   C4A11526   9.279  10.780   7.026 -0.0492  0.1964  0.0683
  770YOPS   C1B11527   8.781  10.627   6.464 -0.1724 -0.1146 -0.2013
  770YOPS   C2B11528   8.558  10.348   6.782 -0.1832 -0.2190  0.1982
  770YOPS   D3B11529   8.268  10.054   6.949  0.1435  0.2252  0.1115
  770YOPS   C4B11530   8.371   9.960   7.367  0.0452  0.0219  0.4719
  771YOPS   CNO11531   9.790  12.054   5.608  0.0086  0.0030  0.8556
  771YOPS   PO411532   9.844  12.513   5.615 -0.0857  0.3009 -0.1752
  771YOPS   GL111533   9.727  12.448   5.938  0.1288  0.2535 -0.3148
  771YOPS   GL211534   9.938  12.166   6.073 -0.0097 -0.1169 -0.0650
  771YOPS   C1A11535   9.695  12.509   6.401  0.1299  0.0879  0.1488
  771YOPS   D2A11536   9.564  12.644   6.833  0.0522 -0.1231  0.3182
  771YOPS   C3A11537   9.543  12.944   7.128  0.3347  0.0257  0.3517
  771YOPS   C4A11538   9.619  13.325   6.891 -0.1026  0.2591 -0.1520
  771YOPS   C1B11539  10.011  12.003   6.436 -0.0026  0.0700 -0.0971
  771YOPS   C2B11540   9.791  12.049   6.910  0.0861  0.0578 -0.0591
  771YOPS   D3B11541   9.591  12.390   7.279 -0.1688 -0.0219  0.2507
  771YOPS   C4B11542   9.725  12.428   7.766  0.2778 -0.0191 -0.2704
  772YOPS   CNO11543   3.501   0.408   5.754  0.0085 -0.0369  0.1833
  772YOPS   PO411544   3.452   0.869   5.853 -0.0312 -0.1433  0.0678
  772YOPS   GL111545   3.280   0.848   6.193  0.0451 -0.2540 -0.3230
  772YOPS   GL211546   3.387   1.111   6.503  0.0136  0.3391  0.4431
  772YOPS   C1A11547   3.021   0.720   6.541  0.0268  0.3964  0.1810
  772YOPS   D2A11548   2.612   0.469   6.696 -0.0412  0.2189 -0.0288
  772YOPS   C3A11549   2.236   0.348   6.897 -0.1797 -0.2199 -0.2482
  772YOPS   C4A11550   2.211  -0.044   7.222  0.3715  0.0969  0.0747
  772YOPS   C1B11551   3.565   1.007   6.822  0.0157 -0.0997 -0.4192
  772YOPS   C2B11552   3.462   0.977   7.345 -0.3206  0.1924 -0.0610
  772YOPS   D3B11553   3.239   0.625   7.635  0.0110 -0.1394 -0.0365
  772YOPS   C4B11554   3.357   0.389   8.003  0.1788 -0.1132  0.0558
  773YOPS   CNO11555   2.814   4.612   5.926  0.1089  0.0415  0.0740
  773YOPS   PO411556   2.403   4.856   5.830  0.3458 -0.3276  0.1510
  773YOPS   GL111557   2.336   4.754   6.241  0.1903  0.1817  0.2110
  773YOPS   GL211558   2.155   4.485   6.187  0.1845  0.3194 -0.1505
  773YOPS   C1A11559   2.377   4.850   6.659 -0.3412 -0.0631 -0.0276
  773YOPS   D2A11560   2.310   4.627   6.958 -0.0066  0.2824 -0.1568
  773YOPS   C3A11561   2.128   4.313   7.030 -0.1602 -0.2289 -0.3861
  773YOPS   C4A11562   2.072   4.029   7.238 -0.1903  0.0883  0.0862
  773YOPS   C1B11563   1.966   4.639   6.579  0.1974 -0.2258  0.2244
  773YOPS   C2B11564   1.849   4.763   7.020  0.1294  0.0223  0.2070
  773YOPS   D3B11565   2.120   4.703   7.440  0.1486  0.0867  0.1758
  773YOPS   C4B11566   2.209   4.224   7.669 -0.3258  0.0307 -0.0741
  774YOPS   CNO11567   2.935   2.051   5.397  0.0265 -0.1264  0.0073
  774YOPS   PO411568   2.615   2.031   5.711 -0.2437  0.1850 -0.1594
  774YOPS   GL111569   2.612   2.028   6.159 -0.0755 -0.1868  0.4433
  774YOPS   GL211570   2.546   2.300   6.278  0.3277 -0.2640  0.0113
  774YOPS   C1A11571   2.709   1.708   6.559  0.1995  0.0481 -0.2269
  774YOPS   D2A11572   2.899   1.529   6.942 -0.1257 -0.1388 -0.1447
  774YOPS   C3A11573   3.106   1.458   7.308  0.0986  0.1650 -0.0802
  774YOPS   C4A11574   3.478   1.458   7.099 -0.2100 -0.1572 -0.2097
  774YOPS   C1B11575   2.459   2.098   6.679  0.0639 -0.3399  0.2043
  774YOPS   C2B11576   2.526   1.944   7.023  0.2997 -0.1947 -0.0121
  774YOPS   D3B11577   2.510   1.579   7.325  0.0513 -0.1787  0.0182
  774YOPS   C4B11578   2.783   1.631   7.683  0.2485 -0.0187  0.1667
  775YOPS   CNO11579  13.093  16.114   5.516 -0.1564 -0.1543  0.1785
  775YOPS   PO411580  13.092  16.558   5.525  0.0655  0.1688  0.1180
  775YOPS   GL111581  13.203  16.856   5.847 -0.0372  0.3516 -0.3849
  775YOPS   GL211582  13.491  16.713   5.803 -0.0099 -0.1731  0.2323
  775YOPS   C1A11583  13.106  16.935   6.323  0.2182 -0.0191  0.0194
  775YOPS   D2A11584  13.348  16.851   6.627  0.1031 -0.3250  0.1950
  775YOPS   C3A11585  13.553  16.810   6.997  0.1038  0.1619  0.1655
  775YOPS   C4A11586  13.969  16.891   7.200  0.0855  0.4289 -0.2922
  775YOPS   C1B11587  13.547  16.699   6.160  0.0811 -0.1465  0.1877
  775YOPS   C2B11588  13.818  16.753   6.482  0.0298 -0.1732 -0.1860
  775YOPS   D3B11589  14.091  16.586   6.778 -0.0734 -0.0603  0.0741
  775YOPS   C4B11590  14.444  16.793   6.919 -0.3788 -0.0554 -0.0424
  776YOPS   CNO11591   8.839  16.161   5.227  0.2214 -0.2447  0.2065
  776YOPS   PO411592   8.722  16.066   5.573  0.0838  0.1959 -0.1762
  776YOPS   GL111593   8.733  15.796   5.963 -0.1233 -0.0900 -0.1951
  776YOPS   GL211594   8.946  15.576   5.946  0.1719  0.0179 -0.1267
  776YOPS   C1A11595   8.564  15.926   6.362  0.0396  0.0210  0.0648
  776YOPS   D2A11596   8.510  16.036   6.780  0.1871  0.0027 -0.0197
  776YOPS   C3A11597   8.468  16.017   7.194  0.1808 -0.0138 -0.2286
  776YOPS   C4A11598   8.803  16.079   7.610  0.2141 -0.3433  0.1357
  776YOPS   C1B11599   9.262  15.660   6.293 -0.0161  0.0787 -0.1965
  776YOPS   C2B11600   9.483  15.332   6.614 -0.0828 -0.1191  0.1079
  776YOPS   D3B11601   9.632  15.068   6.833  0.1348 -0.1381  0.1167
  776YOPS   C4B11602   9.982  15.091   7.121  0.1890  0.0431 -0.1044
  777YOPS   CNO11603   7.220   0.305   5.414 -0.2552  0.0283 -0.0086
  777YOPS   PO411604   7.664   0.024   5.416 -0.0490  0.0467  0.0166
  777YOPS   GL111605   7.785  -0.045   5.877  0.1310 -0.2813 -0.1408
  777YOPS   GL211606   7.685   0.245   5.848  0.1329 -0.1235  0.2137
  777YOPS   C1A11607   7.721  -0.291   6.332  0.1849  0.3108  0.2223
  777YOPS   D2A11608   7.418  -0.549   6.641  0.1595  0.0693 -0.0290
  777YOPS   C3A11609   7.530  -0.899   6.934  0.0997  0.0170 -0.0432
  777YOPS   C4A11610   7.468  -1.363   6.976 -0.1371  0.3171  0.1626
  777YOPS   C1B11611   7.320   0.208   5.970 -0.0882 -0.0734  0.1134
  777YOPS   C2B11612   7.017   0.176   6.151 -0.0777 -0.1026  0.1119
  777YOPS   D3B11613   6.691  -0.114   6.235 -0.1553  0.1085  0.1366
  777YOPS   C4B11614   6.318  -0.087   6.463 -0.1397  0.1706 -0.0230
  778YOPS   CNO11615   7.857   2.891   5.352  0.2066  0.1017 -0.1077
  778YOPS   PO411616   7.417   2.997   5.539  0.1090  0.1497 -0.0361
  778YOPS   GL111617   7.464   2.936   6.017  0.2943 -0.1207 -0.0919
  778YOPS   GL211618   7.101   3.054   6.282 -0.3745  0.2235  0.0753
  778YOPS   C1A11619   7.614   3.068   6.411  0.2466 -0.0561 -0.1772
  778YOPS   D2A11620   7.761   2.729   6.781  0.4047  0.0451  0.1088
  778YOPS   C3A11621   7.508   2.405   7.127 -0.0780 -0.2252 -0.2736
  778YOPS   C4A11622   7.261   1.964   6.965 -0.1737  0.1995 -0.1840
  778YOPS   C1B11623   7.221   2.882   6.641  0.0367 -0.1736  0.1027
  778YOPS   C2B11624   7.249   2.920   7.011 -0.3778  0.1085  0.0254
  778YOPS   D3B11625   7.464   2.914   7.402  0.1004 -0.0531 -0.0156
  778YOPS   C4B11626   7.705   2.693   7.523  0.0120  0.0113  0.1252
  779YOPS   CNO11627   1.980   8.348   5.456 -0.1747  0.1347 -0.1613
  779YOPS   PO411628   1.589   8.457   5.586  0.0113 -0.1961 -0.1072
  779YOPS   GL111629   1.146   8.487   5.743  0.2262  0.2522 -0.1311
  779YOPS   GL211630   1.078   8.143   5.813  0.0974 -0.5236  0.1599
  779YOPS   C1A11631   0.928   8.444   6.127 -0.0629 -0.0037  0.1682
  779YOPS   D2A11632   0.764   8.435   6.606  0.1178 -0.1427 -0.0651
  779YOPS   C3A11633   0.398   8.238   6.833 -0.2137  0.2767  0.3201
  779YOPS   C4A11634   0.361   8.409   7.209  0.1643  0.4115 -0.0872
  779YOPS   C1B11635   1.339   8.182   6.204  0.1525 -0.0598 -0.0253
  779YOPS   C2B11636   1.638   8.023   6.579 -0.0002  0.1719  0.2258
  779YOPS   D3B11637   1.792   8.049   7.025  0.2979 -0.1005  0.1266
  779YOPS   C4B11638   2.015   8.407   7.269 -0.3188  0.0560  0.0705
  780YOPS   CNO11639   3.389   4.245   6.382 -0.0957  0.1403 -0.2110
  780YOPS   PO411640   3.431   3.856   6.132 -0.0025  0.3270  0.3068
  780YOPS   GL111641   3.715   3.844   6.451  0.0872 -0.1447 -0.0059
  780YOPS   GL211642   3.483   3.650   6.655 -0.2419 -0.2860 -0.0681
  780YOPS   C1A11643   3.682   4.068   6.807  0.1222  0.0063  0.2226
  780YOPS   D2A11644   3.879   4.079   7.163 -0.1076  0.0827 -0.3402
  780YOPS   C3A11645   3.955   4.375   7.617  0.0591 -0.1518  0.0155
  780YOPS   C4A11646   3.535   4.504   7.928 -0.0643 -0.2973  0.1614
  780YOPS   C1B11647   3.647   3.600   7.057  0.2249 -0.1781 -0.1489
  780YOPS   C2B11648   3.760   3.742   7.493 -0.0058 -0.2190  0.2635
  780YOPS   D3B11649   3.569   4.059   7.705 -0.0275 -0.1710 -0.1956
  780YOPS   C4B11650   3.097   4.172   7.794 -0.0030  0.0989 -0.4861
  781YOPS   CNO11651   7.484  11.310   4.883 -0.1227  0.0474  0.0018
  781YOPS   PO411652   7.499  11.232   5.288  0.0436  0.3142  0.1806
  781YOPS   GL111653   7.748  11.401   5.648 -0.1076  0.0983  0.0814
  781YOPS   GL211654   7.538  11.274   5.809  0.1060  0.1418  0.2139
  781YOPS   C1A11655   7.976  11.500   6.057 -0.1226  0.0125 -0.0397
  781YOPS   D2A11656   8.061  11.423   6.513  0.0179  0.2580  0.1660
  781YOPS   C3A11657   7.871  11.147   6.807  0.0118  0.0726 -0.3162
  781YOPS   C4A11658   8.038  11.033   7.201 -0.0930 -0.0627 -0.1985
  781YOPS   C1B11659   7.171  11.380   5.988 -0.2085 -0.4136 -0.3859
  781YOPS   C2B11660   6.863  11.366   6.387  0.1354  0.1095  0.1360
  781YOPS   D3B11661   6.402  11.532   6.397 -0.2976 -0.0249  0.0016
  781YOPS   C4B11662   6.104  11.504   6.264  0.2256 -0.2583  0.1960
  782POPE   NH311663   7.210  17.172   5.845  0.1880  0.0864  0.2528
  782POPE   PO411664   7.109  16.712   5.745 -0.0652 -0.0739 -0.0323
  782POPE   GL111665   7.091  16.670   6.133 -0.0011 -0.0179  0.1281
  782POPE   GL211666   7.261  16.932   6.293 -0.1919  0.1045  0.1148
  782POPE   C1A11667   7.163  16.430   6.533  0.0478  0.1225  0.0609
  782POPE   D2A11668   7.105  16.336   7.002  0.1484  0.1924  0.2094
  782POPE   C3A11669   7.247  16.579   7.316  0.3727 -0.0553 -0.0285
  782POPE   C4A11670   7.592  16.767   7.397  0.0140 -0.1134 -0.0686
  782POPE   C1B11671   7.618  16.712   6.447 -0.1619  0.3671  0.2735
  782POPE   C2B11672   7.896  16.507   6.679  0.0976  0.0574 -0.1958
  782POPE   C3B11673   8.045  16.101   6.758  0.1844 -0.1189 -0.1036
  782POPE   C4B11674   7.741  15.738   6.741 -0.3539  0.0396  0.1716
  783POPE   NH311675  10.150   1.319   5.292  0.0006 -0.3056  0.5686
  783POPE   PO411676  10.185   1.736   5.325  0.2963 -0.0079  0.0072
  783POPE   GL111677  10.370   1.756   5.712  0.0793  0.1523  0.1815
  783POPE   GL211678  10.286   2.046   5.881 -0.2691  0.0521  0.0382
  783POPE   C1A11679  10.610   1.641   5.962  0.3599  0.5475 -0.4414
  783POPE   D2A11680  10.441   1.830   6.407 -0.0303 -0.0966  0.3719
  783POPE   C3A11681  10.083   1.673   6.610 -0.1039 -0.3112 -0.0326
  783POPE   C4A11682   9.662   1.344   6.767 -0.1603  0.0091  0.0857
  783POPE   C1B11683  10.041   2.100   6.267 -0.0087 -0.2573 -0.0493
  783POPE   C2B11684   9.898   2.176   6.644 -0.2531  0.2567  0.1521
  783POPE   C3B11685   9.637   1.931   6.856  0.3592 -0.0915 -0.0723
  783POPE   C4B11686   9.397   1.615   7.090  0.1494 -0.1850 -0.1963
  784POPE   NH311687  18.834   6.205   5.686  0.1540  0.2174  0.1483
  784POPE   PO411688  18.389   6.114   5.760  0.1353  0.2179  0.1433
  784POPE   GL111689  18.242   6.121   6.194  0.0447 -0.2188 -0.3876
  784POPE   GL211690  18.334   5.835   6.301 -0.3351  0.0125  0.0647
  784POPE   C1A11691  18.223   6.083   6.689 -0.1066 -0.0186  0.2028
  784POPE   D2A11692  18.331   6.118   7.144 -0.2340  0.0342  0.0618
  784POPE   C3A11693  18.438   5.664   7.391  0.1633  0.2489 -0.1850
  784POPE   C4A11694  18.608   5.366   7.367  0.1799 -0.0055  0.0566
  784POPE   C1B11695  18.699   5.635   6.465  0.1732  0.2320  0.1580
  784POPE   C2B11696  19.127   5.510   6.576  0.0238 -0.3668  0.0380
  784POPE   C3B11697  19.220   5.352   7.014  0.2290 -0.2241  0.2169
  784POPE   C4B11698  18.954   4.990   7.275 -0.3197  0.0155  0.1863
  785POPE   NH311699   3.894   8.953   5.196  0.0557 -0.2860 -0.3820
  785POPE   PO411700   4.283   8.783   5.340 -0.1303 -0.0527  0.1235
  785POPE   GL111701   4.142   9.100   5.580  0.1187  0.0830 -0.3131
  785POPE   GL211702   4.386   9.290   5.519 -0.0719 -0.0923 -0.0573
  785POPE   C1A11703   3.731   9.270   5.742  0.0844  0.3478  0.0220
  785POPE   D2A11704   3.603   9.533   6.022 -0.2929 -0.0133  0.3287
  785POPE   C3A11705   3.331   9.463   6.400  0.1265 -0.1560  0.0849
  785POPE   C4A11706   2.993   9.604   6.626 -0.0308  0.2239 -0.0401
  785POPE   C1B11707   4.111   9.630   5.735  0.3743 -0.0932  0.0626
  785POPE   C2B11708   3.935   9.871   6.118  0.1833 -0.1387 -0.0853
  785POPE   C3B11709   3.922   9.870   6.509 -0.3189  0.1476 -0.0047
  785POPE   C4B11710   4.049   9.909   6.947 -0.0631 -0.2986  0.2290
  786POPE   NH311711   9.367   2.638   5.505  0.1105  0.2139 -0.0329
  786POPE   PO411712   9.043   2.407   5.503  0.1201  0.1985  0.0333
  786POPE   GL111713   8.839   2.502   5.881 -0.1344  0.3516  0.2680
  786POPE   GL211714   8.671   2.695   5.728  0.1042 -0.0236 -0.0731
  786POPE   C1A11715   8.852   2.616   6.340  0.0554 -0.0352 -0.3574
  786POPE   D2A11716   9.152   2.805   6.649  0.3178 -0.0901  0.1071
  786POPE   C3A11717   9.051   2.978   7.013  0.0547  0.0173  0.2600
  786POPE   C4A11718   8.745   3.087   7.263 -0.0915  0.2079  0.3157
  786POPE   C1B11719   8.452   2.860   6.072 -0.2530  0.0880  0.0250
  786POPE   C2B11720   8.676   3.069   6.376  0.2066  0.1695 -0.0338
  786POPE   C3B11721   8.570   3.355   6.629 -0.2841 -0.0071  0.0654
  786POPE   C4B11722   8.368   3.422   7.032  0.0444  0.0004  0.2126
  787POPE   NH311723   6.010  17.388   5.591 -0.1244 -0.0903  0.0130
  787POPE   PO411724   6.316  17.738   5.442 -0.1375 -0.0883  0.0031
  787POPE   GL111725   6.304  17.704   5.888 -0.0206  0.2104 -0.1446
  787POPE   GL211726   6.024  17.782   5.997  0.0532 -0.3939 -0.1761
  787POPE   C1A11727   6.494  17.869   6.199 -0.0409 -0.1372  0.0989
  787POPE   D2A11728   6.566  18.166   6.492  0.1752 -0.0739  0.4253
  787POPE   C3A11729   6.487  18.440   6.252  0.0041 -0.1439  0.0094
  787POPE   C4A11730   6.158  18.285   6.038 -0.0076  0.3350 -0.0358
  787POPE   C1B11731   6.123  17.798   6.505  0.0402  0.3308 -0.0895
  787POPE   C2B11732   6.189  17.522   6.925 -0.0971  0.2141 -0.0469
  787POPE   C3B11733   6.201  17.214   7.225 -0.2174  0.1595  0.1557
  787POPE   C4B11734   6.088  16.970   7.576 -0.1867 -0.2615 -0.0515
  788POPE   NH311735  14.196  12.104   5.669 -0.2331  0.0169 -0.3844
  788POPE   PO411736  14.330  12.505   5.648  0.2595  0.2372 -0.1508
  788POPE   GL111737  14.495  12.501   6.048 -0.0071  0.0506  0.2482
  788POPE   GL211738  14.530  12.799   6.157  0.1244  0.2310 -0.2673
  788POPE   C1A11739  14.334  12.273   6.344  0.2120  0.1085 -0.0884
  788POPE   D2A11740  14.419  12.236   6.738  0.2268  0.0644  0.0249
  788POPE   C3A11741  14.129  12.385   7.047  0.1881 -0.3132 -0.0418
  788POPE   C4A11742  13.887  12.644   7.319  0.1521 -0.1575 -0.5836
  788POPE   C1B11743  14.444  12.691   6.573  0.1613 -0.0441  0.0737
  788POPE   C2B11744  14.250  12.843   6.834 -0.2271 -0.0953  0.0922
  788POPE   C3B11745  13.938  13.135   7.077  0.1617  0.0786 -0.0108
  788POPE   C4B11746  13.643  13.430   6.985  0.0011  0.3399  0.1872
  789POPE   NH311747   8.825  11.938   5.535 -0.2063  0.3002 -0.0199
  789POPE   PO411748   8.880  12.303   5.512 -0.1145 -0.0517 -0.0925
  789POPE   GL111749   8.671  12.234   5.962  0.3910  0.2376  0.1903
  789POPE   GL211750   8.841  12.100   6.187  0.0912  0.2305  0.1210
  789POPE   C1A11751   8.356  12.427   6.067  0.1178  0.0001  0.3047
  789POPE   D2A11752   8.052  12.430   6.499 -0.2022  0.0760 -0.1031
  789POPE   C3A11753   8.179  12.558   6.957  0.1142 -0.1538  0.0392
  789POPE   C4A11754   8.478  12.608   7.353 -0.0640 -0.0568  0.0256
  789POPE   C1B11755   8.740  11.758   6.528  0.1636 -0.6200  0.1429
  789POPE   C2B11756   8.852  11.674   6.923  0.1223 -0.1057 -0.3650
  789POPE   C3B11757   8.712  11.693   7.399  0.1929  0.2630 -0.1080
  789POPE   C4B11758   8.548  11.364   7.521 -0.2329 -0.3507 -0.1084
  790POPE   NH311759  13.394  12.326   5.460 -0.3672 -0.0847 -0.0176
  790POPE   PO411760  13.748  12.672   5.517  0.1607  0.1605  0.1475
  790POPE   GL111761  13.733  12.374   5.868 -0.0830 -0.3240 -0.3817
  790POPE   GL211762  13.684  12.038   5.777 -0.1100  0.3487  0.0029
  790POPE   C1A11763  13.570  12.148   6.234  0.0374  0.0126  0.1922
  790POPE   D2A11764  13.465  11.834   6.674  0.0708 -0.0364  0.3286
  790POPE   C3A11765  13.398  11.880   7.195 -0.0397  0.1564  0.3052
  790POPE   C4A11766  13.225  11.664   7.415 -0.1168 -0.1909  0.1540
  790POPE   C1B11767  13.716  11.692   6.156 -0.0398  0.1142 -0.0641
  790POPE   C2B11768  13.884  11.493   6.508  0.4532  0.2312  0.0073
  790POPE   C3B11769  13.657  11.009   6.661  0.2185  0.0067  0.0658
  790POPE   C4B11770  13.216  10.889   6.821 -0.3040  0.1318  0.1109
  791POPE   NH311771  12.643   7.234   5.174 -0.1854 -0.2011  0.0920
  791POPE   PO411772  13.001   7.254   5.223  0.2556  0.2092 -0.1010
  791POPE   GL111773  13.170   7.235   5.562  0.0228 -0.2108 -0.0682
  791POPE   GL211774  12.976   7.487   5.751  0.4860 -0.2200  0.1631
  791POPE   C1A11775  13.380   7.282   5.995  0.2597 -0.3552 -0.2371
  791POPE   D2A11776  13.481   7.498   6.363  0.0749 -0.2134  0.4073
  791POPE   C3A11777  13.287   7.727   6.631 -0.1098  0.2599 -0.0905
  791POPE   C4A11778  13.071   8.040   6.757  0.0949  0.1094  0.0543
  791POPE   C1B11779  12.545   7.445   5.884  0.1366 -0.1082 -0.2586
  791POPE   C2B11780  12.378   7.200   6.240  0.0393 -0.0429 -0.0205
  791POPE   C3B11781  12.407   7.245   6.668  0.1354 -0.0769  0.1805
  791POPE   C4B11782  12.167   7.084   7.027 -0.0824 -0.0553 -0.0020
  792POPE   NH311783  12.391  18.412   5.480  0.2825 -0.2129 -0.0523
  792POPE   PO411784  12.447  18.815   5.407 -0.2102 -0.4682 -0.2685
  792POPE   GL111785  12.710  18.707   5.737  0.1859 -0.0513  0.3215
  792POPE   GL211786  12.386  18.733   5.939 -0.3318 -0.0177 -0.1889
  792POPE   C1A11787  12.847  18.611   6.164 -0.1261  0.0875 -0.1100
  792POPE   D2A11788  13.048  18.902   6.458  0.2192  0.1306 -0.0488
  792POPE   C3A11789  12.859  19.026   6.878 -0.2280  0.0163  0.0106
  792POPE   C4A11790  12.926  19.043   7.339 -0.2412  0.2998 -0.0904
  792POPE   C1B11791  12.014  18.669   6.142 -0.0488 -0.1257  0.0760
  792POPE   C2B11792  11.638  18.682   6.369 -0.2443  0.1597 -0.1792
  792POPE   C3B11793  11.548  18.600   6.787 -0.2014 -0.3108  0.2827
  792POPE   C4B11794  11.156  18.536   7.017 -0.0624  0.3062 -0.0094
  793POPE   NH311795  18.015  12.222   4.926 -0.1441  0.1045 -0.0148
  793POPE   PO411796  18.415  12.009   4.802 -0.0684 -0.0374 -0.2538
  793POPE   GL111797  18.481  12.168   5.203  0.1896 -0.1412 -0.0568
  793POPE   GL211798  18.312  11.921   5.476 -0.2878  0.1157  0.2289
  793POPE   C1A11799  18.469  12.583   5.376  0.0230  0.0460  0.2568
  793POPE   D2A11800  18.282  12.918   5.569  0.0835  0.1454 -0.2609
  793POPE   C3A11801  18.477  13.163   5.707  0.0723 -0.0708 -0.1225
  793POPE   C4A11802  18.633  13.169   6.143 -0.0019  0.2071 -0.1940
  793POPE   C1B11803  18.245  11.957   5.878  0.0636 -0.1708 -0.3663
  793POPE   C2B11804  17.984  12.089   6.239  0.1600 -0.3180 -0.0188
  793POPE   C3B11805  18.067  12.153   6.567 -0.1748  0.1054  0.0471
  793POPE   C4B11806  18.253  12.371   6.866  0.1306 -0.0271 -0.1196
  794POPE   NH311807  16.682   3.027   5.256  0.4094 -0.2540  0.0090
  794POPE   PO411808  16.598   3.421   5.241  0.1513 -0.0290  0.2251
  794POPE   GL111809  16.904   3.282   5.641  0.0721 -0.2076  0.3883
  794POPE   GL211810  17.062   3.014   5.561  0.1236 -0.1150 -0.1301
  794POPE   C1A11811  16.959   3.402   5.993  0.2041 -0.1064 -0.4878
  794POPE   D2A11812  17.107   3.258   6.351 -0.1696  0.2122 -0.0647
  794POPE   C3A11813  17.232   2.886   6.560  0.2333 -0.4479  0.0676
  794POPE   C4A11814  17.216   2.597   6.834  0.0084 -0.0980  0.3090
  794POPE   C1B11815  17.261   2.852   5.896 -0.4062  0.0489  0.0712
  794POPE   C2B11816  17.480   2.715   6.156  0.1358 -0.0328  0.1196
  794POPE   C3B11817  17.731   2.766   6.454 -0.3399 -0.0855  0.0157
  794POPE   C4B11818  18.070   2.891   6.570  0.2668 -0.1117 -0.0132
  795POPE   NH311819  12.710  16.731   5.849 -0.0253 -0.3397 -0.1105
  795POPE   PO411820  12.363  16.761   5.497 -0.2248 -0.0237  0.0936
  795POPE   GL111821  12.014  16.728   5.771  0.2077 -0.3897  0.1483
  795POPE   GL211822  11.959  16.957   5.976  0.1780 -0.1205 -0.0439
  795POPE   C1A11823  11.826  16.534   6.134  0.0058 -0.3192 -0.4263
  795POPE   D2A11824  11.795  16.399   6.607 -0.0276  0.1244  0.0971
  795POPE   C3A11825  11.678  16.573   6.913 -0.2779 -0.0747  0.2630
  795POPE   C4A11826  11.277  16.659   7.225  0.1812 -0.1669 -0.0563
  795POPE   C1B11827  12.030  16.946   6.392 -0.1374 -0.1418  0.2218
  795POPE   C2B11828  12.127  16.832   6.854 -0.0782 -0.2469  0.0443
  795POPE   C3B11829  12.095  16.600   7.212  0.2882 -0.0233  0.0852
  795POPE   C4B11830  12.253  16.290   7.431 -0.1571  0.0686  0.0214
  796POPE   NH311831  11.346   2.596   5.336 -0.0836 -0.2270 -0.1055
  796POPE   PO411832  11.599   2.269   5.280  0.4192  0.2214 -0.1029
  796POPE   GL111833  11.403   2.271   5.718 -0.2675 -0.0694  0.1829
  796POPE   GL211834  11.592   2.578   5.850 -0.0475 -0.0082  0.3090
  796POPE   C1A11835  11.348   2.351   6.210  0.2968 -0.0016  0.0338
  796POPE   D2A11836  11.576   1.935   6.536  0.2189  0.0595 -0.0731
  796POPE   C3A11837  11.481   1.926   7.004  0.1839 -0.1870 -0.2811
  796POPE   C4A11838  11.393   1.868   7.403 -0.1115 -0.4137  0.1133
  796POPE   C1B11839  11.319   2.824   6.173  0.0420  0.0182 -0.3302
  796POPE   C2B11840  11.202   2.842   6.565  0.0316 -0.2240 -0.1459
  796POPE   C3B11841  11.175   2.875   7.019 -0.1797  0.0267 -0.0944
  796POPE   C4B11842  11.074   2.725   7.466 -0.1299 -0.3095 -0.0234
  797POPE   NH311843   1.334   5.629   5.785  0.4093  0.1687  0.2515
  797POPE   PO411844   1.466   6.023   5.684  0.5564 -0.0469 -0.0180
  797POPE   GL111845   1.497   5.962   6.212 -0.0236 -0.2414 -0.0272
  797POPE   GL211846   1.166   5.885   6.264  0.0362 -0.3161  0.1560
  797POPE   C1A11847   1.783   6.090   6.499  0.3235  0.1349  0.3318
  797POPE   D2A11848   2.145   6.186   6.792 -0.3619 -0.0907 -0.3792
  797POPE   C3A11849   1.961   6.446   7.031 -0.3476  0.1282  0.1612
  797POPE   C4A11850   1.987   6.748   7.340  0.0364  0.1801  0.1792
  797POPE   C1B11851   1.156   6.204   6.613  0.1963  0.3350 -0.0238
  797POPE   C2B11852   0.852   6.185   7.041  0.3842 -0.2332 -0.0812
  797POPE   C3B11853   0.949   6.089   7.454  0.0810 -0.1406  0.4204
  797POPE   C4B11854   1.226   6.223   7.794 -0.2286  0.2698  0.1167
  798POPE   NH311855   1.555  12.588   5.359  0.0978 -0.0998 -0.0881
  798POPE   PO411856   1.118  12.710   5.417  0.0894 -0.0463  0.2228
  798POPE   GL111857   0.649  12.768   5.624 -0.2890  0.3546  0.1473
  798POPE   GL211858   0.257  12.944   5.677  0.2421 -0.0219 -0.1314
  798POPE   C1A11859   0.564  12.912   6.127  0.2933 -0.3661  0.0454
  798POPE   D2A11860   0.660  12.905   6.530  0.0854 -0.1865 -0.1000
  798POPE   C3A11861   0.406  13.209   6.752  0.3834 -0.2161  0.2413
  798POPE   C4A11862   0.441  13.531   7.143 -0.0793  0.1312  0.4063
  798POPE   C1B11863  -0.157  12.727   5.698  0.1212 -0.0192  0.1427
  798POPE   C2B11864  -0.537  12.708   5.947 -0.1523 -0.1602 -0.0711
  798POPE   C3B11865  -0.530  12.574   6.335 -0.2528  0.1498 -0.3066
  798POPE   C4B11866  -0.544  12.974   6.685  0.3065  0.0268  0.2032
  799POPE   NH311867  16.297   0.021   5.495 -0.3043 -0.1231  0.1760
  799POPE   PO411868  16.501  -0.150   5.785 -0.0057 -0.0241 -0.0055
  799POPE   GL111869  16.799  -0.017   6.063  0.0776 -0.0978  0.0018
  799POPE   GL211870  16.902   0.353   6.145  0.4474 -0.1120 -0.0115
  799POPE   C1A11871  16.714  -0.042   6.525 -0.3324  0.1352  0.1801
  799POPE   D2A11872  16.624  -0.142   6.939 -0.1549 -0.2157  0.4224
  799POPE   C3A11873  16.973  -0.402   7.285 -0.2662  0.0494  0.0942
  799POPE   C4A11874  17.231  -0.746   7.093  0.2645  0.1277 -0.0320
  799POPE   C1B11875  16.821   0.449   6.441 -0.0449 -0.3403  0.1166
  799POPE   C2B11876  16.875   0.717   6.759 -0.3166 -0.0795  0.1216
  799POPE   C3B11877  16.811   0.997   7.073  0.0140 -0.0619 -0.1446
  799POPE   C4B11878  16.979   1.291   7.341  0.0357  0.2441 -0.0309
  800POPE   NH311879  11.041  12.731   5.613  0.0941 -0.2392 -0.0999
  800POPE   PO411880  11.119  13.160   5.765 -0.0702  0.0682  0.0786
  800POPE   GL111881  11.122  13.156   6.108 -0.0891  0.0271  0.2376
  800POPE   GL211882  11.230  13.433   6.241  0.1145 -0.0680  0.1326
  800POPE   C1A11883  11.192  12.821   6.339 -0.5493 -0.2361  0.4719
  800POPE   D2A11884  11.172  12.674   6.667 -0.0558  0.1976 -0.2084
  800POPE   C3A11885  11.274  12.913   7.044  0.1834  0.0485 -0.2484
  800POPE   C4A11886  11.374  13.100   7.380  0.0856 -0.0184 -0.0567
  800POPE   C1B11887  11.261  13.246   6.637 -0.1808 -0.1938  0.0641
  800POPE   C2B11888  11.285  13.358   6.963 -0.1985  0.0349  0.0019
  800POPE   C3B11889  11.098  13.525   7.371  0.0259  0.0426  0.0359
  800POPE   C4B11890  11.234  13.897   7.711 -0.1246  0.2943 -0.0661
  801POPE   NH311891  16.042   9.197   5.211  0.2636 -0.0123  0.2212
  801POPE   PO411892  16.001   9.588   5.327 -0.0239 -0.2099 -0.0902
  801POPE   GL111893  15.929   9.774   5.774  0.4754  0.2759  0.1080
  801POPE   GL211894  15.646   9.578   5.917 -0.0633 -0.1938  0.0283
  801POPE   C1A11895  15.798   9.967   6.231  0.0137 -0.0938  0.2717
  801POPE   D2A11896  15.535   9.997   6.539  0.1957 -0.2087  0.2692
  801POPE   C3A11897  15.554  10.124   6.910  0.0986 -0.0996  0.0279
  801POPE   C4A11898  15.897  10.219   7.102  0.2298 -0.1247  0.0731
  801POPE   C1B11899  16.032   9.479   6.141 -0.1880  0.2365 -0.2498
  801POPE   C2B11900  16.307   9.181   6.193 -0.2411  0.0399  0.2987
  801POPE   C3B11901  16.301   8.808   6.469  0.1137 -0.3805  0.1028
  801POPE   C4B11902  16.553   8.424   6.887 -0.0365 -0.1283  0.0773
  802POPE   NH311903   1.281   2.275   5.726 -0.1553  0.0914  0.2809
  802POPE   PO411904   0.906   2.149   5.902  0.1961 -0.2533  0.2208
  802POPE   GL111905   0.674   2.063   6.234 -0.0903  0.0440 -0.1647
  802POPE   GL211906   0.639   2.351   6.379 -0.3387 -0.1101 -0.0403
  802POPE   C1A11907   0.238   1.905   6.217  0.0660  0.1915  0.0448
  802POPE   D2A11908  -0.178   1.795   6.311 -0.0135 -0.0627  0.0084
  802POPE   C3A11909  -0.349   1.386   6.189  0.0634 -0.1147 -0.4108
  802POPE   C4A11910  -0.766   1.201   6.100 -0.1116 -0.0211 -0.3587
  802POPE   C1B11911   0.420   2.393   6.746  0.4849  0.2027  0.4721
  802POPE   C2B11912   0.047   2.495   6.935  0.2301  0.1120  0.0377
  802POPE   C3B11913  -0.361   2.615   6.775 -0.1832 -0.0364 -0.1447
  802POPE   C4B11914  -0.794   2.508   6.849  0.0525  0.1296  0.1564
  803POPE   NH311915  13.608   2.866   5.149 -0.1957 -0.1393 -0.1086
  803POPE   PO411916  13.750   3.220   5.515  0.1534 -0.0885 -0.1572
  803POPE   GL111917  13.721   3.356   5.887 -0.0960  0.3070  0.0486
  803POPE   GL211918  13.409   3.546   6.080  0.0949  0.0479 -0.2886
  803POPE   C1A11919  14.021   3.483   6.184 -0.1899  0.1642 -0.1279
  803POPE   D2A11920  14.411   3.576   6.222 -0.1062 -0.1949  0.1624
  803POPE   C3A11921  14.585   3.442   6.578  0.3602  0.0610 -0.1337
  803POPE   C4A11922  14.669   3.691   6.885 -0.5021  0.0598 -0.2678
  803POPE   C1B11923  13.651   3.247   6.363  0.1714  0.1652  0.1394
  803POPE   C2B11924  13.599   2.995   6.748  0.1422 -0.1146  0.0087
  803POPE   C3B11925  13.462   3.099   7.157  0.3803 -0.0392 -0.1216
  803POPE   C4B11926  13.242   3.051   7.555 -0.3028 -0.0537  0.3232
  804POPE   NH311927  14.967   5.182   5.362 -0.1315 -0.0839 -0.2238
  804POPE   PO411928  14.498   5.308   5.495  0.0521 -0.1638  0.1813
  804POPE   GL111929  14.447   5.129   5.920 -0.1204  0.0913 -0.0773
  804POPE   GL211930  14.288   4.807   5.856 -0.0198  0.1938 -0.1388
  804POPE   C1A11931  14.668   4.986   6.345 -0.1903  0.2004 -0.0199
  804POPE   D2A11932  14.948   5.033   6.605  0.2138 -0.0826 -0.1583
  804POPE   C3A11933  14.771   5.350   6.858  0.0858  0.1000  0.4445
  804POPE   C4A11934  14.895   5.748   6.915  0.2281  0.0011  0.0162
  804POPE   C1B11935  14.277   4.567   6.227  0.2492 -0.1209  0.4802
  804POPE   C2B11936  14.045   4.584   6.496  0.0582  0.1408  0.1082
  804POPE   C3B11937  13.692   4.277   6.576 -0.0340 -0.2271  0.0542
  804POPE   C4B11938  13.367   3.953   6.827  0.1380 -0.1425 -0.3317
  805POPE   NH311939  13.775  14.618   5.564  0.2663  0.3254 -0.1594
  805POPE   PO411940  13.907  14.905   5.172 -0.1169  0.0096 -0.2216
  805POPE   GL111941  13.843  15.112   5.625  0.1259  0.1506  0.2028
  805POPE   GL211942  14.105  14.970   5.785 -0.0046 -0.1173  0.1484
  805POPE   C1A11943  13.758  15.428   5.903 -0.2250 -0.1195 -0.2173
  805POPE   D2A11944  13.867  15.709   6.204 -0.1037  0.1426  0.1814
  805POPE   C3A11945  13.551  15.691   6.427  0.1960 -0.1174  0.1361
  805POPE   C4A11946  13.096  15.619   6.560 -0.0522 -0.1517  0.0425
  805POPE   C1B11947  14.038  15.004   6.280  0.1279  0.2372  0.0958
  805POPE   C2B11948  13.898  15.347   6.592 -0.3145  0.0586 -0.1138
  805POPE   C3B11949  13.659  15.563   6.870 -0.2645  0.2178  0.0603
  805POPE   C4B11950  13.280  15.694   7.103 -0.2117  0.0516 -0.2713
  806POPE   NH311951  17.508  17.834   5.119 -0.0049 -0.1420 -0.3650
  806POPE   PO411952  17.053  17.859   5.286 -0.0100  0.0332 -0.1718
  806POPE   GL111953  17.445  17.753   5.634  0.0559 -0.3472  0.0348
  806POPE   GL211954  17.582  18.115   5.710 -0.1573  0.0908  0.0085
  806POPE   C1A11955  17.742  17.402   5.860  0.0940 -0.0502 -0.0787
  806POPE   D2A11956  18.032  17.053   5.944  0.0551 -0.0356 -0.1917
  806POPE   C3A11957  18.323  16.831   6.242 -0.3165  0.1244  0.4853
  806POPE   C4A11958  18.397  16.825   6.716  0.1948 -0.1002  0.1076
  806POPE   C1B11959  17.391  18.017   6.137  0.2337  0.1105 -0.2111
  806POPE   C2B11960  17.468  18.110   6.504 -0.3965  0.0667 -0.0776
  806POPE   C3B11961  17.439  18.557   6.614 -0.1642 -0.0281  0.0800
  806POPE   C4B11962  17.106  18.779   6.728  0.0557  0.0806  0.1208
  807POPE   NH311963   4.853   4.274   6.018 -0.0942  0.2224  0.0518
  807POPE   PO411964   5.239   4.034   5.874  0.0587  0.0499 -0.0982
  807POPE   GL111965   5.442   4.361   6.184  0.3468  0.0716  0.1601
  807POPE   GL211966   5.138   4.610   6.269  0.1170  0.1056 -0.1865
  807POPE   C1A11967   5.568   4.244   6.671  0.6117 -0.2527  0.1287
  807POPE   D2A11968   5.388   4.294   7.077  0.2091 -0.0656 -0.0353
  807POPE   C3A11969   5.294   4.163   7.510  0.0744  0.1687  0.0637
  807POPE   C4A11970   5.224   4.198   7.872 -0.1171  0.0567  0.1413
  807POPE   C1B11971   5.177   4.758   6.686 -0.0293 -0.0561 -0.1415
  807POPE   C2B11972   5.205   4.729   7.055 -0.2342  0.1799  0.2010
  807POPE   C3B11973   5.326   5.003   7.394  0.1200  0.3003  0.2547
  807POPE   C4B11974   5.416   5.176   7.794 -0.1766 -0.2292  0.2014
  808POPE   NH311975   0.279  11.043   5.321  0.0320 -0.1435 -0.1457
  808POPE   PO411976   0.176  10.744   5.540  0.1247 -0.0248  0.1798
  808POPE   GL111977   0.425  10.997   5.839 -0.2780 -0.0508  0.3788
  808POPE   GL211978   0.665  10.985   5.611  0.2058 -0.1599 -0.1443
  808POPE   C1A11979   0.486  10.951   6.362  0.1778 -0.0897 -0.0520
  808POPE   D2A11980   0.198  10.920   6.677  0.0237 -0.1571  0.1211
  808POPE   C3A11981   0.080  11.340   6.875  0.0967  0.0712 -0.2360
  808POPE   C4A11982  -0.320  11.393   6.730 -0.2875 -0.1031 -0.0021
  808POPE   C1B11983   0.902  11.024   5.986 -0.0667 -0.0244  0.1146
  808POPE   C2B11984   0.960  11.145   6.397  0.0272 -0.0060 -0.1287
  808POPE   C3B11985   0.700  11.153   6.772  0.2543 -0.1630  0.5592
  808POPE   C4B11986   0.473  11.282   7.198  0.3984 -0.0956  0.2099
  809POPE   NH311987   5.472   0.049   5.952 -0.0290  0.2069  0.1732
  809POPE   PO411988   5.876   0.138   5.883 -0.0334 -0.2174  0.4547
  809POPE   GL111989   5.951   0.254   6.287  0.2253  0.0440  0.1631
  809POPE   GL211990   6.167   0.488   6.402 -0.1681  0.2394  0.0353
  809POPE   C1A11991   5.735   0.157   6.730  0.0470 -0.2127 -0.1128
  809POPE   D2A11992   5.420   0.244   6.970  0.2392 -0.0989  0.2289
  809POPE   C3A11993   5.478   0.377   7.426  0.0028 -0.1971  0.1383
  809POPE   C4A11994   5.485   0.153   7.796  0.1347  0.1263  0.0515
  809POPE   C1B11995   6.184   0.305   6.787 -0.1345 -0.0910 -0.1122
  809POPE   C2B11996   6.292  -0.014   7.109  0.1424 -0.0243 -0.0149
  809POPE   C3B11997   6.066  -0.402   7.112  0.3929  0.2226 -0.3980
  809POPE   C4B11998   6.142  -0.770   7.412 -0.6221 -0.0458  0.1802
  810POPE   NH311999  16.858  16.513   5.586  0.1114  0.1216 -0.3165
  810POPE   PO412000  17.202  16.476   5.280  0.2967  0.2009 -0.0780
  810POPE   GL112001  17.327  16.735   5.592 -0.1785  0.2394 -0.0679
  810POPE   GL212002  17.515  16.534   5.708  0.0469  0.0669  0.1664
  810POPE   C1A12003  17.472  16.983   5.923 -0.0026 -0.0739  0.0093
  810POPE   D2A12004  17.419  17.074   6.421 -0.0799 -0.1255  0.0534
  810POPE   C3A12005  17.567  16.882   6.893  0.0379  0.0459  0.0958
  810POPE   C4A12006  17.551  16.645   7.078  0.5264  0.0996 -0.2883
  810POPE   C1B12007  17.295  16.541   6.087 -0.0948 -0.1527 -0.0824
  810POPE   C2B12008  17.250  16.625   6.473 -0.0966  0.3768  0.0855
  810POPE   C3B12009  17.261  16.304   6.757  0.1119 -0.1837  0.0016
  810POPE   C4B12010  17.530  16.130   6.980 -0.0946 -0.0312  0.1980
  811POPE   NH312011   6.783  12.384   5.259  0.1479  0.0042 -0.0017
  811POPE   PO412012   6.737  12.449   5.699  0.2887  0.1971 -0.1400
  811POPE   GL112013   6.561  12.858   5.932 -0.1975  0.2377 -0.2084
  811POPE   GL212014   6.793  13.112   5.956 -0.4328  0.1407  0.2893
  811POPE   C1A12015   6.551  12.908   6.379  0.0269 -0.3912 -0.2878
  811POPE   D2A12016   6.691  12.778   6.702  0.0802 -0.1623 -0.1145
  811POPE   C3A12017   6.559  13.016   7.084 -0.0774 -0.2821 -0.2276
  811POPE   C4A12018   6.507  13.465   7.176 -0.2539 -0.2216  0.1891
  811POPE   C1B12019   7.030  12.961   6.264  0.0454  0.1950  0.0965
  811POPE   C2B12020   7.254  13.145   6.576  0.0783  0.1342 -0.2332
  811POPE   C3B12021   7.675  13.289   6.514 -0.1331 -0.0823 -0.0946
  811POPE   C4B12022   7.975  13.432   6.530 -0.1894 -0.2013  0.2654
  812YOPE   NH312023   7.786  15.571   5.753  0.1771  0.0503 -0.1468
  812YOPE   PO412024   8.056  15.169   5.845 -0.0187 -0.0477  0.2530
  812YOPE   GL112025   7.861  15.349   6.199  0.0782  0.1993 -0.1101
  812YOPE   GL212026   7.609  15.630   6.273  0.4147  0.0767  0.0045
  812YOPE   C1A12027   7.827  15.259   6.598  0.1665 -0.3681 -0.3329
  812YOPE   D2A12028   7.705  15.159   7.048 -0.0648 -0.0774  0.1569
  812YOPE   C3A12029   8.008  15.211   7.411  0.1132 -0.0038 -0.1477
  812YOPE   C4A12030   8.318  15.217   7.772  0.3529  0.5364 -0.2000
  812YOPE   C1B12031   7.352  15.407   6.735  0.0381 -0.2025  0.0070
  812YOPE   C2B12032   7.154  15.338   7.044 -0.1140  0.1323  0.1517
  812YOPE   D3B12033   7.274  15.207   7.316 -0.2721 -0.0982 -0.0427
  812YOPE   C4B12034   7.237  15.135   7.827  0.1587 -0.1249 -0.1146
  813YOPE   NH312035   0.957   8.691   5.371 -0.1733 -0.3331 -0.3500
  813YOPE   PO412036   1.068   8.970   5.811  0.3275  0.0791 -0.0383
  813YOPE   GL112037   0.799   9.251   6.074 -0.1520 -0.1146  0.0701
  813YOPE   GL212038   1.014   9.556   6.019 -0.1878  0.1452  0.1944
  813YOPE   C1A12039   0.839   9.191   6.500 -0.3484  0.0224  0.1639
  813YOPE   D2A12040   0.912   9.487   6.845  0.0105  0.1729  0.1543
  813YOPE   C3A12041   0.934   9.859   6.858 -0.2653 -0.1727  0.1211
  813YOPE   C4A12042   1.116  10.008   7.229 -0.1355  0.3478 -0.3211
  813YOPE   C1B12043   1.162   9.565   6.426  0.2372  0.2368  0.3251
  813YOPE   C2B12044   1.402   9.721   6.752  0.1405 -0.2077  0.0909
  813YOPE   D3B12045   1.584   9.808   7.200  0.1565 -0.0945  0.1724
  813YOPE   C4B12046   1.904   9.669   7.445 -0.1019 -0.0448 -0.3132
  814YOPE   NH312047   3.326  12.869   5.169 -0.1207 -0.0271  0.1675
  814YOPE   PO412048   2.957  13.121   4.963 -0.1954  0.0085 -0.2656
  814YOPE   GL112049   2.836  13.056   5.345 -0.1757  0.1676  0.0446
  814YOPE   GL212050   3.046  13.385   5.484  0.2516  0.0789 -0.1091
  814YOPE   C1A12051   2.843  12.794   5.659 -0.2592  0.0525  0.1083
  814YOPE   D2A12052   2.966  12.734   6.102 -0.0321 -0.4051  0.2050
  814YOPE   C3A12053   3.203  12.708   6.448  0.0648  0.0004 -0.1593
  814YOPE   C4A12054   3.357  12.415   6.765 -0.2794  0.5099 -0.0447
  814YOPE   C1B12055   2.840  13.361   5.757 -0.0076 -0.2237 -0.0612
  814YOPE   C2B12056   2.674  13.193   6.055  0.1106 -0.1609 -0.4529
  814YOPE   D3B12057   2.349  13.444   6.333  0.3759 -0.1398  0.0812
  814YOPE   C4B12058   1.978  13.277   6.648  0.3592 -0.0962  0.0120
  815YOPE   NH312059   1.715   1.712   5.878 -0.4680  0.4272  0.2027
  815YOPE   PO412060   1.755   2.034   5.747  0.0952 -0.0334  0.1662
  815YOPE   GL112061   1.620   2.151   6.131 -0.1944  0.0448  0.2738
  815YOPE   GL212062   1.657   1.798   6.338  0.1042 -0.2488  0.4411
  815YOPE   C1A12063   1.506   2.286   6.573  0.1467  0.0950  0.4376
  815YOPE   D2A12064   1.533   2.381   7.023 -0.1665 -0.0901 -0.3082
  815YOPE   C3A12065   1.556   2.236   7.416 -0.0480  0.3069  0.2663
  815YOPE   C4A12066   1.551   2.316   7.792 -0.0044  0.1192 -0.0356
  815YOPE   C1B12067   1.571   1.779   6.631  0.0268 -0.1250  0.0616
  815YOPE   C2B12068   1.566   1.902   7.045  0.2876  0.3733  0.2096
  815YOPE   D3B12069   1.629   1.555   7.409  0.2672 -0.1672 -0.1383
  815YOPE   C4B12070   1.867   1.881   7.704  0.0558  0.2758 -0.2991
  816YOPE   NH312071   4.169   6.429   5.918 -0.3102  0.1479  0.1681
  816YOPE   PO412072   3.712   6.288   5.837  0.1070  0.0155  0.1932
  816YOPE   GL112073   3.641   6.246   6.270 -0.0159 -0.0986 -0.0145
  816YOPE   GL212074   3.950   6.177   6.406 -0.1125 -0.1981 -0.2824
  816YOPE   C1A12075   3.504   6.351   6.711 -0.0325 -0.2900  0.0667
  816YOPE   D2A12076   3.227   6.244   6.985  0.1387 -0.0582 -0.4082
  816YOPE   C3A12077   3.084   5.837   7.316 -0.2041 -0.2490 -0.3709
  816YOPE   C4A12078   3.206   5.711   7.676 -0.1568  0.2275 -0.1149
  816YOPE   C1B12079   4.276   6.099   6.675 -0.0700  0.2343 -0.1736
  816YOPE   C2B12080   4.407   5.970   7.120 -0.0279 -0.1445 -0.1863
  816YOPE   D3B12081   4.498   6.051   7.542 -0.1677 -0.1588 -0.1794
  816YOPE   C4B12082   4.298   5.832   7.782 -0.1988 -0.2947  0.0130
  817YOPE   NH312083   3.961   7.968   5.605 -0.1546  0.1528 -0.0800
  817YOPE   PO412084   4.350   7.914   5.739 -0.2538 -0.0333  0.0252
  817YOPE   GL112085   4.344   8.074   6.117  0.1660  0.0747  0.4157
  817YOPE   GL212086   4.564   8.466   6.132  0.0588  0.2586  0.0735
  817YOPE   C1A12087   4.195   8.021   6.499  0.3308  0.4781 -0.1438
  817YOPE   D2A12088   4.102   7.993   6.893  0.0735 -0.4651 -0.2360
  817YOPE   C3A12089   3.782   8.087   7.064 -0.0407 -0.4434 -0.0227
  817YOPE   C4A12090   3.540   7.864   7.419  0.0839 -0.0675 -0.0813
  817YOPE   C1B12091   4.698   8.589   6.460 -0.2152 -0.0509 -0.0429
  817YOPE   C2B12092   4.535   8.840   6.846 -0.0175 -0.0622 -0.0962
  817YOPE   D3B12093   4.426   8.986   7.249  0.1183 -0.1203 -0.0847
  817YOPE   C4B12094   4.488   9.012   7.701 -0.0256 -0.0078 -0.0448
  818YOPE   NH312095  12.576   4.426   5.324 -0.1068 -0.0806 -0.2430
  818YOPE   PO412096  12.234   4.468   5.084  0.0191 -0.2125 -0.2006
  818YOPE   GL112097  12.218   4.080   5.465 -0.0040 -0.2433  0.0352
  818YOPE   GL212098  12.426   3.943   5.592 -0.2936  0.0869  0.0783
  818YOPE   C1A12099  12.099   4.089   5.943 -0.0301 -0.1784  0.3149
  818YOPE   D2A12100  12.316   3.950   6.350 -0.5014  0.1812  0.4255
  818YOPE   C3A12101  12.128   4.158   6.762 -0.5131 -0.0575 -0.2346
  818YOPE   C4A12102  11.973   4.585   6.856  0.1539  0.1815  0.1513
  818YOPE   C1B12103  12.458   3.691   5.976  0.0250  0.0363  0.0007
  818YOPE   C2B12104  12.854   3.435   6.184  0.0978 -0.0142  0.1639
  818YOPE   D3B12105  13.110   3.146   6.365 -0.3017  0.0225 -0.0893
  818YOPE   C4B12106  13.479   2.895   5.979  0.1178 -0.1073  0.2018
  819YOPE   NH312107  15.082  18.918   5.260  0.2670 -0.1969 -0.0472
  819YOPE   PO412108  15.485  18.615   5.295 -0.0748  0.0696 -0.1391
  819YOPE   GL112109  15.453  18.783   5.721  0.0362 -0.0593  0.2277
  819YOPE   GL212110  15.398  18.568   5.933 -0.0660  0.1767  0.1574
  819YOPE   C1A12111  15.566  19.179   6.074 -0.2060 -0.2121  0.0349
  819YOPE   D2A12112  15.820  19.651   6.084  0.1155 -0.0657 -0.1196
  819YOPE   C3A12113  15.708  19.938   6.504  0.2916 -0.0685 -0.0263
  819YOPE   C4A12114  15.326  20.042   6.716 -0.0325 -0.2810 -0.0299
  819YOPE   C1B12115  15.790  18.458   6.048  0.2595  0.0731 -0.0163
  819YOPE   C2B12116  16.205  18.500   6.230  0.0690 -0.1039  0.0713
  819YOPE   D3B12117  16.397  18.526   6.639  0.1047  0.1767  0.2380
  819YOPE   C4B12118  16.761  18.459   6.881  0.0192  0.0031 -0.1485
  820YOPE   NH312119   8.288   5.219   5.624  0.0437  0.0498  0.0436
  820YOPE   PO412120   8.765   5.236   5.629  0.1185  0.1788 -0.1344
  820YOPE   GL112121   9.011   5.255   6.011 -0.1255  0.2434 -0.3483
  820YOPE   GL212122   9.314   4.959   5.957 -0.0961  0.5171 -0.0282
  820YOPE   C1A12123   9.074   5.162   6.331  0.0434 -0.1644 -0.2441
  820YOPE   D2A12124   9.044   5.052   6.736 -0.0047  0.2618  0.0997
  820YOPE   C3A12125   8.800   4.893   7.012 -0.1600 -0.2414  0.0008
  820YOPE   C4A12126   8.773   4.810   7.375 -0.0237 -0.1047  0.1350
  820YOPE   C1B12127   9.471   4.814   6.337  0.0724  0.4364  0.1869
  820YOPE   C2B12128   9.740   4.464   6.448 -0.1633 -0.1494 -0.0338
  820YOPE   D3B12129   9.931   4.064   6.577  0.1981  0.2310 -0.2538
  820YOPE   C4B12130   9.991   3.729   6.706  0.2326 -0.1592  0.2664
  821YOPE   NH312131   7.421   7.354   5.393 -0.0991  0.3685  0.0238
  821YOPE   PO412132   7.730   7.142   5.305 -0.0358  0.2300 -0.0657
  821YOPE   GL112133   7.872   7.123   5.696 -0.0625 -0.1376 -0.0474
  821YOPE   GL212134   7.601   7.168   5.885  0.1786  0.0064  0.0772
  821YOPE   C1A12135   8.069   7.012   6.061  0.0410  0.2381  0.0736
  821YOPE   D2A12136   8.009   7.057   6.450 -0.0335 -0.3779  0.5720
  821YOPE   C3A12137   7.725   6.984   6.698  0.3344  0.0013 -0.0941
  821YOPE   C4A12138   7.300   6.748   6.663  0.1060  0.4122 -0.3644
  821YOPE   C1B12139   7.683   7.375   6.255 -0.1038 -0.0128 -0.0303
  821YOPE   C2B12140   7.711   7.542   6.536  0.3112 -0.1263  0.2355
  821YOPE   D3B12141   7.791   7.556   6.889 -0.0034 -0.0581 -0.3391
  821YOPE   C4B12142   8.010   7.455   7.294  0.1258 -0.1388  0.0838
  822YOPE   NH312143   4.601  12.915   5.572  0.0061  0.3040  0.1198
  822YOPE   PO412144   4.417  13.320   5.542 -0.0988 -0.1020  0.0428
  822YOPE   GL112145   4.182  13.201   5.884  0.0213 -0.0510  0.2828
  822YOPE   GL212146   3.856  12.972   5.905 -0.1932 -0.2189 -0.1459
  822YOPE   C1A12147   4.309  13.282   6.403 -0.2830  0.1824  0.0071
  822YOPE   D2A12148   4.496  12.895   6.730  0.3949 -0.2788  0.0697
  822YOPE   C3A12149   4.198  12.841   7.128  0.0764  0.1591 -0.1705
  822YOPE   C4A12150   4.207  12.743   7.567 -0.0332  0.0460  0.0111
  822YOPE   C1B12151   3.580  12.660   6.101  0.1249 -0.0835  0.0214
  822YOPE   C2B12152   3.644  12.420   6.337 -0.1038 -0.1069  0.2946
  822YOPE   D3B12153   3.563  12.054   6.514  0.1406 -0.1118  0.0376
  822YOPE   C4B12154   3.587  11.968   6.920  0.1099  0.2488 -0.0635
  823YOPE   NH312155   2.879  13.610   5.037 -0.0602 -0.3259 -0.0997
  823YOPE   PO412156   2.541  13.436   5.234  0.0416  0.0580  0.0876
  823YOPE   GL112157   2.388  13.382   5.641 -0.0311 -0.0724  0.2247
  823YOPE   GL212158   2.388  12.997   5.527 -0.1527 -0.4690 -0.0611
  823YOPE   C1A12159   2.089  13.197   6.015  0.2298  0.1784 -0.0111
  823YOPE   D2A12160   2.141  12.884   6.365 -0.2091  0.3955 -0.1937
  823YOPE   C3A12161   2.394  13.066   6.796  0.0987  0.0108  0.1148
  823YOPE   C4A12162   2.510  13.443   7.116 -0.0494  0.2184  0.2349
  823YOPE   C1B12163   2.430  12.776   5.935 -0.0616  0.3010  0.0270
  823YOPE   C2B12164   2.467  12.550   6.417  0.0731  0.1114  0.3043
  823YOPE   D3B12165   2.402  12.492   6.803 -0.0604 -0.3058 -0.2511
  823YOPE   C4B12166   2.152  12.487   7.181 -0.1354  0.1544 -0.2632
  824YOPE   NH312167   4.160   3.653   6.186 -0.0482  0.3079 -0.0919
  824YOPE   PO412168   4.133   3.159   6.024  0.1238 -0.0745  0.1580
  824YOPE   GL112169   4.225   2.764   6.300 -0.0646 -0.4651 -0.1531
  824YOPE   GL212170   4.081   2.866   6.615 -0.0163  0.2883  0.0228
  824YOPE   C1A12171   4.233   2.351   6.568  0.0500 -0.1577 -0.1297
  824YOPE   D2A12172   4.121   2.014   7.007 -0.0465 -0.1326 -0.1529
  824YOPE   C3A12173   3.896   1.846   7.298  0.1130  0.0830 -0.0857
  824YOPE   C4A12174   3.824   1.944   7.672  0.4180 -0.4760  0.2221
  824YOPE   C1B12175   4.105   3.117   6.995  0.1667 -0.0144 -0.2647
  824YOPE   C2B12176   4.338   3.215   7.317  0.0160  0.0211  0.1357
  824YOPE   D3B12177   4.756   3.280   7.471  0.0499  0.2446  0.1100
  824YOPE   C4B12178   5.257   3.380   7.403  0.0444 -0.2165  0.1969
  825YOPE   NH312179  15.049  18.517   5.623 -0.1476  0.3768  0.3511
  825YOPE   PO412180  14.894  18.184   5.713  0.1706 -0.0077 -0.1769
  825YOPE   GL112181  14.526  18.390   5.761  0.0054 -0.2668  0.0329
  825YOPE   GL212182  14.381  18.146   5.722 -0.2533  0.1394 -0.0956
  825YOPE   C1A12183  14.481  18.545   6.168 -0.4402  0.1720 -0.1765
  825YOPE   D2A12184  14.442  18.881   6.533  0.1177  0.3173 -0.1074
  825YOPE   C3A12185  14.752  19.068   6.677  0.1515  0.2472 -0.2149
  825YOPE   C4A12186  14.966  19.400   6.783 -0.1015 -0.1687  0.1940
  825YOPE   C1B12187  14.138  18.106   6.101  0.0450  0.0814 -0.1370
  825YOPE   C2B12188  13.811  18.068   6.284  0.0219  0.2351 -0.0264
  825YOPE   D3B12189  13.680  18.080   6.760  0.1263  0.0537 -0.0089
  825YOPE   C4B12190  13.493  17.892   7.140  0.2209 -0.1670  0.3926
  826YOPE   NH312191   5.448   0.905   6.027 -0.4119  0.0140 -0.1169
  826YOPE   PO412192   5.057   0.830   6.200  0.2061  0.0910  0.1112
  826YOPE   GL112193   5.343   0.929   6.501 -0.0437 -0.0447 -0.0561
  826YOPE   GL212194   5.482   0.686   6.698  0.1736 -0.2330  0.1254
  826YOPE   C1A12195   5.300   1.147   6.854 -0.3369  0.0683 -0.1164
  826YOPE   D2A12196   5.082   1.256   7.153  0.0484  0.1665 -0.2180
  826YOPE   C3A12197   5.233   1.286   7.605 -0.2712  0.0754  0.1303
  826YOPE   C4A12198   5.543   1.030   7.775  0.3304 -0.0346 -0.2895
  826YOPE   C1B12199   5.789   0.650   6.782 -0.0644  0.2851  0.1812
  826YOPE   C2B12200   6.088   0.744   7.176  0.2197 -0.0542  0.3450
  826YOPE   D3B12201   6.249   0.712   7.546  0.1504 -0.0061  0.0467
  826YOPE   C4B12202   6.427   0.518   7.909  0.1933 -0.0623 -0.0202
  827YOPE   NH312203   8.689  11.002   5.538 -0.0829 -0.0448 -0.1883
  827YOPE   PO412204   8.672  11.469   5.676  0.1808  0.1841 -0.0176
  827YOPE   GL112205   8.848  11.386   6.048 -0.1965 -0.2071  0.0487
  827YOPE   GL212206   9.093  11.490   6.049 -0.0895 -0.0882 -0.1883
  827YOPE   C1A12207   8.886  11.107   6.340  0.0187 -0.5123  0.2054
  827YOPE   D2A12208   8.953  10.997   6.755  0.1119  0.1972 -0.2443
  827YOPE   C3A12209   9.102  11.219   7.133 -0.1116 -0.0460  0.2376
  827YOPE   C4A12210   9.166  11.576   7.479 -0.2594 -0.0092 -0.1802
  827YOPE   C1B12211   9.212  11.555   6.478  0.2541 -0.0277  0.2639
  827YOPE   C2B12212   9.377  11.448   6.847  0.0795  0.1867  0.1752
  827YOPE   D3B12213   9.579  11.583   7.225 -0.0934 -0.0389 -0.1867
  827YOPE   C4B12214   9.723  11.335   7.580  0.2667 -0.1805  0.0333
  828YOPE   NH312215   0.362   3.839   5.367  0.1490 -0.1521 -0.0324
  828YOPE   PO412216   0.744   3.893   5.593 -0.0248 -0.2351 -0.0536
  828YOPE   GL112217   0.407   3.852   5.891  0.1403 -0.1494 -0.1085
  828YOPE   GL212218   0.200   4.071   6.016 -0.2093 -0.0397  0.3165
  828YOPE   C1A12219   0.275   3.589   6.250  0.1633  0.4878 -0.0693
  828YOPE   D2A12220  -0.040   3.601   6.517 -0.1590  0.0454 -0.0027
  828YOPE   C3A12221  -0.365   3.479   6.260  0.1963  0.2294 -0.0908
  828YOPE   C4A12222  -0.789   3.582   6.450  0.0193 -0.2171  0.1996
  828YOPE   C1B12223  -0.132   3.944   6.083  0.1915 -0.0835 -0.1812
  828YOPE   C2B12224  -0.448   3.992   6.398  0.2455  0.0015 -0.0515
  828YOPE   D3B12225  -0.506   3.819   6.768  0.0517  0.3141 -0.1889
  828YOPE   C4B12226  -0.394   3.906   7.121 -0.3019  0.0033 -0.0797
  829YOPE   NH312227   7.594  13.066   5.529  0.3474 -0.0151 -0.0816
  829YOPE   PO412228   7.898  13.406   5.783 -0.1331  0.1990  0.0564
  829YOPE   GL112229   8.138  13.155   6.126  0.1825  0.1660 -0.0011
  829YOPE   GL212230   8.031  12.892   6.456  0.1846 -0.2927 -0.4066
  829YOPE   C1A12231   8.501  13.045   6.489 -0.3705 -0.0061  0.0188
  829YOPE   D2A12232   8.565  12.825   6.884 -0.0757  0.0512 -0.2866
  829YOPE   C3A12233   8.628  13.178   7.269 -0.3951  0.0581  0.1904
  829YOPE   C4A12234   8.607  13.492   7.620  0.0889  0.0149  0.3297
  829YOPE   C1B12235   8.029  13.017   6.886 -0.0787 -0.0682  0.0297
  829YOPE   C2B12236   8.111  12.976   7.339 -0.0265 -0.0864 -0.0447
  829YOPE   D3B12237   7.919  12.844   7.815 -0.0608 -0.0977  0.0186
  829YOPE   C4B12238   7.862  12.641   8.158 -0.4105 -0.0541  0.2864
  830YOPE   NH312239  12.873   0.755   5.605 -0.0966  0.3699 -0.0873
  830YOPE   PO412240  12.542   0.976   5.749 -0.0863 -0.0254 -0.0874
  830YOPE   GL112241  12.745   0.968   6.076  0.0527  0.2677  0.1623
  830YOPE   GL212242  13.058   0.976   6.054 -0.1758  0.1403 -0.1548
  830YOPE   C1A12243  12.665   0.918   6.471  0.1592  0.1560  0.1694
  830YOPE   D2A12244  12.509   0.713   6.684  0.1863  0.1253 -0.1549
  830YOPE   C3A12245  12.773   0.404   7.081  0.1059 -0.0907 -0.1206
  830YOPE   C4A12246  13.167   0.395   7.243  0.0089  0.0294 -0.0179
  830YOPE   C1B12247  13.431   0.853   6.240  0.2430 -0.0788  0.0883
  830YOPE   C2B12248  13.839   0.532   6.347  0.1868 -0.1604  0.1037
  830YOPE   D3B12249  13.961   0.106   6.538 -0.1273 -0.1559 -0.1450
  830YOPE   C4B12250  14.175   0.064   6.987  0.0450 -0.3147  0.1748
  831YOPE   NH312251   4.798  17.794   5.290 -0.3224  0.0135 -0.0912
  831YOPE   PO412252   4.319  17.727   5.575 -0.0040 -0.0025 -0.2044
  831YOPE   GL112253   3.926  17.685   5.827  0.1934 -0.5373  0.2593
  831YOPE   GL212254   3.892  17.375   5.996 -0.1691 -0.2352  0.0151
  831YOPE   C1A12255   3.555  17.786   6.019 -0.0091 -0.0449 -0.1064
  831YOPE   D2A12256   3.228  17.570   6.331 -0.1611 -0.0544 -0.2830
  831YOPE   C3A12257   3.188  17.208   6.528 -0.0283  0.2747  0.0513
  831YOPE   C4A12258   3.147  16.907   6.952  0.1192  0.1026 -0.1680
  831YOPE   C1B12259   3.858  17.253   6.361 -0.2893  0.0558  0.1215
  831YOPE   C2B12260   3.683  17.304   6.825 -0.2211 -0.2677 -0.0074
  831YOPE   D3B12261   3.235  17.514   6.917  0.1498  0.3220 -0.1239
  831YOPE   C4B12262   2.945  17.368   7.175 -0.0795 -0.2278 -0.0939
  832YOPE   NH312263   9.135   9.593   5.084  0.1857  0.0788 -0.2774
  832YOPE   PO412264   8.971   9.288   5.474  0.0001  0.2291 -0.1677
  832YOPE   GL112265   9.124   9.334   5.845 -0.1532  0.1115  0.4055
  832YOPE   GL212266   9.313   9.538   5.889  0.0128 -0.0137 -0.1923
  832YOPE   C1A12267   9.291   8.997   6.095 -0.2496 -0.2473 -0.0773
  832YOPE   D2A12268   9.211   8.721   6.446 -0.2241 -0.3086  0.1203
  832YOPE   C3A12269   8.779   8.716   6.636  0.2583 -0.1239  0.2611
  832YOPE   C4A12270   8.701   9.004   6.996 -0.2016 -0.2428  0.0408
  832YOPE   C1B12271   9.325   9.494   6.352 -0.0717  0.0067  0.4138
  832YOPE   C2B12272   9.489   9.523   6.755 -0.1661 -0.1178  0.4544
  832YOPE   D3B12273   9.128   9.793   6.899 -0.0939 -0.0775  0.0503
  832YOPE   C4B12274   8.791   9.954   7.087 -0.1702 -0.2479 -0.2386
  833YOPE   NH312275  14.816  11.505   5.625 -0.1281 -0.2412 -0.2400
  833YOPE   PO412276  15.233  11.599   5.398 -0.0462  0.4073  0.2540
  833YOPE   GL112277  15.204  11.344   5.844 -0.2051 -0.0896 -0.1632
  833YOPE   GL212278  14.902  11.345   6.065 -0.1607 -0.0475 -0.2252
  833YOPE   C1A12279  15.556  11.395   6.053  0.0959  0.0354 -0.1559
  833YOPE   D2A12280  15.751  11.749   6.361 -0.1087  0.3121 -0.1294
  833YOPE   C3A12281  15.636  11.930   6.814  0.1477 -0.0359 -0.1127
  833YOPE   C4A12282  15.613  12.113   7.141 -0.1118 -0.0193  0.2247
  833YOPE   C1B12283  15.150  11.296   6.446  0.0168 -0.4038 -0.6369
  833YOPE   C2B12284  15.092  11.422   6.777  0.1911 -0.0793  0.6205
  833YOPE   D3B12285  14.861  11.473   7.161  0.3297  0.0697  0.1758
  833YOPE   C4B12286  14.795  11.775   7.484 -0.1781  0.1250 -0.1728
  834YOPE   NH312287   9.941  12.990   5.684 -0.2636 -0.1395 -0.1090
  834YOPE   PO412288  10.263  13.213   5.803 -0.0587  0.0174  0.0586
  834YOPE   GL112289   9.979  13.220   6.177  0.1153 -0.2569 -0.2620
  834YOPE   GL212290   9.889  12.869   6.156 -0.0541  0.0542 -0.0082
  834YOPE   C1A12291   9.917  13.110   6.592 -0.4087 -0.2313 -0.0644
  834YOPE   D2A12292  10.083  12.801   6.840  0.1072  0.1821 -0.0924
  834YOPE   C3A12293  10.419  12.741   6.997 -0.2778  0.1976 -0.0662
  834YOPE   C4A12294  10.790  12.651   7.204  0.0821  0.2120 -0.2832
  834YOPE   C1B12295  10.350  12.902   6.367  0.0810  0.2226 -0.1983
  834YOPE   C2B12296  10.725  12.866   6.594 -0.0536 -0.1644 -0.2325
  834YOPE   D3B12297  10.863  13.170   6.883 -0.1706 -0.0026  0.1221
  834YOPE   C4B12298  10.642  13.521   7.176 -0.2608  0.2013 -0.2073
  835YOPE   NH312299  11.891   7.834   5.330  0.0531 -0.0744  0.1223
  835YOPE   PO412300  11.404   7.823   5.476 -0.0058  0.1547  0.2483
  835YOPE   GL112301  11.294   7.774   5.933  0.1358 -0.3184  0.1703
  835YOPE   GL212302  11.026   7.888   5.878 -0.0760  0.2175  0.0428
  835YOPE   C1A12303  11.333   7.610   6.296 -0.3750  0.2605 -0.1015
  835YOPE   D2A12304  11.352   7.401   6.656 -0.1574  0.2011  0.1030
  835YOPE   C3A12305  11.259   7.555   7.111 -0.1277  0.0995  0.0445
  835YOPE   C4A12306  11.175   7.624   7.465 -0.3364  0.4207  0.0352
  835YOPE   C1B12307  11.037   8.006   6.279  0.1925 -0.1178 -0.1229
  835YOPE   C2B12308  11.070   7.861   6.592 -0.1011 -0.0955  0.2116
  835YOPE   D3B12309  10.941   7.920   7.000  0.0158  0.3829 -0.0210
  835YOPE   C4B12310  10.854   7.981   7.444 -0.1041  0.0341  0.0719
  836YOPE   NH312311  15.595   8.412   5.378  0.0131 -0.0831 -0.0703
  836YOPE   PO412312  15.549   8.005   5.435  0.1688  0.2186  0.0279
  836YOPE   GL112313  15.391   8.133   5.839 -0.1102  0.0357 -0.0099
  836YOPE   GL212314  15.149   7.954   5.741 -0.0395  0.1592  0.0792
  836YOPE   C1A12315  15.567   8.193   6.135 -0.0584 -0.2077  0.0136
  836YOPE   D2A12316  15.646   8.165   6.544 -0.0345  0.4559  0.1216
  836YOPE   C3A12317  15.468   8.377   6.883 -0.1528 -0.0981  0.1419
  836YOPE   C4A12318  15.011   8.592   6.986 -0.1964  0.0176 -0.0779
  836YOPE   C1B12319  15.181   7.751   6.116  0.4333 -0.1568 -0.2070
  836YOPE   C2B12320  15.176   7.637   6.567  0.0818  0.1958  0.1137
  836YOPE   D3B12321  15.128   7.458   6.962  0.3005 -0.0620 -0.1270
  836YOPE   C4B12322  15.240   7.213   7.311  0.1005 -0.2084 -0.0190
  837YOPE   NH312323   8.522  14.109   5.954  0.2136 -0.0902 -0.0141
  837YOPE   PO412324   8.029  14.266   5.891  0.2014  0.1225  0.1046
  837YOPE   GL112325   8.120  14.241   6.268  0.1449  0.2652 -0.1760
  837YOPE   GL212326   7.978  14.505   6.352  0.0616  0.0531 -0.0893
  837YOPE   C1A12327   8.409  14.365   6.552  0.2007 -0.1451 -0.0491
  837YOPE   D2A12328   8.596  14.350   6.947 -0.1917  0.1538 -0.0429
  837YOPE   C3A12329   8.655  14.467   7.352  0.1088  0.1702 -0.0719
  837YOPE   C4A12330   8.411  14.779   7.611  0.2183  0.2830  0.0080
  837YOPE   C1B12331   7.881  14.733   6.712  0.2088  0.0643 -0.3265
  837YOPE   C2B12332   7.660  14.590   7.075 -0.0263  0.2663 -0.0400
  837YOPE   D3B12333   7.413  14.242   7.191  0.2190 -0.1442  0.1484
  837YOPE   C4B12334   7.343  14.140   7.585 -0.0771 -0.0246  0.0612
  838YOPE   NH312335  16.047   0.982   5.573 -0.2545 -0.2571  0.1294
  838YOPE   PO412336  16.141   0.540   5.657 -0.4605 -0.0711 -0.2008
  838YOPE   GL112337  16.181   0.901   6.054  0.1114 -0.4070  0.3311
  838YOPE   GL212338  16.306   1.283   5.884 -0.0190 -0.0291  0.3693
  838YOPE   C1A12339  16.400   0.752   6.360  0.2202 -0.0046 -0.0910
  838YOPE   D2A12340  16.428   0.560   6.714  0.1243 -0.1528  0.0150
  838YOPE   C3A12341  15.993   0.462   6.801  0.4743  0.0496 -0.0528
  838YOPE   C4A12342  15.759   0.044   7.032  0.0044 -0.1642  0.0473
  838YOPE   C1B12343  16.267   1.261   6.362 -0.0815  0.0767 -0.1204
  838YOPE   C2B12344  16.010   1.135   6.730 -0.4060  0.0579  0.2290
  838YOPE   D3B12345  15.713   0.872   7.032  0.2285 -0.0351 -0.2086
  838YOPE   C4B12346  15.528   0.497   7.041 -0.2724  0.0746  0.0690
  839YOPE   NH312347   3.075  18.989   5.767  0.0228  0.0523  0.3995
  839YOPE   PO412348   2.824  18.566   5.667 -0.1955 -0.4534 -0.1858
  839YOPE   GL112349   2.667  18.622   6.007 -0.1518 -0.2474 -0.1574
  839YOPE   GL212350   2.822  18.881   6.166  0.3392  0.3022  0.0169
  839YOPE   C1A12351   2.394  18.437   6.269  0.2246 -0.0263 -0.2354
  839YOPE   D2A12352   2.509  18.139   6.626 -0.0900  0.0750  0.0559
  839YOPE   C3A12353   2.628  18.178   7.092  0.1399 -0.0550  0.1992
  839YOPE   C4A12354   2.776  18.363   7.341  0.1005 -0.0541  0.3656
  839YOPE   C1B12355   2.785  18.996   6.600  0.3221  0.3265 -0.1867
  839YOPE   C2B12356   2.662  19.100   6.966 -0.0135 -0.0006  0.2295
  839YOPE   D3B12357   2.754  18.827   7.230  0.0838  0.0084  0.1019
  839YOPE   C4B12358   2.502  18.725   7.588 -0.4737 -0.1064  0.4694
  840YOPE   NH312359  10.894   9.040   5.290  0.3177  0.0694  0.3644
  840YOPE   PO412360  10.695   9.248   5.632 -0.0758  0.1325  0.0572
  840YOPE   GL112361  10.950   9.043   5.794  0.2741 -0.0656 -0.3558
  840YOPE   GL212362  11.017   9.209   6.077  0.1525  0.2022 -0.1804
  840YOPE   C1A12363  11.061   8.753   6.237 -0.1391  0.2393  0.0473
  840YOPE   D2A12364  11.166   8.929   6.650 -0.1115 -0.0600  0.1808
  840YOPE   C3A12365  10.988   8.970   7.093 -0.1488 -0.1379  0.0983
  840YOPE   C4A12366  10.866   9.100   7.449  0.0017 -0.0067 -0.1496
  840YOPE   C1B12367  10.714   9.115   6.423  0.1000 -0.2008  0.0820
  840YOPE   C2B12368  10.533   9.069   6.848  0.1603 -0.0242  0.1871
  840YOPE   D3B12369  10.584   9.316   7.057  0.1928  0.1447 -0.2231
  840YOPE   C4B12370  10.358   9.377   7.350 -0.0248 -0.1904 -0.0985
  841YOPE   NH312371   5.704  10.363   5.364 -0.2022 -0.1275  0.2407
  841YOPE   PO412372   5.983  10.117   5.570  0.2167 -0.2648  0.0687
  841YOPE   GL112373   5.905  10.015   5.893  0.1344  0.3002  0.0756
  841YOPE   GL212374   5.891  10.281   6.062  0.0412 -0.0090 -0.0955
  841YOPE   C1A12375   6.252  10.059   6.221 -0.4491  0.0648 -0.4110
  841YOPE   D2A12376   6.614   9.934   6.406  0.0352 -0.1728 -0.1404
  841YOPE   C3A12377   6.658   9.632   6.697 -0.2635 -0.1644  0.0975
  841YOPE   C4A12378   6.385   9.415   7.037  0.5725 -0.0043 -0.2957
  841YOPE   C1B12379   5.870  10.161   6.520 -0.0981  0.2053 -0.2357
  841YOPE   C2B12380   5.784  10.147   6.953 -0.0540  0.0197  0.0640
  841YOPE   D3B12381   5.926   9.947   7.316  0.0286  0.4014 -0.1884
  841YOPE   C4B12382   6.174   9.776   7.513  0.0755  0.0268  0.0377
  842YOPE   NH312383  18.293   4.473   5.125  0.0792 -0.0413  0.0515
  842YOPE   PO412384  18.393   4.771   5.451 -0.0288  0.0550  0.2117
  842YOPE   GL112385  18.350   4.595   5.835 -0.1434 -0.0118  0.0936
  842YOPE   GL212386  18.610   4.389   5.976 -0.0302  0.0564  0.0136
  842YOPE   C1A12387  18.020   4.346   5.910  0.2166 -0.1087  0.1662
  842YOPE   D2A12388  17.533   4.309   6.078 -0.2456  0.1327 -0.2102
  842YOPE   C3A12389  17.083   4.536   6.129 -0.0187 -0.1407 -0.1281
  842YOPE   C4A12390  16.727   4.590   6.315  0.0114  0.3053  0.0321
  842YOPE   C1B12391  18.301   4.397   6.320 -0.2355 -0.1518  0.0668
  842YOPE   C2B12392  18.150   4.069   6.620  0.0053 -0.2792  0.2906
  842YOPE   D3B12393  17.858   3.827   6.898 -0.1620 -0.0909  0.0001
  842YOPE   C4B12394  17.369   3.817   6.980 -0.3139  0.0797  0.0589
  843YOPE   NH312395  18.829  11.839   5.139  0.0238 -0.0675 -0.0303
  843YOPE   PO412396  18.688  11.535   5.440  0.0572  0.2631  0.2522
  843YOPE   GL112397  18.781  11.774   5.717  0.1011  0.0994 -0.0147
  843YOPE   GL212398  19.149  11.749   5.770  0.2092 -0.3360  0.0188
  843YOPE   C1A12399  18.775  11.628   6.209 -0.1576  0.0328  0.0275
  843YOPE   D2A12400  19.117  11.418   6.363 -0.0776  0.1177  0.2911
  843YOPE   C3A12401  19.448  11.482   6.432  0.2097 -0.1253  0.1510
  843YOPE   C4A12402  19.871  11.586   6.256 -0.0632 -0.1173 -0.3144
  843YOPE   C1B12403  19.227  11.885   6.200  0.1113 -0.3296 -0.5631
  843YOPE   C2B12404  19.569  11.985   6.517  0.0572 -0.0711 -0.0332
  843YOPE   D3B12405  19.781  12.308   6.732 -0.1939  0.2413 -0.1341
  843YOPE   C4B12406  20.036  12.647   6.902 -0.1372 -0.1862 -0.1402
  844YOPE   NH312407   2.113  13.229   5.114 -0.1199 -0.2173 -0.0430
  844YOPE   PO412408   1.920  12.963   5.377 -0.0453  0.0921 -0.0444
  844YOPE   GL112409   1.843  12.821   5.787 -0.0117  0.0080  0.0427
  844YOPE   GL212410   1.790  12.475   5.825  0.1765 -0.0163  0.3093
  844YOPE   C1A12411   1.608  12.766   6.289  0.1242  0.0527 -0.0275
  844YOPE   D2A12412   1.457  12.891   6.687 -0.4816  0.1901  0.0373
  844YOPE   C3A12413   1.136  13.100   6.759 -0.0079  0.1872 -0.3370
  844YOPE   C4A12414   0.877  13.469   6.929 -0.0641 -0.0552  0.1794
  844YOPE   C1B12415   2.028  12.444   6.120 -0.1389  0.1062  0.1391
  844YOPE   C2B12416   2.182  12.168   6.385 -0.0162 -0.0524 -0.4143
  844YOPE   D3B12417   2.168  11.935   6.769 -0.0243  0.2153  0.1953
  844YOPE   C4B12418   2.044  11.709   7.057  0.1608 -0.0347  0.0108
  845YOPE   NH312419   7.644   5.539   5.495  0.4375 -0.0356 -0.1955
  845YOPE   PO412420   8.039   5.525   5.317 -0.1000 -0.0346  0.2222
  845YOPE   GL112421   8.100   5.707   5.677 -0.2678 -0.1522 -0.1363
  845YOPE   GL212422   7.982   5.471   5.955 -0.1993 -0.0815  0.0530
  845YOPE   C1A12423   8.083   5.912   6.017  0.2885 -0.4656  0.2033
  845YOPE   D2A12424   7.929   6.073   6.454 -0.2661  0.1095 -0.2838
  845YOPE   C3A12425   7.674   6.460   6.523  0.2282 -0.0219 -0.0305
  845YOPE   C4A12426   7.630   6.744   6.303  0.1877  0.1310 -0.2526
  845YOPE   C1B12427   7.994   5.560   6.351  0.1077 -0.1562 -0.0390
  845YOPE   C2B12428   8.166   5.688   6.681  0.1673 -0.0141 -0.1885
  845YOPE   D3B12429   8.066   6.069   7.019  0.2710  0.1274 -0.3443
  845YOPE   C4B12430   7.982   6.206   7.462  0.0995 -0.5572  0.0070
  846YOPE   NH312431   1.590  10.048   5.433 -0.1042  0.2022 -0.1565
  846YOPE   PO412432   1.297   9.586   5.548  0.1500 -0.4791 -0.0664
  846YOPE   GL112433   1.463   9.340   5.750 -0.0014  0.2015 -0.1935
  846YOPE   GL212434   1.602   8.984   5.757  0.0490  0.3894 -0.2303
  846YOPE   C1A12435   1.462   9.292   6.180 -0.0703  0.0304  0.2982
  846YOPE   D2A12436   1.393   9.210   6.655  0.3732  0.1654 -0.3003
  846YOPE   C3A12437   1.580   8.957   6.838  0.0146  0.5563  0.3532
  846YOPE   C4A12438   1.609   8.729   7.157 -0.0485  0.0568  0.2077
  846YOPE   C1B12439   1.645   8.838   6.228  0.0778 -0.0634 -0.1685
  846YOPE   C2B12440   1.204   8.767   6.423 -0.1694  0.0296 -0.0067
  846YOPE   D3B12441   1.001   8.844   6.831  0.1744 -0.0694  0.0011
  846YOPE   C4B12442   1.127   9.153   7.086 -0.1564 -0.3818  0.0588
  847YOPE   NH312443  13.962   7.041   5.271  0.0510  0.1097 -0.4222
  847YOPE   PO412444  14.128   7.414   5.154 -0.0253 -0.2523  0.2248
  847YOPE   GL112445  14.148   7.515   5.530 -0.1839 -0.0828 -0.1421
  847YOPE   GL212446  14.355   7.580   5.795 -0.3074  0.4611  0.2489
  847YOPE   C1A12447  13.963   7.361   5.965  0.0177 -0.1670  0.0525
  847YOPE   D2A12448  13.848   7.094   6.200  0.3389 -0.1640 -0.3972
  847YOPE   C3A12449  13.773   7.165   6.698  0.1705  0.2862  0.0585
  847YOPE   C4A12450  13.606   6.983   7.034  0.0691  0.0251  0.1537
  847YOPE   C1B12451  14.263   7.684   6.237 -0.0713  0.1690 -0.1660
  847YOPE   C2B12452  13.971   7.553   6.450 -0.0352 -0.2025 -0.5253
  847YOPE   D3B12453  13.741   7.610   6.834  0.1407 -0.1783 -0.2110
  847YOPE   C4B12454  13.677   7.478   7.153 -0.0553  0.3414  0.0093
  848YOPE   NH312455   7.633  10.808   5.632 -0.3316 -0.1953 -0.1303
  848YOPE   PO412456   8.096  10.891   5.568 -0.0685 -0.1523 -0.0638
  848YOPE   GL112457   8.004  10.776   5.943  0.3050  0.2523 -0.3809
  848YOPE   GL212458   8.125  10.451   6.044  0.3423 -0.2168  0.3040
  848YOPE   C1A12459   7.768  11.047   6.233  0.2185  0.1642 -0.1024
  848YOPE   D2A12460   7.431  11.149   6.477 -0.1024 -0.3787 -0.0587
  848YOPE   C3A12461   7.191  10.840   6.611  0.0817  0.3584 -0.0093
  848YOPE   C4A12462   7.242  10.362   6.757 -0.1785  0.1334 -0.0911
  848YOPE   C1B12463   8.295  10.155   6.339  0.1462 -0.1300  0.2674
  848YOPE   C2B12464   8.631   9.891   6.528 -0.2291 -0.0887 -0.0451
  848YOPE   D3B12465   8.832   9.560   6.573  0.0270  0.0239 -0.0841
  848YOPE   C4B12466   8.825   9.205   6.370 -0.4656 -0.0102 -0.0307
  849YOPE   NH312467   7.194   3.345   5.845  0.2060 -0.0073 -0.0156
  849YOPE   PO412468   7.386   3.709   5.938 -0.0093 -0.2432 -0.1137
  849YOPE   GL112469   7.429   4.014   6.312 -0.0441  0.1929  0.1752
  849YOPE   GL212470   7.180   4.248   6.417 -0.1630 -0.1484 -0.2111
  849YOPE   C1A12471   7.663   4.069   6.567  0.1519 -0.2689 -0.0645
  849YOPE   D2A12472   8.028   4.314   6.630  0.0204 -0.1564  0.2182
  849YOPE   C3A12473   8.296   4.363   6.268  0.1373  0.0631 -0.0231
  849YOPE   C4A12474   8.521   4.289   5.962 -0.1318 -0.0150 -0.1046
  849YOPE   C1B12475   7.010   4.262   6.769  0.0109  0.2124 -0.2615
  849YOPE   C2B12476   6.691   4.371   7.031  0.3348  0.1170 -0.0490
  849YOPE   D3B12477   6.514   4.506   7.472  0.0526  0.3238  0.1698
  849YOPE   C4B12478   6.132   4.571   7.809 -0.3109  0.0546 -0.0007
  850YOPE   NH312479   5.599   1.592   5.868 -0.5233 -0.1725  0.1708
  850YOPE   PO412480   5.737   1.294   5.916  0.1443 -0.2796 -0.1914
  850YOPE   GL112481   5.731   1.313   6.378 -0.0451  0.0645  0.3872
  850YOPE   GL212482   5.839   0.976   6.448  0.0877 -0.2504  0.1074
  850YOPE   C1A12483   5.851   1.547   6.807  0.0357  0.2080  0.0779
  850YOPE   D2A12484   5.715   1.595   7.258  0.0118 -0.1413  0.0637
  850YOPE   C3A12485   5.893   1.845   7.521 -0.0166 -0.5511  0.2264
  850YOPE   C4A12486   5.801   2.294   7.705 -0.0785  0.0030 -0.0373
  850YOPE   C1B12487   6.166   1.073   6.784  0.2938 -0.1367 -0.2367
  850YOPE   C2B12488   6.192   1.224   7.279 -0.0745  0.1870 -0.1313
  850YOPE   D3B12489   6.037   1.367   7.581  0.2109 -0.0959 -0.1554
  850YOPE   C4B12490   6.230   1.608   7.890 -0.1323  0.1556 -0.1618
  851YOPE   NH312491   2.103  10.944   5.192  0.2306 -0.2844 -0.3673
  851YOPE   PO412492   2.508  10.986   5.061 -0.0994 -0.1502  0.0624
  851YOPE   GL112493   2.516  10.812   5.510  0.2998 -0.2029  0.1659
  851YOPE   GL212494   2.783  10.840   5.726  0.2030  0.0654 -0.0009
  851YOPE   C1A12495   2.309  11.026   5.798  0.0074  0.1157 -0.0490
  851YOPE   D2A12496   2.339  11.241   6.128  0.3607 -0.5098 -0.2057
  851YOPE   C3A12497   2.553  11.018   6.537 -0.1458  0.2499 -0.3580
  851YOPE   C4A12498   2.471  10.811   6.995  0.2553  0.1109 -0.2630
  851YOPE   C1B12499   2.555  10.664   6.158 -0.0697  0.0157 -0.1546
  851YOPE   C2B12500   2.515  10.539   6.535  0.0708 -0.0205  0.3220
  851YOPE   D3B12501   2.233  10.489   6.712  0.4946  0.0599 -0.1274
  851YOPE   C4B12502   1.867  10.437   6.894 -0.1587  0.1574  0.0568
  852YOPE   NH312503   5.357   5.577   5.545 -0.1141  0.1715 -0.0086
  852YOPE   PO412504   5.354   6.093   5.597 -0.1310 -0.3135 -0.1736
  852YOPE   GL112505   5.488   6.181   5.976 -0.1889  0.0953 -0.1375
  852YOPE   GL212506   5.321   6.472   6.121 -0.2555 -0.3888  0.0288
  852YOPE   C1A12507   5.697   6.045   6.305  0.2067  0.0121  0.1064
  852YOPE   D2A12508   5.663   5.773   6.696  0.4392  0.0301 -0.0389
  852YOPE   C3A12509   5.857   5.768   7.112  0.1931  0.0868  0.2895
  852YOPE   C4A12510   6.156   5.511   7.278 -0.3206  0.2655  0.0855
  852YOPE   C1B12511   5.150   6.516   6.476 -0.0707 -0.0204  0.0080
  852YOPE   C2B12512   4.938   6.488   6.996 -0.4932  0.0547 -0.0672
  852YOPE   D3B12513   4.452   6.431   7.101 -0.4480  0.1260 -0.0681
  852YOPE   C4B12514   4.123   6.404   7.334 -0.0673  0.1989 -0.2833
  853YOPE   NH312515  15.342   6.694   5.241 -0.0104 -0.0834  0.1005
  853YOPE   PO412516  15.761   6.915   5.227  0.5641 -0.2450  0.0747
  853YOPE   GL112517  15.850   6.883   5.590  0.0358  0.1536  0.0755
  853YOPE   GL212518  15.889   7.200   5.752  0.2428 -0.3157  0.0225
  853YOPE   C1A12519  16.207   6.739   5.697  0.0223 -0.2698  0.3400
  853YOPE   D2A12520  16.345   6.510   6.044  0.2894 -0.1424  0.3998
  853YOPE   C3A12521  16.248   6.714   6.434  0.4101 -0.3005  0.2733
  853YOPE   C4A12522  16.329   6.608   6.771 -0.1418  0.1564 -0.1934
  853YOPE   C1B12523  16.082   7.110   6.144 -0.0335 -0.4634  0.0915
  853YOPE   C2B12524  16.070   7.213   6.514  0.2776  0.2359 -0.1331
  853YOPE   D3B12525  15.979   7.061   6.993  0.0458 -0.2758 -0.0010
  853YOPE   C4B12526  16.111   6.856   7.324 -0.1782  0.0489 -0.3779
  854YOPE   NH312527   3.054  15.402   5.403  0.1614  0.0664  0.0301
  854YOPE   PO412528   3.127  15.834   5.539  0.0165 -0.0151  0.2782
  854YOPE   GL112529   2.942  15.950   5.767  0.2339 -0.1403  0.3493
  854YOPE   GL212530   2.733  16.080   5.677  0.0150 -0.0847 -0.2479
  854YOPE   C1A12531   3.009  15.785   6.206  0.0483  0.3074 -0.0859
  854YOPE   D2A12532   3.127  15.410   6.386 -0.2180  0.0697 -0.1110
  854YOPE   C3A12533   3.452  15.702   6.563 -0.1351 -0.0666  0.0763
  854YOPE   C4A12534   3.763  15.714   6.193  0.1278  0.0740 -0.0490
  854YOPE   C1B12535   2.542  16.167   6.025 -0.0976  0.0141 -0.0280
  854YOPE   C2B12536   2.273  16.002   6.355  0.3344 -0.1551  0.2218
  854YOPE   D3B12537   2.438  15.810   6.790  0.4706 -0.1084 -0.0458
  854YOPE   C4B12538   2.238  15.865   7.167  0.1554 -0.1646  0.0930
  855YOPE   NH312539  14.802   4.816   4.992 -0.0808 -0.3769  0.0865
  855YOPE   PO412540  15.012   4.449   5.202  0.0967  0.1643 -0.1370
  855YOPE   GL112541  15.083   4.724   5.600  0.1933 -0.4340 -0.1642
  855YOPE   GL212542  14.887   4.946   5.831  0.0691  0.1016  0.2037
  855YOPE   C1A12543  15.255   4.599   5.956  0.1126  0.1420 -0.1503
  855YOPE   D2A12544  15.152   4.654   6.365  0.1903  0.2940  0.3848
  855YOPE   C3A12545  15.422   4.939   6.664  0.1541 -0.0846 -0.2172
  855YOPE   C4A12546  15.477   4.847   7.142 -0.0175 -0.0329  0.3316
  855YOPE   C1B12547  14.749   4.589   5.988 -0.1405  0.1019  0.3172
  855YOPE   C2B12548  14.749   4.350   6.269  0.0463 -0.1088 -0.0002
  855YOPE   D3B12549  14.637   3.933   6.446 -0.2424 -0.0993  0.1174
  855YOPE   C4B12550  14.150   3.667   6.617 -0.2078  0.0778 -0.3621
  856YOPE   NH312551   4.462   2.488   5.908 -0.0194  0.0056  0.0855
  856YOPE   PO412552   4.498   2.883   5.688  0.1398  0.4746  0.0581
  856YOPE   GL112553   4.649   2.922   6.063  0.0521  0.3223  0.0319
  856YOPE   GL212554   4.924   2.838   6.099  0.1869 -0.2967  0.0520
  856YOPE   C1A12555   4.734   3.008   6.523  0.0017  0.1969  0.1034
  856YOPE   D2A12556   4.659   3.087   6.905  0.0892  0.2087  0.2315
  856YOPE   C3A12557   4.828   2.866   7.189  0.0448  0.0886 -0.0596
  856YOPE   C4A12558   4.866   2.568   7.320  0.1620 -0.1076 -0.0070
  856YOPE   C1B12559   5.088   2.672   6.448  0.1966  0.3324  0.1044
  856YOPE   C2B12560   5.056   2.618   6.850  0.1738  0.0582  0.0696
  856YOPE   D3B12561   5.349   2.843   7.150  0.0136 -0.0672  0.1265
  856YOPE   C4B12562   5.407   2.668   7.469  0.1656 -0.2442  0.2113
  857YOPE   NH312563  16.982   5.488   5.478  0.3767  0.5168 -0.0351
  857YOPE   PO412564  17.190   5.126   5.554 -0.1051 -0.0927 -0.0397
  857YOPE   GL112565  17.414   5.361   5.757 -0.1028 -0.0744 -0.1947
  857YOPE   GL212566  17.324   5.028   6.005 -0.3177  0.0855 -0.0306
  857YOPE   C1A12567  17.547   5.403   6.262  0.2348 -0.1911  0.0552
  857YOPE   D2A12568  17.798   5.179   6.721 -0.2393  0.3023 -0.1904
  857YOPE   C3A12569  17.838   4.922   7.079  0.2016 -0.0894 -0.1139
  857YOPE   C4A12570  17.321   4.858   7.120 -0.1805  0.0351 -0.1110
  857YOPE   C1B12571  17.100   5.067   6.334 -0.3710  0.2085 -0.4100
  857YOPE   C2B12572  17.078   4.775   6.695 -0.0873  0.3464 -0.0505
  857YOPE   D3B12573  16.782   4.424   6.829  0.2299  0.0071 -0.4099
  857YOPE   C4B12574  16.757   4.172   7.246 -0.1272 -0.3115 -0.2099
  858YOPE   NH312575   0.198   5.405   5.314  0.2268  0.2517  0.1374
  858YOPE   PO412576   0.017   5.570   5.743 -0.1853 -0.0452  0.2278
  858YOPE   GL112577  -0.195   5.353   6.094  0.1041 -0.1490  0.4735
  858YOPE   GL212578   0.081   5.221   6.190  0.1836  0.1369 -0.3356
  858YOPE   C1A12579  -0.564   5.210   6.135  0.1220 -0.0210  0.0070
  858YOPE   D2A12580  -0.734   4.867   6.344  0.0374 -0.1413  0.0240
  858YOPE   C3A12581  -0.871   4.781   6.715  0.2436  0.0333 -0.0509
  858YOPE   C4A12582  -0.770   4.744   7.046  0.2833 -0.2114  0.0546
  858YOPE   C1B12583   0.397   5.253   6.481  0.1519  0.0064 -0.1665
  858YOPE   C2B12584   0.590   5.436   6.690 -0.0321 -0.0525 -0.0093
  858YOPE   D3B12585   0.598   5.639   7.026  0.0208 -0.0243  0.0112
  858YOPE   C4B12586   0.447   6.031   7.255 -0.0436 -0.2288 -0.1075
  859YOPE   NH312587  12.700  15.931   5.846 -0.1217  0.0479  0.0322
  859YOPE   PO412588  12.559  16.243   5.850  0.0334  0.0356  0.2164
  859YOPE   GL112589  12.708  16.252   6.278  0.1901 -0.1561 -0.2916
  859YOPE   GL212590  12.795  15.980   6.370 -0.0136  0.0309 -0.1638
  859YOPE   C1A12591  12.867  16.440   6.646  0.0001 -0.0202 -0.0472
  859YOPE   D2A12592  13.061  16.575   6.988  0.0946  0.1158 -0.2303
  859YOPE   C3A12593  13.188  16.667   7.254  0.3280  0.2430 -0.3317
  859YOPE   C4A12594  13.455  16.510   7.471  0.4044 -0.0381 -0.0535
  859YOPE   C1B12595  12.986  15.985   6.845 -0.0735  0.2593 -0.1195
  859YOPE   C2B12596  13.191  16.129   7.250 -0.1677  0.0087 -0.1155
  859YOPE   D3B12597  13.564  15.983   7.380 -0.3682 -0.2576  0.3162
  859YOPE   C4B12598  13.828  15.971   7.771 -0.0961  0.0065  0.2871
  860YOPE   NH312599   9.503  15.474   5.275 -0.0691 -0.2562  0.0202
  860YOPE   PO412600   9.705  15.871   5.443 -0.1642  0.1459  0.0099
  860YOPE   GL112601   9.782  15.699   5.971 -0.1676 -0.0157 -0.0813
  860YOPE   GL212602   9.630  15.876   6.007 -0.2558 -0.3874 -0.1311
  860YOPE   C1A12603  10.004  15.639   6.291  0.2956 -0.1062 -0.0044
  860YOPE   D2A12604  10.318  15.724   6.464 -0.1430 -0.0623 -0.2696
  860YOPE   C3A12605  10.478  15.688   6.890 -0.0086  0.1541  0.0413
  860YOPE   C4A12606  10.542  15.655   7.281  0.1713 -0.1359 -0.3313
  860YOPE   C1B12607   9.824  16.036   6.461 -0.1629  0.0379 -0.2383
  860YOPE   C2B12608   9.596  15.845   6.836  0.3368  0.5124 -0.0700
  860YOPE   D3B12609   9.552  15.508   7.119 -0.1800  0.2626  0.2812
  860YOPE   C4B12610   9.617  15.290   7.543 -0.0419 -0.0074 -0.2264
  861YOPE   NH312611   6.600   3.102   5.611  0.0050  0.2848 -0.1702
  861YOPE   PO412612   6.713   3.190   6.034 -0.1055 -0.1616 -0.0062
  861YOPE   GL112613   6.962   3.562   6.213  0.3465 -0.0595  0.1889
  861YOPE   GL212614   6.868   3.861   6.074  0.0646  0.0289  0.0201
  861YOPE   C1A12615   7.155   3.699   6.593  0.3389 -0.0921  0.1603
  861YOPE   D2A12616   7.317   3.839   6.891 -0.1413 -0.2560 -0.1290
  861YOPE   C3A12617   6.979   3.913   7.184 -0.1347  0.0939 -0.2285
  861YOPE   C4A12618   6.783   4.055   7.531  0.2668 -0.0258  0.0538
  861YOPE   C1B12619   6.702   3.910   6.457 -0.0002  0.4218  0.1377
  861YOPE   C2B12620   6.451   3.884   6.790  0.3653 -0.0894  0.1525
  861YOPE   D3B12621   6.351   4.042   7.292 -0.0734  0.3148  0.1975
  861YOPE   C4B12622   6.290   4.085   7.670 -0.0356  0.0482  0.1949
  862YOPE   NH312623   1.802  15.174   5.276  0.1478 -0.1226 -0.0233
  862YOPE   PO412624   1.932  14.810   5.242  0.3859  0.1766 -0.0160
  862YOPE   GL112625   1.893  14.712   5.617  0.4398 -0.0394 -0.0627
  862YOPE   GL212626   1.834  14.460   5.734 -0.2574  0.1066 -0.0913
  862YOPE   C1A12627   2.191  14.873   5.951 -0.0982  0.0114 -0.0729
  862YOPE   D2A12628   2.356  15.115   6.238  0.2140 -0.2024 -0.1437
  862YOPE   C3A12629   2.177  14.970   6.567  0.1438 -0.0270 -0.1163
  862YOPE   C4A12630   2.273  14.718   6.892  0.0621  0.2819  0.1218
  862YOPE   C1B12631   1.687  14.293   6.146  0.0064  0.2440  0.0439
  862YOPE   C2B12632   1.438  14.126   6.342 -0.1521 -0.1207  0.0782
  862YOPE   D3B12633   1.378  14.063   6.810  0.0787  0.0349  0.3001
  862YOPE   C4B12634   1.642  13.952   7.074  0.1481 -0.2235 -0.2907
  863YOPE   NH312635  16.900   2.220   5.041  0.0328 -0.0332 -0.1390
  863YOPE   PO412636  16.718   2.076   5.391  0.0085 -0.0915 -0.1201
  863YOPE   GL112637  16.619   2.040   5.840  0.0901  0.1767 -0.1877
  863YOPE   GL212638  16.786   2.309   5.826  0.0320  0.1718 -0.2212
  863YOPE   C1A12639  16.301   1.787   6.047  0.4056  0.1098 -0.3655
  863YOPE   D2A12640  15.992   1.715   6.365  0.3831  0.1749 -0.0025
  863YOPE   C3A12641  15.997   1.569   6.877 -0.0223  0.1274 -0.0860
  863YOPE   C4A12642  16.016   1.428   7.348  0.1663  0.0460  0.0705
  863YOPE   C1B12643  16.838   2.287   6.231  0.1802  0.2991  0.1469
  863YOPE   C2B12644  16.829   2.254   6.689  0.0478  0.0115  0.1026
  863YOPE   D3B12645  16.802   1.881   6.909 -0.0454 -0.0612  0.1700
  863YOPE   C4B12646  16.703   1.703   7.261 -0.1173 -0.0197  0.0417
  864YOPE   NH312647   5.036  15.156   5.710  0.0427 -0.0027 -0.0377
  864YOPE   PO412648   5.404  14.839   5.482 -0.3436 -0.0752  0.3092
  864YOPE   GL112649   5.472  14.823   5.942 -0.3889 -0.2232 -0.0929
  864YOPE   GL212650   5.705  15.039   5.996  0.0229 -0.5124  0.2380
  864YOPE   C1A12651   5.375  15.003   6.389 -0.0545  0.1473  0.2015
  864YOPE   D2A12652   5.214  15.123   6.790 -0.1054  0.1884  0.0609
  864YOPE   C3A12653   5.356  15.000   7.251 -0.2067 -0.0459 -0.1117
  864YOPE   C4A12654   5.604  14.976   7.677 -0.1314 -0.1458  0.0191
  864YOPE   C1B12655   5.749  15.299   6.378  0.0124 -0.0151 -0.3385
  864YOPE   C2B12656   5.579  15.407   6.722  0.0595  0.0373  0.1747
  864YOPE   D3B12657   5.581  15.453   7.089  0.1815 -0.1347 -0.4359
  864YOPE   C4B12658   5.493  15.527   7.462  0.2359 -0.0373 -0.0422
  865YOPE   NH312659   3.965  16.849   5.849  0.0199  0.0097 -0.1453
  865YOPE   PO412660   3.558  17.013   5.738 -0.1570  0.1630 -0.0897
  865YOPE   GL112661   3.397  17.250   5.952 -0.1047 -0.0676  0.1210
  865YOPE   GL212662   3.101  17.040   6.030 -0.1109 -0.1856  0.0671
  865YOPE   C1A12663   3.091  17.719   5.868  0.2077 -0.5039  0.2999
  865YOPE   D2A12664   3.154  18.101   5.888 -0.0799 -0.0683  0.1110
  865YOPE   C3A12665   2.994  18.268   6.135  0.2570  0.0123  0.0153
  865YOPE   C4A12666   2.851  18.511   6.513 -0.2004  0.1359 -0.0885
  865YOPE   C1B12667   3.486  16.887   6.323 -0.1959 -0.1406  0.1322
  865YOPE   C2B12668   3.687  16.834   6.719 -0.0575 -0.2335  0.1830
  865YOPE   D3B12669   4.045  17.051   7.019  0.1903 -0.1090 -0.1880
  865YOPE   C4B12670   3.905  17.377   7.252  0.3389  0.0811 -0.1315
  866YOPE   NH312671   1.039   4.231   5.837  0.2460  0.1529  0.3492
  866YOPE   PO412672   1.596   4.250   5.890 -0.1219  0.0263  0.1946
  866YOPE   GL112673   1.423   3.948   6.267  0.1178 -0.1649  0.3095
  866YOPE   GL212674   1.012   4.011   6.263  0.0046 -0.1486 -0.1097
  866YOPE   C1A12675   1.284   3.909   6.651  0.0573  0.2237 -0.1885
  866YOPE   D2A12676   0.895   3.633   6.634  0.5635  0.1693 -0.0565
  866YOPE   C3A12677   0.602   3.762   6.909 -0.0120  0.2969  0.2180
  866YOPE   C4A12678   0.499   3.743   7.221 -0.3560  0.1412  0.0909
  866YOPE   C1B12679   0.607   3.927   6.358 -0.1911  0.2894 -0.0405
  866YOPE   C2B12680   0.306   4.130   6.567 -0.1346  0.1175 -0.1080
  866YOPE   D3B12681  -0.129   4.157   6.714 -0.0867 -0.2593 -0.0275
  866YOPE   C4B12682  -0.496   4.376   6.895  0.0349  0.1530 -0.1645
  867YOPE   NH312683   4.747  15.230   5.273  0.1309  0.0533  0.2156
  867YOPE   PO412684   4.598  15.426   5.628 -0.0795  0.4239  0.0757
  867YOPE   GL112685   4.615  15.527   6.084  0.0798  0.2816 -0.1116
  867YOPE   GL212686   4.812  15.268   6.168  0.1499  0.0638 -0.2619
  867YOPE   C1A12687   4.794  15.880   6.370 -0.2234 -0.2476 -0.0282
  867YOPE   D2A12688   4.853  16.223   6.538  0.1232 -0.1864 -0.1847
  867YOPE   C3A12689   4.791  16.189   6.989  0.0462 -0.1205 -0.2868
  867YOPE   C4A12690   4.931  16.427   7.344  0.2527 -0.3075 -0.3122
  867YOPE   C1B12691   4.486  15.054   6.215 -0.2420 -0.1943  0.0212
  867YOPE   C2B12692   4.197  14.867   6.479  0.2313 -0.3386  0.1285
  867YOPE   D3B12693   4.072  14.489   6.749  0.0132 -0.1324  0.5330
  867YOPE   C4B12694   4.408  14.177   6.826 -0.0003 -0.2350  0.2759
  868YOPE   NH312695   0.827   9.370   5.558 -0.1721 -0.3725 -0.0407
  868YOPE   PO412696   0.597   8.983   5.521 -0.2043 -0.0217 -0.0763
  868YOPE   GL112697   0.340   9.098   5.886  0.1185 -0.0850 -0.0592
  868YOPE   GL212698   0.029   9.261   5.903  0.0810 -0.0201  0.0776
  868YOPE   C1A12699   0.283   8.893   6.290  0.3146  0.0268 -0.1268
  868YOPE   D2A12700   0.314   8.431   6.313  0.1434 -0.0862  0.0338
  868YOPE   C3A12701   0.085   8.174   6.049 -0.0913  0.0962  0.0201
  868YOPE   C4A12702  -0.266   7.933   5.995  0.1443 -0.0526 -0.1099
  868YOPE   C1B12703   0.307   9.362   6.338 -0.1304 -0.0766  0.2918
  868YOPE   C2B12704   0.457   9.271   6.771  0.0619  0.3477 -0.4169
  868YOPE   D3B12705   0.513   9.455   7.156 -0.2847 -0.1387 -0.1904
  868YOPE   C4B12706   0.606   9.732   7.384  0.3568  0.2103  0.0998
  869YOPE   NH312707   8.560  18.035   5.409  0.2797  0.1266 -0.3764
  869YOPE   PO412708   9.006  18.151   5.722  0.0182 -0.2982  0.2517
  869YOPE   GL112709   8.961  18.299   6.007  0.2345 -0.0628  0.0521
  869YOPE   GL212710   8.888  18.590   5.918  0.1870 -0.1218 -0.3407
  869YOPE   C1A12711   9.149  18.626   6.305 -0.1669  0.0164 -0.1777
  869YOPE   D2A12712   9.205  18.603   6.784  0.0672  0.3623 -0.1904
  869YOPE   C3A12713   8.975  18.458   7.127  0.0908  0.0640 -0.2943
  869YOPE   C4A12714   8.790  18.041   7.255 -0.0473 -0.2270  0.0067
  869YOPE   C1B12715   8.605  18.639   6.271  0.3717  0.0726  0.1529
  869YOPE   C2B12716   8.797  18.829   6.625 -0.0174  0.1882  0.2444
  869YOPE   D3B12717   8.641  19.265   6.785  0.0896 -0.1566 -0.0977
  869YOPE   C4B12718   8.619  19.447   7.325 -0.1790  0.2118  0.0972
  870YOPE   NH312719   5.924   0.663   6.025  0.0400  0.4489 -0.2275
  870YOPE   PO412720   5.479   0.462   6.244 -0.0130  0.3523  0.1115
  870YOPE   GL112721   5.392   0.037   6.448  0.5001 -0.0458 -0.1476
  870YOPE   GL212722   5.113  -0.071   6.606  0.3946  0.0881  0.1364
  870YOPE   C1A12723   5.459  -0.313   6.786  0.4210  0.0650  0.0423
  870YOPE   D2A12724   5.381  -0.184   7.175 -0.1558  0.1505 -0.1137
  870YOPE   C3A12725   5.716  -0.064   7.361 -0.2192  0.0753 -0.0494
  870YOPE   C4A12726   5.902   0.319   7.241 -0.3004  0.1267 -0.0058
  870YOPE   C1B12727   4.957  -0.061   6.929  0.7283 -0.0128 -0.0627
  870YOPE   C2B12728   4.681  -0.383   7.132 -0.4460 -0.1655 -0.5350
  870YOPE   D3B12729   4.275  -0.362   7.327 -0.0226 -0.1790  0.1103
  870YOPE   C4B12730   3.954  -0.193   7.597  0.0813 -0.1071 -0.0614
  871YOPE   NH312731  15.976   8.121   5.146  0.2205  0.0630 -0.0807
  871YOPE   PO412732  16.162   7.730   5.273 -0.1556  0.0337 -0.0450
  871YOPE   GL112733  16.100   7.816   5.606  0.0274  0.0361  0.0920
  871YOPE   GL212734  15.883   8.105   5.755  0.0262 -0.0001 -0.0335
  871YOPE   C1A12735  16.261   7.663   6.025 -0.0377  0.3284  0.0200
  871YOPE   D2A12736  16.403   7.779   6.367 -0.2850 -0.3501 -0.1117
  871YOPE   C3A12737  16.449   7.482   6.752 -0.0657 -0.1504  0.1124
  871YOPE   C4A12738  16.473   7.126   7.038  0.1123  0.1465  0.0063
  871YOPE   C1B12739  16.012   8.093   6.243  0.0170  0.2684 -0.2491
  871YOPE   C2B12740  16.157   8.198   6.638  0.0027  0.4070 -0.0682
  871YOPE   D3B12741  16.348   7.941   6.840  0.1107  0.0195  0.0518
  871YOPE   C4B12742  16.503   7.865   7.224 -0.1043 -0.0548  0.1023
  872YOPE   NH312743  13.534  16.395   5.364 -0.0354  0.3064  0.0351
  872YOPE   PO412744  13.498  15.934   5.252  0.2343  0.1551  0.0920
  872YOPE   GL112745  13.537  15.949   5.716 -0.0106 -0.2022  0.1660
  872YOPE   GL212746  13.233  15.879   5.990 -0.1957  0.0723  0.1431
  872YOPE   C1A12747  13.645  16.132   6.051  0.1436 -0.2063 -0.1372
  872YOPE   D2A12748  13.965  16.165   6.379 -0.1292 -0.4078  0.1036
  872YOPE   C3A12749  13.910  15.958   6.657 -0.1063  0.1496  0.2507
  872YOPE   C4A12750  14.101  15.859   7.081 -0.0315 -0.0029 -0.0598
  872YOPE   C1B12751  13.270  15.443   6.131 -0.0103 -0.1004  0.1618
  872YOPE   C2B12752  13.400  15.226   6.429  0.1154 -0.2493 -0.1964
  872YOPE   D3B12753  13.371  15.077   6.958  0.2593  0.0663 -0.1079
  872YOPE   C4B12754  13.210  15.074   7.341 -0.2103  0.0635  0.1366
  873YOPE   NH312755  15.845  15.629   5.191  0.0737  0.0569 -0.0949
  873YOPE   PO412756  15.812  15.151   5.107 -0.2816 -0.0195  0.2596
  873YOPE   GL112757  15.826  15.253   5.546 -0.1427 -0.0291 -0.2685
  873YOPE   GL212758  16.166  15.264   5.664  0.1925  0.0144 -0.0581
  873YOPE   C1A12759  15.784  15.090   6.049  0.1447 -0.1863 -0.3886
  873YOPE   D2A12760  15.930  14.951   6.438 -0.2379 -0.0446 -0.3834
  873YOPE   C3A12761  15.896  14.983   6.824 -0.0781  0.0751  0.1025
  873YOPE   C4A12762  15.950  14.967   7.265  0.1090 -0.1742 -0.0127
  873YOPE   C1B12763  16.524  15.355   5.882 -0.4579  0.1872 -0.2718
  873YOPE   C2B12764  16.850  15.294   6.052  0.1633 -0.1790 -0.1444
  873YOPE   D3B12765  17.059  15.097   6.460 -0.2482 -0.2684  0.0545
  873YOPE   C4B12766  17.143  15.318   6.759  0.1642  0.1928 -0.1843
  874YOPE   NH312767   7.296  16.270   5.726  0.0165  0.2738 -0.1195
  874YOPE   PO412768   6.899  16.149   5.926  0.4153  0.1284 -0.0622
  874YOPE   GL112769   6.533  16.313   5.968 -0.0340  0.0381 -0.0976
  874YOPE   GL212770   6.607  16.526   6.043 -0.0024 -0.0261 -0.2712
  874YOPE   C1A12771   6.139  16.396   6.208  0.5099  0.1142  0.3251
  874YOPE   D2A12772   6.038  16.412   6.686 -0.1426 -0.1236 -0.0112
  874YOPE   C3A12773   5.602  16.419   6.790  0.3264 -0.3241 -0.1466
  874YOPE   C4A12774   5.193  16.605   6.967  0.2526  0.1081  0.2700
  874YOPE   C1B12775   6.682  16.600   6.470 -0.0533  0.1390  0.2400
  874YOPE   C2B12776   6.917  16.763   6.847 -0.1176  0.1291  0.2378
  874YOPE   D3B12777   7.160  16.994   6.952 -0.2793  0.0464  0.0273
  874YOPE   C4B12778   7.481  16.693   6.907  0.0701  0.2941 -0.0545
  875YOPE   NH312779   2.245   1.804   5.838  0.6481  0.0246  0.3758
  875YOPE   PO412780   2.120   2.007   6.200  0.2561 -0.1283  0.1252
  875YOPE   GL112781   1.983   2.090   6.584 -0.0831  0.2415 -0.1015
  875YOPE   GL212782   2.005   2.463   6.560  0.1784  0.0598 -0.2280
  875YOPE   C1A12783   1.989   2.236   7.025 -0.1387 -0.1382 -0.1990
  875YOPE   D2A12784   2.041   2.522   7.376  0.0496 -0.4204  0.1184
  875YOPE   C3A12785   2.458   2.651   7.474  0.0066 -0.1132 -0.1663
  875YOPE   C4A12786   2.781   2.596   7.741 -0.1043  0.1079  0.0009
  875YOPE   C1B12787   2.406   2.583   6.858 -0.0615 -0.0746 -0.0736
  875YOPE   C2B12788   2.655   2.403   7.129  0.1149  0.1643 -0.2628
  875YOPE   D3B12789   2.959   2.195   7.011  0.1582  0.1651  0.0528
  875YOPE   C4B12790   3.020   2.124   6.539  0.0616  0.0960 -0.1496
  876YOPE   NH312791   1.958  16.838   4.963  0.0227 -0.1085 -0.1510
  876YOPE   PO412792   2.294  16.692   5.067  0.0219  0.0578  0.1910
  876YOPE   GL112793   2.318  16.586   5.535 -0.0780  0.0839  0.2432
  876YOPE   GL212794   2.645  16.596   5.653 -0.2113 -0.0894  0.0053
  876YOPE   C1A12795   2.250  16.657   5.972 -0.1015  0.0943  0.1656
  876YOPE   D2A12796   2.370  16.509   6.428 -0.1243  0.0595  0.1027
  876YOPE   C3A12797   2.747  16.370   6.449 -0.2938  0.0239 -0.0602
  876YOPE   C4A12798   3.108  16.649   6.514 -0.0416  0.1837  0.3339
  876YOPE   C1B12799   2.795  16.650   6.074 -0.0742 -0.1850  0.2755
  876YOPE   C2B12800   2.716  16.945   6.380  0.0985  0.1071  0.1951
  876YOPE   D3B12801   2.717  17.261   6.712  0.1628 -0.1676  0.3168
  876YOPE   C4B12802   2.615  17.701   7.022  0.1536 -0.2739  0.0456
  877YOPE   NH312803   7.395   1.214   5.734  0.0869  0.0556 -0.0876
  877YOPE   PO412804   7.149   0.849   5.785  0.2714 -0.1462  0.0147
  877YOPE   GL112805   7.143   0.795   6.173  0.1213  0.0047 -0.2652
  877YOPE   GL212806   7.500   0.732   6.221  0.0926 -0.0533 -0.2163
  877YOPE   C1A12807   7.053   1.048   6.577 -0.0047  0.1275 -0.0572
  877YOPE   D2A12808   6.843   1.155   7.024  0.0373 -0.1242  0.1899
  877YOPE   C3A12809   6.675   1.128   7.336  0.1487  0.0769  0.1631
  877YOPE   C4A12810   6.543   1.318   7.658 -0.1549 -0.0346  0.0708
  877YOPE   C1B12811   7.590   0.721   6.617 -0.2155  0.3181  0.0519
  877YOPE   C2B12812   7.660   0.411   6.993  0.0766 -0.1724  0.1100
  877YOPE   D3B12813   7.842   0.058   7.193 -0.4792 -0.3146  0.0315
  877YOPE   C4B12814   8.151   0.156   7.520  0.0416 -0.0155  0.1907
  878YOPE   NH312815  18.564  18.992   5.601  0.1250 -0.3058  0.0998
  878YOPE   PO412816  19.031  18.779   5.582  0.1163  0.0270  0.1851
  878YOPE   GL112817  18.977  19.126   5.832  0.1759 -0.0562 -0.1491
  878YOPE   GL212818  18.698  19.405   5.887  0.3002  0.0461 -0.2511
  878YOPE   C1A12819  19.210  19.254   6.097 -0.1478  0.0108 -0.4375
  878YOPE   D2A12820  19.333  19.194   6.468  0.4203 -0.1099 -0.2371
  878YOPE   C3A12821  19.175  19.324   6.822  0.0019  0.1838 -0.0684
  878YOPE   C4A12822  19.064  19.557   7.114 -0.2220 -0.4791 -0.2600
  878YOPE   C1B12823  18.686  19.904   6.024  0.1140 -0.2877 -0.0106
  878YOPE   C2B12824  18.862  20.067   6.455 -0.3757  0.0175 -0.0879
  878YOPE   D3B12825  19.069  19.994   6.798 -0.2698  0.2176 -0.0886
  878YOPE   C4B12826  19.114  20.115   7.320 -0.0130  0.0414  0.2891
  879YOPE   NH312827  11.802   9.904   5.215 -0.1790  0.0160 -0.1125
  879YOPE   PO412828  11.362   9.735   5.254  0.1099  0.3834 -0.0944
  879YOPE   GL112829  11.274   9.827   5.659  0.1643  0.0677  0.4295
  879YOPE   GL212830  11.667   9.823   5.725 -0.0230  0.0298  0.0112
  879YOPE   C1A12831  11.064   9.882   6.021  0.1911  0.1608 -0.0627
  879YOPE   D2A12832  10.892   9.659   6.390  0.1056 -0.1464  0.0500
  879YOPE   C3A12833  11.166   9.907   6.677  0.2056 -0.0296  0.2028
  879YOPE   C4A12834  11.307  10.050   7.037 -0.2118  0.0347 -0.0114
  879YOPE   C1B12835  11.445   9.463   5.985 -0.1842  0.1216  0.2593
  879YOPE   C2B12836  11.358   9.514   6.406  0.3673 -0.2222 -0.1513
  879YOPE   D3B12837  11.199   9.372   6.858 -0.0993 -0.3369  0.2347
  879YOPE   C4B12838  10.973   9.543   7.186 -0.0097 -0.0921  0.0667
  880YOPE   NH312839  15.297   1.832   5.308 -0.2375 -0.0877 -0.1396
  880YOPE   PO412840  15.854   1.830   5.386  0.1795 -0.1326  0.2962
  880YOPE   GL112841  15.599   2.131   5.687  0.0100 -0.0495  0.0736
  880YOPE   GL212842  15.307   2.308   5.643 -0.0017 -0.0400 -0.2729
  880YOPE   C1A12843  15.699   2.134   6.118  0.1691  0.0392  0.0707
  880YOPE   D2A12844  16.031   2.238   6.315  0.1437  0.2364  0.2372
  880YOPE   C3A12845  16.227   1.986   6.685 -0.1835 -0.3491 -0.1239
  880YOPE   C4A12846  16.220   1.974   7.181 -0.1244 -0.0176 -0.2620
  880YOPE   C1B12847  15.174   2.102   6.097 -0.0086 -0.1715 -0.0070
  880YOPE   C2B12848  15.165   2.335   6.418 -0.1194  0.1285  0.1135
  880YOPE   D3B12849  15.360   2.293   6.816 -0.0289 -0.3608  0.0043
  880YOPE   C4B12850  15.081   2.323   7.168 -0.1568 -0.0764  0.0521
  881YOPE   NH312851  15.545   1.395   5.093 -0.3636 -0.1329  0.1910
  881YOPE   PO412852  15.082   1.468   5.101  0.2474 -0.2345  0.1428
  881YOPE   GL112853  15.181   1.347   5.533  0.1482  0.1349 -0.2425
  881YOPE   GL212854  15.339   1.675   5.765 -0.2871 -0.1585 -0.0008
  881YOPE   C1A12855  15.093   1.003   5.843 -0.1800 -0.0696  0.1431
  881YOPE   D2A12856  14.622   0.833   6.071 -0.0666 -0.0492  0.1864
  881YOPE   C3A12857  14.342   0.910   6.315  0.0080  0.1447  0.0232
  881YOPE   C4A12858  14.325   0.943   6.779 -0.1530  0.2303  0.3309
  881YOPE   C1B12859  15.075   1.465   5.976  0.2253 -0.2846 -0.0521
  881YOPE   C2B12860  14.624   1.332   5.992  0.4599 -0.2884 -0.0739
  881YOPE   D3B12861  14.339   1.459   6.367 -0.4459  0.0771  0.3085
  881YOPE   C4B12862  14.101   1.479   6.731 -0.1750  0.3179 -0.0388
  882POPC   NC312863   8.188   6.080   5.387  0.0348 -0.0149 -0.0713
  882POPC   PO412864   7.782   6.081   5.511  0.0444 -0.2053  0.1894
  882POPC   GL112865   8.093   6.376   5.888 -0.2356 -0.1262 -0.0306
  882POPC   GL212866   8.442   6.231   5.808 -0.0945  0.5129  0.0048
  882POPC   C1A12867   8.093   6.534   6.305 -0.5020  0.0464 -0.1571
  882POPC   D2A12868   8.088   6.598   6.769  0.0147 -0.3446 -0.2493
  882POPC   C3A12869   8.293   6.872   6.990 -0.0481  0.2687 -0.2283
  882POPC   C4A12870   8.364   7.259   6.993 -0.0070 -0.3770  0.1425
  882POPC   C1B12871   8.575   6.165   6.125 -0.0297 -0.2649 -0.5749
  882POPC   C2B12872   8.565   6.324   6.533 -0.1282 -0.1333  0.2004
  882POPC   C3B12873   8.586   6.236   6.919  0.2029 -0.0647 -0.1607
  882POPC   C4B12874   8.794   6.246   7.332  0.0333  0.2801 -0.1045
  883POPC   NC312875   1.228  18.177   5.331 -0.0859  0.1664  0.1404
  883POPC   PO412876   1.239  18.648   5.471 -0.1921  0.1775  0.0344
  883POPC   GL112877   1.274  18.704   5.876  0.1475 -0.2429  0.1044
  883POPC   GL212878   1.234  19.032   5.836 -0.1604  0.4573  0.0243
  883POPC   C1A12879   1.129  18.654   6.291  0.2594  0.1260  0.0065
  883POPC   D2A12880   1.040  18.285   6.661  0.1417  0.0196 -0.0378
  883POPC   C3A12881   1.270  18.062   7.091  0.0602 -0.3388 -0.1227
  883POPC   C4A12882   1.352  17.799   7.459 -0.5224  0.0187 -0.1135
  883POPC   C1B12883   1.313  19.140   6.294 -0.2332 -0.2186 -0.0381
  883POPC   C2B12884   1.208  18.978   6.690  0.1227  0.3471  0.0251
  883POPC   C3B12885   1.096  18.671   7.065 -0.2291 -0.1457  0.1524
  883POPC   C4B12886   1.254  18.480   7.413 -0.2337 -0.0585 -0.2369
  884POPC   NC312887  10.326   0.807   5.314 -0.0344 -0.2142  0.2545
  884POPC   PO412888  10.677   0.618   5.231 -0.0547 -0.2216  0.5112
  884POPC   GL112889  10.744   0.486   5.699  0.2681 -0.0985  0.0544
  884POPC   GL212890  10.794   0.651   5.997  0.0937 -0.1732 -0.1081
  884POPC   C1A12891  10.875   0.196   6.055 -0.0030 -0.0035  0.0029
  884POPC   D2A12892  10.934  -0.068   6.421  0.1235 -0.1512  0.1068
  884POPC   C3A12893  11.165  -0.426   6.412 -0.1079  0.1027 -0.0414
  884POPC   C4A12894  11.172  -0.824   6.556 -0.0653  0.1820 -0.0807
  884POPC   C1B12895  10.878   0.778   6.393 -0.1237 -0.2475 -0.1684
  884POPC   C2B12896  10.711   0.680   6.773 -0.1440 -0.0139  0.1475
  884POPC   C3B12897  10.509   1.030   6.941  0.0818  0.1265  0.0390
  884POPC   C4B12898  10.497   1.389   6.982 -0.0189 -0.2721 -0.1772
  885POPC   NC312899   3.516  17.168   5.126  0.0709 -0.1774  0.2162
  885POPC   PO412900   3.137  16.936   5.381 -0.4586  0.0037 -0.1459
  885POPC   GL112901   3.237  16.644   5.833 -0.1270  0.4083 -0.0443
  885POPC   GL212902   3.524  16.524   5.928 -0.1674 -0.0842  0.1358
  885POPC   C1A12903   3.115  16.217   6.119  0.0694 -0.0566 -0.2840
  885POPC   D2A12904   3.231  16.177   6.600  0.1280 -0.1602  0.1263
  885POPC   C3A12905   2.915  15.891   6.681 -0.0646 -0.0871 -0.1510
  885POPC   C4A12906   2.616  15.519   6.428  0.1262  0.0137 -0.0048
  885POPC   C1B12907   3.665  16.265   6.279 -0.0038  0.2917 -0.0683
  885POPC   C2B12908   3.681  16.303   6.682  0.0099  0.1313 -0.1906
  885POPC   C3B12909   3.475  16.341   7.065 -0.0982 -0.0471 -0.2175
  885POPC   C4B12910   3.295  15.934   7.103 -0.0573 -0.1637 -0.3942
  886POPC   NC312911  14.839  17.364   5.361 -0.2422  0.1127  0.1936
  886POPC   PO412912  15.264  17.429   5.689 -0.1473 -0.0195 -0.1287
  886POPC   GL112913  15.405  17.189   6.071 -0.0779  0.0919  0.2955
  886POPC   GL212914  15.547  16.884   6.014 -0.2671  0.0688  0.3214
  886POPC   C1A12915  15.575  17.053   6.482 -0.0588  0.2846  0.4118
  886POPC   D2A12916  15.718  16.698   6.756 -0.0697  0.1519  0.0309
  886POPC   C3A12917  15.321  16.505   6.778 -0.0428 -0.2779 -0.0105
  886POPC   C4A12918  14.918  16.425   7.098  0.0491 -0.0039  0.2010
  886POPC   C1B12919  15.508  16.484   6.263  0.0001 -0.0610  0.2227
  886POPC   C2B12920  15.548  16.024   6.322  0.1524  0.1503 -0.2419
  886POPC   C3B12921  15.376  15.698   6.489  0.0219  0.2798 -0.3899
  886POPC   C4B12922  14.950  15.573   6.550  0.0303  0.0015  0.2043
  887POPC   NC312923   2.592   3.588   5.501  0.1194 -0.0804 -0.0628
  887POPC   PO412924   2.537   3.819   5.859  0.0397  0.2384 -0.0288
  887POPC   GL112925   2.507   4.115   6.194  0.0201  0.1022  0.0252
  887POPC   GL212926   2.369   4.026   6.369 -0.1168 -0.5451  0.0113
  887POPC   C1A12927   2.719   4.359   6.431  0.2371  0.0326 -0.0083
  887POPC   D2A12928   2.720   4.397   6.861 -0.4594  0.0766  0.0783
  887POPC   C3A12929   3.052   4.503   7.289  0.0598 -0.1291  0.1998
  887POPC   C4A12930   3.508   4.476   7.352  0.1872 -0.0678  0.1272
  887POPC   C1B12931   1.947   4.145   6.484 -0.1469 -0.2971  0.3006
  887POPC   C2B12932   1.721   4.087   6.797 -0.1375  0.1852 -0.0030
  887POPC   C3B12933   1.565   3.969   7.131 -0.1849  0.1294 -0.0611
  887POPC   C4B12934   1.303   3.725   7.507  0.1344 -0.1586  0.1177
  888POPC   NC312935  16.929   3.770   5.456  0.0982  0.2028  0.3695
  888POPC   PO412936  17.056   4.176   5.331 -0.0504  0.0324 -0.1077
  888POPC   GL112937  17.228   4.064   5.763  0.1788  0.2389  0.0508
  888POPC   GL212938  17.557   4.031   5.605 -0.0185  0.1756 -0.4126
  888POPC   C1A12939  17.250   3.833   6.161 -0.0353  0.5313  0.2366
  888POPC   D2A12940  17.474   3.650   6.499  0.2384 -0.2367 -0.0347
  888POPC   C3A12941  17.440   3.272   6.812 -0.2147  0.0246 -0.1584
  888POPC   C4A12942  17.724   2.981   6.971  0.0371 -0.0424  0.1182
  888POPC   C1B12943  17.785   3.817   5.910  0.5090  0.1491 -0.2057
  888POPC   C2B12944  17.878   3.900   6.281 -0.1957 -0.2099 -0.1162
  888POPC   C3B12945  17.602   4.121   6.587  0.0571 -0.0581  0.0005
  888POPC   C4B12946  17.103   4.206   6.544  0.1945 -0.0850 -0.4255
  889POPC   NC312947  16.591   7.691   4.986  0.2205 -0.1386 -0.0023
  889POPC   PO412948  16.667   7.348   5.130  0.2144  0.1436 -0.0943
  889POPC   GL112949  16.588   7.475   5.593 -0.1784 -0.0605  0.0162
  889POPC   GL212950  16.422   7.286   5.688 -0.3514  0.0258  0.0552
  889POPC   C1A12951  16.832   7.663   6.006  0.0324 -0.1188 -0.1887
  889POPC   D2A12952  16.813   7.506   6.407  0.2686  0.3067  0.0707
  889POPC   C3A12953  16.876   7.798   6.718  0.0905  0.3693 -0.1816
  889POPC   C4A12954  16.970   8.156   6.965  0.1295  0.0568  0.0770
  889POPC   C1B12955  16.571   7.170   6.104  0.0044  0.1281 -0.0289
  889POPC   C2B12956  16.633   7.042   6.507  0.1962 -0.0759 -0.3677
  889POPC   C3B12957  16.963   7.335   6.839  0.1329 -0.1438 -0.0332
  889POPC   C4B12958  16.843   7.500   7.165 -0.2327 -0.0096  0.0859
  890POPC   NC312959   5.660   8.002   5.498 -0.0333 -0.1318 -0.0593
  890POPC   PO412960   5.744   8.437   5.587  0.0018 -0.0993  0.1098
  890POPC   GL112961   5.655   8.299   6.069 -0.1123 -0.2784 -0.3788
  890POPC   GL212962   5.814   8.033   6.017  0.3738 -0.1887  0.2251
  890POPC   C1A12963   5.508   8.015   6.420 -0.1160 -0.2643 -0.0003
  890POPC   D2A12964   5.324   7.840   6.800  0.2260  0.3440 -0.3421
  890POPC   C3A12965   4.999   7.547   6.815  0.0396  0.3622  0.2248
  890POPC   C4A12966   4.981   7.365   7.232  0.0328  0.0341  0.0588
  890POPC   C1B12967   5.955   8.175   6.431  0.1103 -0.3970 -0.3849
  890POPC   C2B12968   6.081   8.310   6.806 -0.4956 -0.0826 -0.0139
  890POPC   C3B12969   6.165   8.456   7.158  0.0778  0.0334 -0.3900
  890POPC   C4B12970   5.962   8.684   7.577  0.3509 -0.2312 -0.1667
  891POPC   NC312971  13.642   5.394   5.278 -0.1060  0.0774 -0.0062
  891POPC   PO412972  13.585   4.906   5.286  0.1084 -0.1344  0.0319
  891POPC   GL112973  13.825   4.995   5.660 -0.2529  0.1306 -0.1108
  891POPC   GL212974  14.033   5.198   5.597  0.0581 -0.0639  0.1535
  891POPC   C1A12975  13.861   4.885   6.076  0.0205 -0.1761  0.1583
  891POPC   D2A12976  14.148   5.054   6.345 -0.0300 -0.0965 -0.2380
  891POPC   C3A12977  14.335   5.125   6.692  0.1496 -0.0845  0.0503
  891POPC   C4A12978  14.248   5.406   7.042 -0.0057  0.4561 -0.1318
  891POPC   C1B12979  14.017   5.410   5.996 -0.1366 -0.0126  0.2274
  891POPC   C2B12980  14.219   5.797   6.098  0.1080  0.2069 -0.0154
  891POPC   C3B12981  14.474   6.068   6.024 -0.0100 -0.0514  0.3329
  891POPC   C4B12982  14.629   6.290   6.418  0.1144 -0.0923 -0.2148
  892POPC   NC312983   5.758   3.263   5.796  0.0847  0.2161  0.0772
  892POPC   PO412984   5.360   3.533   5.932 -0.0431  0.1700  0.1336
  892POPC   GL112985   5.433   3.704   6.313 -0.0913  0.3555 -0.0507
  892POPC   GL212986   5.258   3.703   6.562 -0.1909  0.1164  0.2932
  892POPC   C1A12987   5.746   3.820   6.520 -0.1216 -0.2168  0.1688
  892POPC   D2A12988   5.922   3.976   7.000  0.1635  0.1591  0.0439
  892POPC   C3A12989   5.793   4.072   7.487  0.1294  0.1875  0.4674
  892POPC   C4A12990   5.751   4.205   7.902  0.0702  0.2401  0.3928
  892POPC   C1B12991   5.363   3.829   6.906 -0.1558  0.0388  0.0374
  892POPC   C2B12992   5.416   3.812   7.226 -0.2182 -0.1478  0.1505
  892POPC   C3B12993   5.498   3.743   7.651 -0.1218 -0.2751  0.0363
  892POPC   C4B12994   5.552   3.387   7.931 -0.2050 -0.0375 -0.0190
  893POPC   NC312995   8.587   2.180   5.593  0.2197  0.1874  0.1363
  893POPC   PO412996   8.602   1.740   5.401 -0.0541  0.3542 -0.2364
  893POPC   GL112997   8.839   1.765   5.808  0.3434 -0.1043 -0.2430
  893POPC   GL212998   9.091   1.577   5.950  0.1436  0.1410  0.1823
  893POPC   C1A12999   8.645   1.727   6.278  0.0751  0.0707  0.0823
  893POPC   D2A13000   8.368   1.586   6.579 -0.0014 -0.1456  0.1698
  893POPC   C3A13001   8.371   1.870   6.942 -0.0427  0.0578  0.0800
  893POPC   C4A13002   8.187   1.872   7.327 -0.2227 -0.1622 -0.1072
  893POPC   C1B13003   9.083   1.417   6.257 -0.0298  0.2520 -0.0836
  893POPC   C2B13004   9.179   1.291   6.677  0.0650  0.0780  0.0568
  893POPC   C3B13005   9.426   0.996   7.044  0.2016  0.2676  0.1454
  893POPC   C4B13006   9.730   0.692   7.324 -0.3402  0.2105  0.1908
  894POPC   NC313007   9.540  13.575   5.400 -0.0502  0.1379 -0.1332
  894POPC   PO413008   9.467  13.086   5.461  0.0146  0.1156 -0.0064
  894POPC   GL113009   9.437  12.973   5.924  0.0200 -0.0476 -0.1966
  894POPC   GL213010   9.288  13.026   6.212  0.1489 -0.0728  0.1840
  894POPC   C1A13011   9.110  12.612   6.088 -0.2235 -0.0134  0.2278
  894POPC   D2A13012   8.817  12.677   6.364 -0.0673 -0.0863  0.0327
  894POPC   C3A13013   8.711  12.350   6.626 -0.0760  0.4052  0.2074
  894POPC   C4A13014   8.567  12.127   7.044 -0.2302  0.0044  0.3504
  894POPC   C1B13015   9.210  12.864   6.617 -0.0991 -0.0310 -0.1646
  894POPC   C2B13016   9.045  12.653   6.937  0.1374 -0.0236 -0.0285
  894POPC   C3B13017   8.910  12.382   7.281  0.2217 -0.1533  0.0516
  894POPC   C4B13018   8.886  12.488   7.726 -0.2250  0.1452 -0.2684
  895POPC   NC313019  14.956  16.588   5.169 -0.0280 -0.1602  0.0523
  895POPC   PO413020  14.780  16.868   5.367  0.0478  0.1309 -0.0163
  895POPC   GL113021  14.999  17.053   5.787  0.0355 -0.1588 -0.3623
  895POPC   GL213022  14.825  17.326   5.907 -0.3227 -0.0481  0.1360
  895POPC   C1A13023  15.065  16.814   6.267  0.1622 -0.0755 -0.0658
  895POPC   D2A13024  14.774  16.478   6.584 -0.3307  0.1782  0.2493
  895POPC   C3A13025  14.479  16.481   6.470  0.3932  0.3050 -0.1726
  895POPC   C4A13026  14.211  16.665   6.236  0.1416 -0.2787 -0.0637
  895POPC   C1B13027  14.987  17.342   6.361  0.0427  0.0868 -0.1937
  895POPC   C2B13028  15.215  17.314   6.678  0.3863  0.0939 -0.1379
  895POPC   C3B13029  15.518  17.097   6.953 -0.2201 -0.4563 -0.2581
  895POPC   C4B13030  15.806  17.103   7.225  0.2551 -0.0639  0.0046
  896POPC   NC313031  14.600   8.229   4.832 -0.2341  0.1086  0.1073
  896POPC   PO413032  14.486   8.337   5.287  0.1800 -0.0827  0.0465
  896POPC   GL113033  14.712   8.447   5.563  0.3259  0.3310 -0.2566
  896POPC   GL213034  15.009   8.637   5.606  0.0733  0.0406 -0.3245
  896POPC   C1A13035  14.963   8.360   6.095  0.1167 -0.2319 -0.1826
  896POPC   D2A13036  15.142   8.140   6.498  0.2083 -0.3102 -0.1671
  896POPC   C3A13037  14.868   7.989   6.930 -0.1911  0.3064 -0.1004
  896POPC   C4A13038  14.547   7.808   7.178 -0.1516 -0.1175  0.2055
  896POPC   C1B13039  14.530   8.771   5.952  0.3015 -0.0353  0.2365
  896POPC   C2B13040  14.400   8.873   6.371  0.0633  0.1527 -0.1251
  896POPC   C3B13041  14.678   8.914   6.742 -0.3266  0.2312 -0.2253
  896POPC   C4B13042  14.814   8.970   7.236 -0.1564 -0.3541 -0.1226
  897POPC   NC313043  15.447  10.570   5.361  0.0652  0.0522  0.0080
  897POPC   PO413044  14.955  10.671   5.573 -0.0156 -0.1612  0.3349
  897POPC   GL113045  15.356  10.769   5.828  0.0757  0.1597 -0.1398
  897POPC   GL213046  15.039  10.890   6.024  0.0306  0.1145  0.1581
  897POPC   C1A13047  15.466  10.936   6.279 -0.0915 -0.3853  0.1197
  897POPC   D2A13048  15.598  11.213   6.497  0.4273 -0.2127  0.3177
  897POPC   C3A13049  15.579  11.392   6.911 -0.0920  0.0881  0.1296
  897POPC   C4A13050  15.338  11.649   7.163  0.0213 -0.0321  0.0333
  897POPC   C1B13051  15.084  10.532   6.390  0.0660 -0.1036  0.1450
  897POPC   C2B13052  15.206  10.470   6.799  0.4374 -0.3484  0.1134
  897POPC   C3B13053  15.020  10.576   7.292  0.2643 -0.0246 -0.3326
  897POPC   C4B13054  14.679  10.762   7.439 -0.0489  0.1220  0.0087
  898POPC   NC313055   7.236   1.665   5.450 -0.0976 -0.0569 -0.0119
  898POPC   PO413056   6.998   2.003   5.393  0.1961 -0.1390  0.2265
  898POPC   GL113057   7.005   2.010   5.917 -0.2792 -0.1236 -0.2317
  898POPC   GL213058   7.060   2.345   5.920  0.0945  0.3242 -0.1467
  898POPC   C1A13059   7.109   2.045   6.358 -0.2409 -0.1319  0.1396
  898POPC   D2A13060   7.126   2.404   6.767  0.0307  0.0109  0.0081
  898POPC   C3A13061   7.007   2.378   7.111  0.6791 -0.3748  0.3198
  898POPC   C4A13062   7.180   2.494   7.465 -0.0445  0.1224  0.0123
  898POPC   C1B13063   7.254   2.542   6.261 -0.2575  0.1486 -0.0314
  898POPC   C2B13064   7.702   2.617   6.326  0.2717 -0.2004 -0.2529
  898POPC   C3B13065   8.004   2.417   6.421 -0.2915  0.1909  0.1828
  898POPC   C4B13066   8.162   2.030   6.486  0.2301 -0.1462  0.1175
  899POPC   NC313067  18.382   1.514   5.126 -0.0356  0.0139 -0.0880
  899POPC   PO413068  18.712   1.914   5.114  0.4174 -0.2487 -0.0528
  899POPC   GL113069  18.500   1.929   5.540 -0.2997  0.1410 -0.0760
  899POPC   GL213070  18.610   1.622   5.637  0.2151 -0.3895  0.0127
  899POPC   C1A13071  18.085   1.902   5.752 -0.5124  0.4478  0.2280
  899POPC   D2A13072  17.900   1.619   6.046 -0.1244 -0.2055  0.1137
  899POPC   C3A13073  17.689   1.956   6.182  0.0869  0.0924 -0.1687
  899POPC   C4A13074  17.337   2.299   6.461 -0.0710  0.0860  0.1162
  899POPC   C1B13075  18.519   1.850   6.045  0.0731 -0.1856  0.3518
  899POPC   C2B13076  18.177   1.951   6.263  0.1157  0.2475  0.3491
  899POPC   C3B13077  17.948   2.286   6.445  0.3825  0.0056  0.3949
  899POPC   C4B13078  17.734   2.402   6.859  0.3187 -0.4388 -0.0832
  900POPC   NC313079   7.504   8.492   5.378  0.1050 -0.0394  0.0344
  900POPC   PO413080   7.341   8.076   5.422  0.2927  0.1413 -0.0206
  900POPC   GL113081   7.318   7.890   5.803 -0.3073  0.2086 -0.2272
  900POPC   GL213082   7.533   7.681   5.867  0.1255  0.0353  0.0809
  900POPC   C1A13083   6.961   7.727   6.030  0.2253 -0.1134  0.2662
  900POPC   D2A13084   6.672   7.500   6.175  0.0299 -0.3048  0.3359
  900POPC   C3A13085   6.637   7.515   6.614  0.1512  0.2643 -0.3766
  900POPC   C4A13086   6.346   7.291   6.840  0.0731  0.1782 -0.0167
  900POPC   C1B13087   7.520   7.996   6.241  0.3938  0.1558 -0.0121
  900POPC   C2B13088   7.751   8.048   6.625  0.0635  0.1018  0.0007
  900POPC   C3B13089   7.571   8.108   7.035  0.1512  0.3174 -0.4023
  900POPC   C4B13090   7.485   8.403   7.320 -0.2184  0.2095 -0.1222
  901POPC   NC313091  10.638   4.887   4.952  0.1977  0.1185  0.2160
  901POPC   PO413092  11.006   4.833   5.202 -0.1020 -0.1290  0.1562
  901POPC   GL113093  11.239   4.826   5.642 -0.0625  0.3657  0.3170
  901POPC   GL213094  11.578   4.950   5.658 -0.0621  0.1963 -0.0052
  901POPC   C1A13095  11.199   4.873   6.178 -0.1417 -0.1167 -0.4867
  901POPC   D2A13096  11.264   4.987   6.587  0.0819 -0.1125  0.3672
  901POPC   C3A13097  11.037   4.919   6.876 -0.2620 -0.3902 -0.0343
  901POPC   C4A13098  10.930   4.574   7.150 -0.0487  0.3405 -0.1465
  901POPC   C1B13099  11.656   5.032   5.956 -0.0093  0.0506 -0.0224
  901POPC   C2B13100  11.738   4.997   6.430  0.0742  0.1191  0.0390
  901POPC   C3B13101  11.701   4.975   6.861 -0.2131  0.0295 -0.0510
  901POPC   C4B13102  11.925   4.927   7.260 -0.1621  0.2344  0.0995
  902POPC   NC313103   4.842  11.925   5.270  0.0694 -0.0800 -0.1911
  902POPC   PO413104   4.719  11.476   5.472  0.1910  0.1769 -0.0549
  902POPC   GL113105   4.680  11.334   5.820 -0.5106  0.4229 -0.2636
  902POPC   GL213106   4.487  11.031   5.838  0.1047 -0.0890  0.7094
  902POPC   C1A13107   4.952  11.155   6.143  0.3922 -0.0271 -0.0944
  902POPC   D2A13108   5.037  10.928   6.555 -0.3063 -0.0106 -0.2218
  902POPC   C3A13109   4.835  10.967   6.936 -0.1375 -0.1116 -0.1033
  902POPC   C4A13110   4.628  11.305   7.095 -0.1818  0.0734 -0.2582
  902POPC   C1B13111   4.531  10.759   6.149  0.2615 -0.0138 -0.3639
  902POPC   C2B13112   4.526  10.773   6.536  0.0871 -0.0655 -0.0818
  902POPC   C3B13113   4.368  10.898   6.850  0.2630 -0.0001 -0.0247
  902POPC   C4B13114   4.069  10.943   7.105 -0.0355  0.0590 -0.0639
  903POPC   NC313115   2.174   9.308   5.437  0.1797  0.4816 -0.0334
  903POPC   PO413116   2.380   8.987   5.702 -0.2140  0.0096 -0.1706
  903POPC   GL113117   2.479   9.106   6.120 -0.0933  0.3182  0.3405
  903POPC   GL213118   2.805   8.913   6.096  0.0999  0.0585  0.0848
  903POPC   C1A13119   2.601   9.033   6.643  0.1935  0.0629  0.2459
  903POPC   D2A13120   2.565   8.860   7.082 -0.0575  0.0572  0.2638
  903POPC   C3A13121   2.141   8.867   7.152  0.0191 -0.1204 -0.1880
  903POPC   C4A13122   2.031   9.145   7.420  0.1226 -0.0770  0.3225
  903POPC   C1B13123   3.020   9.103   6.390  0.1734  0.3149  0.0395
  903POPC   C2B13124   3.153   9.156   6.822  0.0669  0.1070  0.1914
  903POPC   C3B13125   2.870   9.293   7.024  0.0291 -0.0674 -0.1456
  903POPC   C4B13126   2.771   9.735   7.131 -0.1707 -0.2855 -0.0122
  904POPC   NC313127  12.351  12.498   5.535 -0.1408  0.1472 -0.0820
  904POPC   PO413128  11.966  12.382   5.581  0.3399  0.2685 -0.3306
  904POPC   GL113129  11.982  12.564   6.040 -0.0906  0.3398 -0.0035
  904POPC   GL213130  12.209  12.664   6.311 -0.1500 -0.1750 -0.4077
  904POPC   C1A13131  11.650  12.608   6.500  0.2050 -0.1077 -0.0544
  904POPC   D2A13132  11.413  12.324   6.437  0.2187  0.1502 -0.1223
  904POPC   C3A13133  11.332  12.077   6.770  0.1593  0.0698  0.1183
  904POPC   C4A13134  10.974  11.794   6.820  0.2548  0.1731  0.2774
  904POPC   C1B13135  12.103  12.669   6.749 -0.2440  0.0073 -0.0734
  904POPC   C2B13136  12.196  12.854   7.215  0.0084  0.1562 -0.2079
  904POPC   C3B13137  12.670  12.730   7.288  0.1342  0.2963  0.3301
  904POPC   C4B13138  12.940  12.584   6.912 -0.1007 -0.1519  0.1598
  905POPC   NC313139   6.437   4.591   5.670  0.1616  0.0937  0.0996
  905POPC   PO413140   6.832   4.326   5.695 -0.2038  0.2668 -0.1795
  905POPC   GL113141   6.818   4.434   6.108 -0.2162  0.2045 -0.0776
  905POPC   GL213142   6.627   4.323   6.228 -0.2114  0.0833  0.6005
  905POPC   C1A13143   6.938   4.712   6.398 -0.1655  0.0270  0.1622
  905POPC   D2A13144   7.056   5.062   6.467 -0.3185  0.1061  0.0731
  905POPC   C3A13145   6.989   5.231   6.824  0.1782  0.0574  0.2419
  905POPC   C4A13146   7.044   5.352   7.263  0.0876 -0.1149  0.0871
  905POPC   C1B13147   6.562   4.474   6.584 -0.0735  0.1520  0.0867
  905POPC   C2B13148   6.629   4.891   6.852 -0.1002  0.2569  0.0959
  905POPC   C3B13149   6.559   5.154   7.125 -0.1415 -0.3730  0.2815
  905POPC   C4B13150   6.597   5.343   7.546  0.0651  0.0445  0.0302
  906POPC   NC313151  15.478   3.700   5.249 -0.0821 -0.0004 -0.2200
  906POPC   PO413152  15.721   3.970   5.492  0.1391  0.3574 -0.2039
  906POPC   GL113153  15.607   4.077   5.941 -0.1921 -0.1947  0.1075
  906POPC   GL213154  15.249   4.140   5.958 -0.4478  0.4074 -0.1694
  906POPC   C1A13155  15.709   4.246   6.184  0.1244 -0.0938 -0.2687
  906POPC   D2A13156  15.644   4.614   6.292  0.0490  0.0314  0.4079
  906POPC   C3A13157  15.865   4.772   6.603 -0.2142 -0.0390 -0.0572
  906POPC   C4A13158  15.974   4.946   7.006 -0.2741  0.3380  0.0450
  906POPC   C1B13159  15.249   4.140   6.390  0.1105  0.4242  0.2302
  906POPC   C2B13160  15.071   4.242   6.675 -0.2324  0.2451  0.3174
  906POPC   C3B13161  15.075   4.511   6.918  0.0747 -0.0736 -0.2438
  906POPC   C4B13162  15.292   4.415   7.279 -0.0816  0.0743 -0.4051
  907POPC   NC313163  13.266   1.913   5.395  0.2716 -0.1845 -0.5571
  907POPC   PO413164  13.261   1.614   5.180  0.0918  0.0047  0.0694
  907POPC   GL113165  13.497   1.394   5.550  0.2179 -0.0407 -0.1038
  907POPC   GL213166  13.686   1.679   5.720  0.0580  0.0434 -0.1821
  907POPC   C1A13167  13.412   1.325   5.979  0.0100  0.4439 -0.2398
  907POPC   D2A13168  12.980   1.432   6.223  0.0364  0.3361 -0.2073
  907POPC   C3A13169  12.904   1.522   6.699  0.1736  0.0626  0.0881
  907POPC   C4A13170  13.128   1.397   7.105  0.0649 -0.2829  0.1547
  907POPC   C1B13171  13.830   1.737   6.211 -0.0372  0.1181 -0.0117
  907POPC   C2B13172  13.848   1.878   6.629  0.0772  0.1672 -0.0220
  907POPC   C3B13173  13.728   1.960   7.087 -0.1452  0.2866  0.2253
  907POPC   C4B13174  13.484   1.669   7.376  0.0752 -0.2034 -0.0566
  908POPC   NC313175   1.058  15.766   5.319 -0.3747 -0.3114 -0.1878
  908POPC   PO413176   0.679  15.955   5.086 -0.0456  0.1274  0.0223
  908POPC   GL113177   0.643  16.287   5.384  0.2596  0.2088 -0.0549
  908POPC   GL213178   0.361  16.377   5.459  0.1320  0.2675  0.0612
  908POPC   C1A13179   0.731  16.363   5.884  0.3088  0.0197  0.1753
  908POPC   D2A13180   0.780  16.273   6.367 -0.5817 -0.2384 -0.1570
  908POPC   C3A13181   0.530  16.379   6.607 -0.2221  0.0777  0.1036
  908POPC   C4A13182   0.359  16.642   6.954 -0.1457 -0.0121  0.0363
  908POPC   C1B13183   0.447  15.976   5.719 -0.0528 -0.0567  0.3010
  908POPC   C2B13184   0.504  15.542   5.850 -0.1185  0.1248 -0.1229
  908POPC   C3B13185   0.706  15.383   6.261 -0.1344 -0.2601  0.3057
  908POPC   C4B13186   0.809  15.715   6.582 -0.2898  0.1257 -0.2048
  909POPC   NC313187  11.957  16.496   5.318 -0.1054 -0.1543 -0.1532
  909POPC   PO413188  11.595  16.720   5.479  0.4942 -0.1496  0.2286
  909POPC   GL113189  11.306  16.740   5.861  0.1887  0.1380 -0.2814
  909POPC   GL213190  11.421  16.930   6.143 -0.6088 -0.0869  0.0721
  909POPC   C1A13191  11.253  16.500   6.265  0.1976 -0.2286 -0.3224
  909POPC   D2A13192  11.015  16.571   6.748 -0.0390  0.2966 -0.1784
  909POPC   C3A13193  10.806  16.966   7.133  0.0617 -0.1926 -0.1783
  909POPC   C4A13194  10.571  17.118   7.585  0.1214  0.1031  0.4546
  909POPC   C1B13195  11.568  16.929   6.611  0.1431  0.1765  0.0584
  909POPC   C2B13196  11.589  17.043   7.003  0.0519 -0.0970  0.1535
  909POPC   C3B13197  11.937  17.208   7.254 -0.1600 -0.3956  0.0318
  909POPC   C4B13198  12.149  17.494   7.445 -0.1293  0.3017 -0.0025
  910POPC   NC313199  13.161  18.588   5.406 -0.0379  0.0716  0.0342
  910POPC   PO413200  13.037  18.271   5.219 -0.0403  0.0444 -0.0339
  910POPC   GL113201  13.277  18.095   5.591 -0.0663 -0.5466  0.1191
  910POPC   GL213202  13.422  17.773   5.610  0.0847  0.0707 -0.1895
  910POPC   C1A13203  13.196  18.078   6.088 -0.0722 -0.0028 -0.0906
  910POPC   D2A13204  13.333  18.158   6.417 -0.2526 -0.1099  0.2395
  910POPC   C3A13205  13.119  18.008   6.653 -0.3759  0.1694  0.4334
  910POPC   C4A13206  12.910  17.783   6.981 -0.0868  0.0737 -0.6052
  910POPC   C1B13207  13.511  17.713   6.051 -0.1142  0.0051 -0.0521
  910POPC   C2B13208  13.526  17.704   6.491 -0.1544  0.1135  0.0105
  910POPC   C3B13209  13.333  17.537   6.796 -0.0289  0.2554  0.1930
  910POPC   C4B13210  13.294  17.216   7.059 -0.0686 -0.0435 -0.2624
  911POPC   NC313211   1.477   4.714   5.743  0.0425 -0.3136  0.0346
  911POPC   PO413212   1.054   4.745   5.848 -0.0063  0.0611  0.3642
  911POPC   GL113213   1.173   4.561   6.180 -0.3169 -0.0144 -0.1710
  911POPC   GL213214   1.536   4.614   6.230 -0.1557  0.2512 -0.0077
  911POPC   C1A13215   1.174   4.481   6.600  0.1159 -0.3904 -0.2873
  911POPC   D2A13216   1.167   4.408   6.996  0.2737  0.1813  0.0968
  911POPC   C3A13217   1.451   4.508   7.281  0.2844  0.1547  0.5352
  911POPC   C4A13218   1.762   4.390   7.518  0.2310  0.0825 -0.2109
  911POPC   C1B13219   1.489   4.909   6.592 -0.3332 -0.2261 -0.3205
  911POPC   C2B13220   1.255   4.902   7.005 -0.2530 -0.0288 -0.0419
  911POPC   C3B13221   1.131   4.934   7.387  0.5080 -0.2029 -0.2600
  911POPC   C4B13222   1.378   4.752   7.701  0.0711  0.0735  0.4048
  912POPC   NC313223   4.202  11.215   5.493 -0.1429  0.0007  0.2581
  912POPC   PO413224   3.933  11.564   5.389  0.0407 -0.1183 -0.2366
  912POPC   GL113225   4.260  11.641   5.724  0.1524  0.2722  0.0625
  912POPC   GL213226   4.107  11.546   5.952 -0.1822  0.1071  0.3425
  912POPC   C1A13227   4.415  11.943   6.049  0.1599  0.1026 -0.1702
  912POPC   D2A13228   4.559  12.348   6.392 -0.1239  0.3200 -0.2937
  912POPC   C3A13229   4.565  12.439   6.865  0.0952 -0.0430 -0.1514
  912POPC   C4A13230   4.446  12.307   7.297 -0.2715 -0.1589 -0.0380
  912POPC   C1B13231   4.387  11.463   6.227  0.1992 -0.3214  0.1064
  912POPC   C2B13232   4.640  11.264   6.528 -0.1512  0.0152  0.0149
  912POPC   C3B13233   4.896  11.408   6.661  0.0271 -0.0100 -0.2541
  912POPC   C4B13234   5.017  11.558   7.028 -0.1962  0.1547  0.1437
  913POPC   NC313235   1.009   5.615   5.377 -0.2078 -0.1676  0.0974
  913POPC   PO413236   0.716   5.406   5.308 -0.2742  0.2264  0.0054
  913POPC   GL113237   0.748   5.324   5.706  0.0797  0.2582  0.1008
  913POPC   GL213238   0.497   5.430   5.935 -0.3268  0.1607 -0.1304
  913POPC   C1A13239   0.888   5.420   6.218 -0.1358  0.0942 -0.1889
  913POPC   D2A13240   1.085   5.310   6.679  0.1652 -0.1634 -0.2856
  913POPC   C3A13241   1.009   5.342   7.126 -0.1458 -0.0037 -0.2165
  913POPC   C4A13242   1.266   5.400   7.445 -0.1766 -0.3608  0.2965
  913POPC   C1B13243   0.297   5.753   6.255 -0.0549  0.2908 -0.4417
  913POPC   C2B13244   0.344   5.948   6.742  0.0401 -0.1952 -0.0496
  913POPC   C3B13245   0.019   5.820   7.072 -0.1321  0.4759  0.0982
  913POPC   C4B13246   0.046   5.576   7.426 -0.0303  0.2746 -0.0252
  914POPC   NC313247  13.138   0.463   5.184 -0.1257 -0.2834  0.0270
  914POPC   PO413248  13.106  -0.032   5.134  0.1545 -0.3323  0.3427
  914POPC   GL113249  13.483   0.125   5.338 -0.0141  0.2240 -0.1700
  914POPC   GL213250  13.401  -0.093   5.572 -0.0383 -0.1708  0.3663
  914POPC   C1A13251  13.814   0.198   5.662  0.0780  0.5170 -0.1246
  914POPC   D2A13252  14.097   0.054   6.084 -0.1923 -0.1673 -0.0317
  914POPC   C3A13253  14.627   0.022   6.086  0.3137 -0.1744  0.1019
  914POPC   C4A13254  14.928   0.283   6.258 -0.1510 -0.3348 -0.1791
  914POPC   C1B13255  13.226  -0.086   5.980  0.0754 -0.0741  0.2798
  914POPC   C2B13256  13.536  -0.214   6.335  0.1835  0.2093  0.0215
  914POPC   C3B13257  13.486  -0.417   6.679 -0.0749  0.1952  0.4333
  914POPC   C4B13258  13.589  -0.707   7.124 -0.2288  0.0630  0.3394
  915POPC   NC313259   1.696   3.286   5.575 -0.1996  0.2114  0.1677
  915POPC   PO413260   1.765   3.086   5.914  0.0365  0.4201  0.2452
  915POPC   GL113261   1.663   3.055   6.297 -0.0158  0.2347  0.2276
  915POPC   GL213262   1.561   2.719   6.364  0.0930 -0.1957  0.1839
  915POPC   C1A13263   1.930   2.980   6.680  0.1791 -0.2252  0.1942
  915POPC   D2A13264   1.897   2.759   7.018 -0.2110 -0.1127  0.4098
  915POPC   C3A13265   1.951   3.001   7.413 -0.1469  0.2556  0.0167
  915POPC   C4A13266   1.997   3.259   7.856  0.2280 -0.0260 -0.2873
  915POPC   C1B13267   1.396   2.819   6.768  0.1932  0.0416  0.2340
  915POPC   C2B13268   1.233   3.164   7.092  0.0760 -0.2246 -0.1712
  915POPC   C3B13269   1.120   3.619   7.056  0.2738  0.0438 -0.0884
  915POPC   C4B13270   1.027   4.012   7.205  0.1409  0.0861  0.6073
  916POPC   NC313271   2.110  11.763   5.215 -0.0151 -0.1832 -0.4208
  916POPC   PO413272   1.745  12.044   5.532 -0.0037 -0.0472 -0.2564
  916POPC   GL113273   1.785  11.997   5.979  0.2247 -0.2980 -0.1940
  916POPC   GL213274   1.519  12.150   6.195  0.4277 -0.0155 -0.3062
  916POPC   C1A13275   1.919  11.744   6.420  0.0431  0.1153 -0.1390
  916POPC   D2A13276   2.237  11.445   6.603  0.5417 -0.0494  0.0346
  916POPC   C3A13277   2.441  11.298   6.991 -0.0957  0.2395 -0.3274
  916POPC   C4A13278   2.868  11.171   6.974 -0.0933  0.2066  0.0990
  916POPC   C1B13279   1.727  12.361   6.538  0.0122  0.2276 -0.1663
  916POPC   C2B13280   1.703  12.406   6.950  0.2342 -0.2659 -0.1087
  916POPC   C3B13281   1.756  12.096   7.258  0.0441 -0.3346  0.1801
  916POPC   C4B13282   1.790  11.671   7.531 -0.3786  0.0429 -0.1857
  917POPC   NC313283   5.554  15.907   5.476 -0.0747 -0.0607  0.1651
  917POPC   PO413284   5.892  16.040   5.738  0.1640 -0.1401 -0.0742
  917POPC   GL113285   6.030  15.845   6.104 -0.0127 -0.1011  0.0819
  917POPC   GL213286   6.103  15.587   6.247  0.1176 -0.1658 -0.4534
  917POPC   C1A13287   6.327  15.989   6.424  0.4844 -0.0241 -0.0797
  917POPC   D2A13288   6.295  15.905   6.858 -0.4436 -0.1002  0.3636
  917POPC   C3A13289   6.198  16.201   7.209  0.0173 -0.3667 -0.4075
  917POPC   C4A13290   6.284  16.450   7.556 -0.1391 -0.0249 -0.4261
  917POPC   C1B13291   6.117  15.494   6.661 -0.2719  0.1849  0.0327
  917POPC   C2B13292   6.125  15.517   7.100 -0.1114 -0.0220  0.1120
  917POPC   C3B13293   6.359  15.234   7.384  0.1020  0.3555 -0.1195
  917POPC   C4B13294   6.351  14.871   7.564 -0.1387  0.1724 -0.1426
  918POPC   NC313295   7.941  16.899   5.531  0.0933  0.0897  0.2092
  918POPC   PO413296   8.330  16.944   5.624  0.1823 -0.6800  0.2691
  918POPC   GL113297   8.252  16.800   6.064  0.0684 -0.0879 -0.0389
  918POPC   GL213298   8.013  16.551   6.184  0.0237  0.0473  0.0505
  918POPC   C1A13299   8.281  16.818   6.570 -0.1257  0.0355  0.3036
  918POPC   D2A13300   8.337  16.617   6.877  0.0289  0.0771  0.0155
  918POPC   C3A13301   8.028  16.407   7.136 -0.3649 -0.3237  0.0911
  918POPC   C4A13302   7.799  16.284   7.488  0.0609  0.2327  0.1997
  918POPC   C1B13303   8.196  16.349   6.344 -0.0861 -0.2526 -0.1629
  918POPC   C2B13304   8.561  16.469   6.312 -0.0415 -0.0150 -0.0012
  918POPC   C3B13305   8.800  16.430   6.726 -0.0903  0.2380 -0.1117
  918POPC   C4B13306   8.726  16.656   7.195  0.1914 -0.1568  0.0520
  919POPC   NC313307   4.962   3.198   5.715 -0.1741 -0.0563  0.0024
  919POPC   PO413308   5.264   3.041   5.805  0.1676 -0.3612  0.0230
  919POPC   GL113309   5.127   3.272   6.265  0.5262  0.0166  0.2384
  919POPC   GL213310   5.250   3.121   6.479  0.0422  0.0582  0.3160
  919POPC   C1A13311   4.772   3.471   6.550  0.1833  0.2397 -0.4292
  919POPC   D2A13312   4.694   3.868   6.537  0.2303  0.0024  0.2961
  919POPC   C3A13313   5.002   4.113   6.714 -0.0139 -0.1258  0.0914
  919POPC   C4A13314   4.917   4.123   7.150  0.3179  0.0824  0.3353
  919POPC   C1B13315   5.108   3.213   6.842 -0.2424  0.2881 -0.1833
  919POPC   C2B13316   4.967   3.555   7.006  0.1472  0.1434 -0.4597
  919POPC   C3B13317   4.593   3.659   7.094 -0.1396  0.1923  0.1777
  919POPC   C4B13318   4.131   3.611   7.092  0.4366 -0.0096 -0.1394
  920POPC   NC313319  10.629   5.273   5.466  0.2918 -0.3176 -0.3332
  920POPC   PO413320  10.837   5.360   5.093  0.2821  0.1098  0.1174
  920POPC   GL113321  11.093   5.230   5.428 -0.0069 -0.2834  0.0418
  920POPC   GL213322  11.365   5.299   5.337  0.0969 -0.1951 -0.0879
  920POPC   C1A13323  11.228   5.242   5.812  0.3906 -0.2233 -0.0232
  920POPC   D2A13324  11.505   5.385   6.192  0.3231 -0.0091 -0.0128
  920POPC   C3A13325  11.546   5.396   6.704 -0.1361  0.0455 -0.1539
  920POPC   C4A13326  11.852   5.370   7.092 -0.2027 -0.1836 -0.1209
  920POPC   C1B13327  11.542   5.530   5.664  0.0172 -0.0298  0.1655
  920POPC   C2B13328  11.811   5.673   5.963 -0.1745 -0.0781 -0.2668
  920POPC   C3B13329  11.934   5.674   6.393  0.0355 -0.2838 -0.0782
  920POPC   C4B13330  11.833   5.783   6.745  0.1525 -0.2247  0.0715
  921POPC   NC313331   0.774   7.610   5.111  0.0542  0.0864 -0.2352
  921POPC   PO413332   0.439   7.734   5.453  0.1379 -0.0586  0.2475
  921POPC   GL113333   0.557   7.943   5.804  0.0873  0.1868 -0.3338
  921POPC   GL213334   0.717   7.587   5.931 -0.1495 -0.1337  0.2923
  921POPC   C1A13335   0.604   8.057   6.154 -0.2328  0.2775  0.2331
  921POPC   D2A13336   0.481   7.891   6.504 -0.1747 -0.1412  0.0619
  921POPC   C3A13337   0.053   8.015   6.606  0.1198 -0.4027 -0.1181
  921POPC   C4A13338  -0.112   7.772   6.394 -0.1499 -0.2625  0.1860
  921POPC   C1B13339   1.040   7.719   6.163  0.2815  0.1562 -0.1209
  921POPC   C2B13340   1.100   7.893   6.522 -0.0027 -0.2347  0.0859
  921POPC   C3B13341   1.013   7.903   6.864 -0.3170 -0.1495  0.0564
  921POPC   C4B13342   0.767   7.672   7.050  0.3842 -0.0315  0.3249
  922YOPC   NC313343  11.027   8.137   5.478 -0.0909  0.1771 -0.2779
  922YOPC   PO413344  10.553   8.221   5.432 -0.2285  0.0501  0.1962
  922YOPC   GL113345  10.601   8.187   5.846 -0.2180  0.1357  0.2676
  922YOPC   GL213346  10.847   8.380   6.011  0.2604 -0.2352 -0.0989
  922YOPC   C1A13347  10.417   8.202   6.209 -0.0660 -0.1166  0.0746
  922YOPC   D2A13348  10.637   8.155   6.620 -0.1160  0.1741  0.0225
  922YOPC   C3A13349  10.515   7.787   6.830 -0.1699  0.1771 -0.1419
  922YOPC   C4A13350  10.311   7.449   6.942 -0.1352  0.1733  0.0799
  922YOPC   C1B13351  10.585   8.604   6.435  0.0867  0.2222  0.0034
  922YOPC   C2B13352  10.549   8.599   6.883 -0.4645 -0.0095 -0.1445
  922YOPC   D3B13353  10.424   8.804   7.295 -0.2278  0.1632  0.1256
  922YOPC   C4B13354  10.491   8.904   7.737  0.1014 -0.0871 -0.0791
  923YOPC   NC313355  13.149  11.538   5.261 -0.1084  0.0937  0.1300
  923YOPC   PO413356  13.083  11.967   5.332  0.0146  0.3766  0.4386
  923YOPC   GL113357  13.128  12.014   5.862  0.0306 -0.1747  0.2913
  923YOPC   GL213358  13.122  12.294   6.037 -0.0213  0.1361 -0.1414
  923YOPC   C1A13359  13.234  11.733   6.287 -0.1329 -0.2553  0.0953
  923YOPC   D2A13360  13.363  11.352   6.446  0.1962  0.2323 -0.4188
  923YOPC   C3A13361  13.484  11.434   6.897 -0.5660  0.0806 -0.0096
  923YOPC   C4A13362  13.649  11.082   7.157 -0.1982  0.2380  0.1619
  923YOPC   C1B13363  12.917  12.524   6.379 -0.1188  0.0396 -0.0155
  923YOPC   C2B13364  12.604  12.401   6.607 -0.2883 -0.0139 -0.1449
  923YOPC   D3B13365  12.641  12.273   7.044  0.0249  0.2743 -0.2609
  923YOPC   C4B13366  13.053  12.243   7.296 -0.0895 -0.1022 -0.1905
  924YOPC   NC313367  15.207   7.608   5.308 -0.0970 -0.1566 -0.0739
  924YOPC   PO413368  15.080   7.170   5.340 -0.2711 -0.1026  0.1905
  924YOPC   GL113369  15.167   7.403   5.809  0.2032  0.1590  0.0161
  924YOPC   GL213370  14.861   7.500   5.755  0.2237 -0.0522  0.3591
  924YOPC   C1A13371  15.375   7.335   6.217 -0.0260  0.0572  0.0471
  924YOPC   D2A13372  15.582   7.114   6.620  0.0546  0.1393  0.0606
  924YOPC   C3A13373  15.597   7.369   7.089 -0.2003 -0.3821 -0.2589
  924YOPC   C4A13374  15.780   7.201   7.388  0.0610  0.1436  0.0751
  924YOPC   C1B13375  14.720   7.516   6.206  0.1556 -0.1614  0.0650
  924YOPC   C2B13376  14.709   7.747   6.511  0.1020  0.0361 -0.1400
  924YOPC   D3B13377  14.391   7.521   6.807  0.4765  0.1011 -0.1072
  924YOPC   C4B13378  14.159   7.423   7.166  0.0307  0.1250  0.0171
  925YOPC   NC313379  19.023   2.342   5.229 -0.3343  0.0506 -0.1573
  925YOPC   PO413380  18.963   2.715   5.308 -0.0255  0.1893 -0.0615
  925YOPC   GL113381  18.873   2.600   5.668  0.2646 -0.0439  0.0481
  925YOPC   GL213382  18.835   2.279   5.850  0.0884  0.0881 -0.0701
  925YOPC   C1A13383  18.794   2.636   6.162 -0.0624  0.0843 -0.1112
  925YOPC   D2A13384  18.403   2.523   6.312 -0.1975  0.2355  0.0033
  925YOPC   C3A13385  18.506   2.224   6.586 -0.3017  0.0179 -0.1523
  925YOPC   C4A13386  18.611   2.085   7.030  0.4396  0.0906  0.1971
  925YOPC   C1B13387  18.432   2.335   5.866 -0.3241  0.0830  0.1983
  925YOPC   C2B13388  18.048   2.409   5.950  0.0921  0.0220 -0.0530
  925YOPC   D3B13389  17.653   2.191   5.759 -0.1522  0.1747  0.2567
  925YOPC   C4B13390  17.297   2.287   5.894  0.0048 -0.1451  0.0878
  926YOPC   NC313391  11.190  11.809   5.395  0.1336  0.3399 -0.3882
  926YOPC   PO413392  11.110  12.247   5.414  0.0163  0.0144  0.3773
  926YOPC   GL113393  11.298  12.154   5.890 -0.2107  0.1706 -0.3815
  926YOPC   GL213394  11.553  12.346   5.975 -0.2703 -0.0252 -0.0535
  926YOPC   C1A13395  11.174  11.850   6.270 -0.1337  0.0680  0.2049
  926YOPC   D2A13396  11.348  11.612   6.604 -0.0972  0.5928 -0.0476
  926YOPC   C3A13397  11.543  11.332   7.010  0.0681  0.1901  0.0739
  926YOPC   C4A13398  11.818  11.055   6.956 -0.2075  0.1890  0.3172
  926YOPC   C1B13399  11.656  11.981   6.176 -0.1269  0.0868 -0.0252
  926YOPC   C2B13400  11.803  11.652   6.496  0.2372 -0.1340  0.0905
  926YOPC   D3B13401  11.723  11.768   6.965 -0.0647 -0.0325 -0.0834
  926YOPC   C4B13402  11.743  11.589   7.401 -0.1074  0.1918  0.1127
  927YOPC   NC313403   8.380  13.432   5.774 -0.1178 -0.1050 -0.2423
  927YOPC   PO413404   8.677  13.616   5.891  0.1822 -0.2714 -0.1423
  927YOPC   GL113405   8.516  13.572   6.336  0.1468 -0.1386  0.0641
  927YOPC   GL213406   8.430  13.833   6.485 -0.1612 -0.1388 -0.2296
  927YOPC   C1A13407   8.414  13.405   6.771 -0.0047 -0.1186  0.2951
  927YOPC   D2A13408   8.134  13.487   7.115  0.1859 -0.1634  0.2932
  927YOPC   C3A13409   8.262  13.603   7.315 -0.0504 -0.0093  0.0685
  927YOPC   C4A13410   8.505  14.026   7.344  0.2736  0.0737  0.0835
  927YOPC   C1B13411   8.303  13.936   6.871  0.0095 -0.2120  0.0270
  927YOPC   C2B13412   8.122  14.309   7.184  0.0606 -0.2045  0.2831
  927YOPC   D3B13413   8.239  14.712   7.154 -0.0666 -0.3758 -0.0157
  927YOPC   C4B13414   8.216  15.103   6.846  0.2294  0.0360  0.0857
  928YOPC   NC313415  10.009   2.161   5.507  0.2984  0.2175  0.1189
  928YOPC   PO413416   9.629   2.235   5.654  0.2136  0.4734  0.0372
  928YOPC   GL113417   9.739   2.475   5.974  0.1541 -0.2646 -0.0434
  928YOPC   GL213418   9.529   2.620   5.963  0.1120 -0.0598  0.3836
  928YOPC   C1A13419   9.960   2.912   5.993  0.0604  0.2543  0.0647
  928YOPC   D2A13420  10.313   3.079   6.092 -0.1708 -0.4708 -0.2208
  928YOPC   C3A13421  10.253   3.100   6.624 -0.2583  0.1695  0.1177
  928YOPC   C4A13422  10.155   2.773   6.520  0.2202 -0.2834 -0.0752
  928YOPC   C1B13423   9.349   2.475   6.351 -0.2870  0.3224 -0.2673
  928YOPC   C2B13424   9.370   2.336   6.773  0.1778  0.1341 -0.0325
  928YOPC   D3B13425   9.374   2.574   7.110  0.1424 -0.2190  0.1471
  928YOPC   C4B13426   9.620   2.929   7.424 -0.2220 -0.0727  0.3322
  929YOPC   NC313427  13.839  10.829   5.490 -0.1265 -0.2008 -0.2241
  929YOPC   PO413428  13.541  11.159   5.417 -0.2108 -0.3741 -0.0876
  929YOPC   GL113429  13.189  11.218   5.627  0.1465  0.0733  0.1381
  929YOPC   GL213430  12.794  11.257   5.579 -0.1474  0.1065 -0.2108
  929YOPC   C1A13431  13.006  11.290   6.064 -0.0003 -0.1609 -0.0778
  929YOPC   D2A13432  12.815  11.458   6.414 -0.2878 -0.0571  0.1165
  929YOPC   C3A13433  13.023  11.592   6.773 -0.0255 -0.1257 -0.1478
  929YOPC   C4A13434  13.101  11.278   7.149  0.1140 -0.1650 -0.3177
  929YOPC   C1B13435  12.849  10.862   5.820 -0.1188  0.0596 -0.0881
  929YOPC   C2B13436  12.614  10.595   6.172  0.2086 -0.0507  0.3018
  929YOPC   D3B13437  12.410  10.311   6.246 -0.0202 -0.0168  0.3581
  929YOPC   C4B13438  12.135  10.269   6.591  0.0698  0.0718  0.1636
  930YOPC   NC313439   1.972   2.491   6.098  0.2791 -0.1021  0.0030
  930YOPC   PO413440   2.285   2.755   6.213  0.2916  0.0157  0.0898
  930YOPC   GL113441   2.195   3.238   6.253  0.1335  0.1209 -0.0450
  930YOPC   GL213442   2.471   3.439   6.281  0.1040  0.2999  0.1337
  930YOPC   C1A13443   1.983   3.532   6.422 -0.3239  0.1659 -0.0256
  930YOPC   D2A13444   2.090   3.678   6.726  0.2037 -0.3693  0.0097
  930YOPC   C3A13445   2.459   3.946   6.853 -0.0267  0.2277 -0.2457
  930YOPC   C4A13446   2.714   3.989   7.225  0.1076  0.2326  0.0907
  930YOPC   C1B13447   2.640   3.528   6.609  0.1046  0.0349 -0.0059
  930YOPC   C2B13448   2.957   3.597   7.035  0.0608  0.0434  0.0708
  930YOPC   D3B13449   2.816   3.534   7.378 -0.1247  0.0006  0.0667
  930YOPC   C4B13450   2.851   3.428   7.817 -0.2949 -0.1423  0.0103
  931YOPC   NC313451  18.756   8.785   5.634  0.1243 -0.1540  0.1005
  931YOPC   PO413452  19.174   8.674   5.640 -0.0697  0.0144  0.0216
  931YOPC   GL113453  19.014   8.622   6.026  0.0978  0.1842  0.1055
  931YOPC   GL213454  18.920   8.905   6.114 -0.1404  0.0815 -0.0418
  931YOPC   C1A13455  18.897   8.501   6.427 -0.0231 -0.3646 -0.2818
  931YOPC   D2A13456  18.980   8.349   6.964  0.2143  0.3245  0.0358
  931YOPC   C3A13457  18.472   8.232   7.116  0.0765  0.0127 -0.0006
  931YOPC   C4A13458  18.034   8.129   7.151  0.0631  0.0011 -0.1082
  931YOPC   C1B13459  18.947   9.019   6.500 -0.0168  0.3646  0.0392
  931YOPC   C2B13460  19.098   8.790   6.792 -0.0693  0.2142 -0.1455
  931YOPC   D3B13461  19.519   8.798   6.842 -0.1252  0.0318 -0.0746
  931YOPC   C4B13462  19.732   8.886   7.154 -0.3369 -0.0560 -0.3093
  932YOPC   NC313463  11.796  11.379   5.443 -0.0331 -0.1543  0.0399
  932YOPC   PO413464  11.716  11.719   5.261 -0.0646 -0.0156  0.1376
  932YOPC   GL113465  11.661  11.774   5.705  0.2023  0.2024  0.3474
  932YOPC   GL213466  11.471  11.644   5.788 -0.0416 -0.1540 -0.1598
  932YOPC   C1A13467  12.054  11.599   6.063  0.3307  0.4178  0.0810
  932YOPC   D2A13468  12.288  11.460   6.454  0.0691 -0.0128 -0.0267
  932YOPC   C3A13469  12.546  11.762   6.720  0.3036 -0.0125 -0.1575
  932YOPC   C4A13470  12.766  11.811   7.180 -0.0485  0.1878  0.1299
  932YOPC   C1B13471  11.574  11.347   6.102 -0.3921 -0.1949 -0.0478
  932YOPC   C2B13472  11.606  11.071   6.478 -0.0254 -0.4948 -0.3010
  932YOPC   D3B13473  11.317  10.751   6.598 -0.1877 -0.4358  0.0823
  932YOPC   C4B13474  11.356  10.459   6.735 -0.0153  0.2666 -0.0453
  933YOPC   NC313475   3.099  18.028   4.630  0.4861 -0.1979 -0.0373
  933YOPC   PO413476   2.723  18.021   5.073 -0.0345  0.3027 -0.0919
  933YOPC   GL113477   2.556  17.892   5.470  0.1449  0.0459 -0.0435
  933YOPC   GL213478   2.567  18.153   5.626  0.0349  0.0612  0.0622
  933YOPC   C1A13479   2.328  17.549   5.699 -0.0796 -0.0573  0.1905
  933YOPC   D2A13480   2.221  17.357   6.103 -0.2185 -0.4260 -0.4387
  933YOPC   C3A13481   1.819  17.286   6.338 -0.2370 -0.0660  0.2053
  933YOPC   C4A13482   1.653  16.954   6.529  0.0069  0.1020 -0.1082
  933YOPC   C1B13483   2.372  18.040   5.985  0.2396 -0.2990 -0.1514
  933YOPC   C2B13484   2.252  17.818   6.373 -0.3462 -0.3659 -0.2356
  933YOPC   D3B13485   2.260  17.582   6.615  0.1977  0.0950 -0.0916
  933YOPC   C4B13486   1.938  17.383   6.810  0.1286 -0.0908 -0.1316
  934YOPC   NC313487  17.891  13.816   4.391 -0.0968  0.1903  0.1984
  934YOPC   PO413488  17.653  14.159   4.602 -0.2658  0.2009  0.3716
  934YOPC   GL113489  17.791  13.992   4.974 -0.1729 -0.2714  0.0799
  934YOPC   GL213490  17.900  13.764   5.225 -0.1095 -0.2162 -0.0686
  934YOPC   C1A13491  17.949  14.298   5.377  0.0896  0.1031 -0.1267
  934YOPC   D2A13492  17.937  14.759   5.482 -0.0283 -0.1389  0.1759
  934YOPC   C3A13493  17.606  14.812   5.675 -0.2183 -0.0476  0.1244
  934YOPC   C4A13494  17.373  14.538   6.022 -0.1333 -0.0221 -0.1904
  934YOPC   C1B13495  17.850  13.859   5.581  0.0297  0.0640  0.1046
  934YOPC   C2B13496  17.661  14.238   5.834 -0.2231  0.0745  0.4017
  934YOPC   D3B13497  17.937  14.488   5.950  0.0477  0.2545  0.0284
  934YOPC   C4B13498  17.888  14.850   6.077  0.0455  0.0194  0.1063
  935YOPC   NC313499   8.257   1.544   5.113 -0.0394 -0.1650  0.1504
  935YOPC   PO413500   7.782   1.636   5.363  0.0625  0.2710  0.0256
  935YOPC   GL113501   7.774   1.698   5.807 -0.0479 -0.1411 -0.2049
  935YOPC   GL213502   7.450   1.757   5.972  0.3792 -0.1524 -0.4409
  935YOPC   C1A13503   7.987   1.615   6.244  0.0448  0.3307 -0.3121
  935YOPC   D2A13504   8.031   1.297   6.479  0.2432  0.1496  0.1802
  935YOPC   C3A13505   7.926   1.483   6.819  0.0974  0.0483  0.1058
  935YOPC   C4A13506   7.700   1.778   7.103 -0.0204 -0.0258  0.0301
  935YOPC   C1B13507   7.409   1.660   6.438  0.1840 -0.0018 -0.0428
  935YOPC   C2B13508   7.459   1.380   6.871 -0.1640  0.3756  0.3810
  935YOPC   D3B13509   7.232   1.456   7.239  0.2137 -0.0537  0.4498
  935YOPC   C4B13510   6.991   1.516   7.671  0.1701 -0.0070  0.0230
  936YOPC   NC313511   5.538  17.087   5.194 -0.0462 -0.4441  0.1104
  936YOPC   PO413512   5.236  17.472   5.341  0.0269  0.2031 -0.5417
  936YOPC   GL113513   5.466  17.454   5.687  0.0695  0.1753 -0.0085
  936YOPC   GL213514   5.474  17.134   5.680 -0.1713  0.0445  0.0880
  936YOPC   C1A13515   5.514  17.552   6.037  0.1888 -0.1037  0.0300
  936YOPC   D2A13516   5.869  17.390   6.459  0.2225 -0.1695  0.0538
  936YOPC   C3A13517   5.743  17.615   6.800 -0.0518 -0.1437 -0.1601
  936YOPC   C4A13518   5.860  17.906   7.198  0.2101 -0.2012  0.1147
  936YOPC   C1B13519   5.529  17.041   6.077 -0.0075 -0.0523  0.0863
  936YOPC   C2B13520   5.587  16.867   6.541 -0.0403  0.0068 -0.0836
  936YOPC   D3B13521   5.743  17.118   6.923  0.1521 -0.0828 -0.3559
  936YOPC   C4B13522   5.522  17.456   7.187  0.1562 -0.2619 -0.0491
  937YOPC   NC313523  13.293   4.765   5.628 -0.0471 -0.3417 -0.0580
  937YOPC   PO413524  12.892   4.830   5.388  0.2051 -0.0533 -0.1986
  937YOPC   GL113525  12.644   4.881   5.685  0.2887  0.2400 -0.2887
  937YOPC   GL213526  12.475   5.086   5.883 -0.3376  0.3268 -0.1296
  937YOPC   C1A13527  12.714   4.746   6.148  0.1865  0.0159 -0.0959
  937YOPC   D2A13528  12.484   4.735   6.501 -0.1229 -0.2520 -0.3391
  937YOPC   C3A13529  12.133   4.533   6.397 -0.1687  0.0112 -0.2642
  937YOPC   C4A13530  11.844   4.099   6.355  0.1884 -0.0744 -0.0366
  937YOPC   C1B13531  12.720   5.226   6.280 -0.0211 -0.1188 -0.0591
  937YOPC   C2B13532  12.748   5.357   6.688 -0.1036 -0.0390  0.1546
  937YOPC   D3B13533  12.888   5.137   7.027 -0.1548  0.2991  0.4169
  937YOPC   C4B13534  12.994   5.082   7.366 -0.0525 -0.1277 -0.1221
  938YOPC   NC313535  16.611  10.565   5.586 -0.1391 -0.1546  0.0776
  938YOPC   PO413536  16.465  10.838   5.429  0.1283  0.0227 -0.0792
  938YOPC   GL113537  16.691  10.969   5.840  0.1422 -0.1973 -0.1599
  938YOPC   GL213538  16.912  11.150   5.854  0.1160 -0.1276  0.2319
  938YOPC   C1A13539  16.843  10.640   6.185 -0.2863  0.1052 -0.1691
  938YOPC   D2A13540  16.940  10.678   6.587 -0.3204  0.2205 -0.1739
  938YOPC   C3A13541  16.938  11.148   6.797 -0.4086 -0.0540 -0.0169
  938YOPC   C4A13542  16.744  11.317   7.062 -0.1234  0.0983  0.1822
  938YOPC   C1B13543  16.942  11.380   6.270  0.3101 -0.0633 -0.0805
  938YOPC   C2B13544  17.042  11.779   6.466  0.2229 -0.1968 -0.0894
  938YOPC   D3B13545  17.065  11.816   6.874  0.4143 -0.2793 -0.4571
  938YOPC   C4B13546  17.148  11.630   7.162  0.3837  0.1385 -0.0019
  939YOPC   NC313547  12.748   5.335   5.463  0.1378 -0.2290 -0.1084
  939YOPC   PO413548  12.355   5.418   5.479 -0.0185  0.0385  0.1713
  939YOPC   GL113549  12.463   5.592   5.841  0.0807 -0.1163 -0.1794
  939YOPC   GL213550  12.313   5.865   5.788 -0.1271 -0.3303 -0.1255
  939YOPC   C1A13551  12.599   5.743   6.245  0.1083  0.2571  0.4257
  939YOPC   D2A13552  12.387   5.770   6.641 -0.1566  0.3159  0.0433
  939YOPC   C3A13553  12.264   5.716   7.119 -0.1887  0.1392  0.2363
  939YOPC   C4A13554  12.325   5.833   7.441  0.1371  0.2198 -0.0486
  939YOPC   C1B13555  11.912   6.220   5.849  0.0221  0.1239  0.0584
  939YOPC   C2B13556  11.742   6.468   5.928  0.1244  0.1146  0.0070
  939YOPC   D3B13557  11.805   6.837   6.011  0.0158  0.0200 -0.2435
  939YOPC   C4B13558  11.636   7.226   6.258 -0.0536  0.0596 -0.5689
  940YOPC   NC313559   1.345   0.839   5.467 -0.1351 -0.0549  0.0000
  940YOPC   PO413560   0.985   1.078   5.320 -0.0921 -0.0111  0.1537
  940YOPC   GL113561   0.883   0.920   5.682  0.0983  0.1353 -0.1231
  940YOPC   GL213562   1.065   0.978   5.898 -0.1705  0.0874 -0.0413
  940YOPC   C1A13563   0.620   0.693   5.879  0.1645  0.0484  0.0055
  940YOPC   D2A13564   0.559   0.452   6.259  0.1739 -0.1246  0.1441
  940YOPC   C3A13565   0.443   0.566   6.708 -0.0906  0.2673 -0.0428
  940YOPC   C4A13566   0.544   0.327   7.161 -0.2414  0.1263 -0.3204
  940YOPC   C1B13567   1.254   0.947   6.224  0.0234 -0.1264 -0.2360
  940YOPC   C2B13568   1.615   0.878   6.408 -0.0815 -0.1331  0.1516
  940YOPC   D3B13569   2.004   0.711   6.448 -0.0454  0.2866  0.1712
  940YOPC   C4B13570   2.146   0.831   6.762 -0.2277  0.3046 -0.0744
  941YOPC   NC313571   5.059  14.410   5.605 -0.1544 -0.1718  0.1195
  941YOPC   PO413572   4.947  14.088   5.809  0.0379 -0.1948 -0.3740
  941YOPC   GL113573   4.873  13.680   5.950 -0.0574 -0.0526  0.0984
  941YOPC   GL213574   4.510  13.582   5.945  0.0470 -0.4943 -0.2405
  941YOPC   C1A13575   4.812  13.396   6.369  0.0028 -0.0001 -0.0006
  941YOPC   D2A13576   4.707  13.522   6.711 -0.3047 -0.2403  0.1023
  941YOPC   C3A13577   4.774  13.356   7.113  0.1556  0.1412 -0.0807
  941YOPC   C4A13578   5.044  13.467   7.444  0.2099 -0.0183  0.1037
  941YOPC   C1B13579   4.383  13.844   6.289  0.2640 -0.1740  0.0667
  941YOPC   C2B13580   4.154  13.739   6.668  0.2133  0.1609  0.2857
  941YOPC   D3B13581   3.784  13.870   6.923  0.0042  0.1255 -0.4089
  941YOPC   C4B13582   3.358  14.023   7.223 -0.0886 -0.1979 -0.1722
  942YOPC   NC313583   7.349   6.280   5.430 -0.2549  0.2695 -0.0102
  942YOPC   PO413584   6.955   6.497   5.537 -0.0162  0.1280  0.3074
  942YOPC   GL113585   7.029   6.299   5.951  0.2395 -0.2116 -0.1315
  942YOPC   GL213586   6.816   5.944   6.003  0.2030  0.1352 -0.1256
  942YOPC   C1A13587   7.065   6.317   6.514 -0.0304  0.3511 -0.0919
  942YOPC   D2A13588   7.189   6.252   6.969  0.2048 -0.0374  0.5010
  942YOPC   C3A13589   6.990   6.105   7.297 -0.0378  0.2564  0.0393
  942YOPC   C4A13590   7.137   5.785   7.548 -0.1462  0.0214 -0.0363
  942YOPC   C1B13591   6.646   6.250   6.239 -0.0327 -0.1998  0.0505
  942YOPC   C2B13592   6.916   6.719   6.261  0.0382  0.0806  0.0892
  942YOPC   D3B13593   6.824   7.002   6.653  0.1426 -0.0424  0.2726
  942YOPC   C4B13594   7.026   7.002   6.971 -0.4824  0.0243 -0.3442
  943YOPC   NC313595  14.204  13.810   5.377  0.1507 -0.0223 -0.3309
  943YOPC   PO413596  14.070  14.219   5.282  0.1685  0.1318 -0.0082
  943YOPC   GL113597  14.128  14.207   5.728 -0.1959  0.0819 -0.3106
  943YOPC   GL213598  13.838  14.213   5.899  0.0214  0.4246 -0.2562
  943YOPC   C1A13599  14.221  14.397   6.109  0.0114 -0.0563  0.1033
  943YOPC   D2A13600  14.513  14.142   6.412 -0.1268 -0.1745 -0.2860
  943YOPC   C3A13601  14.555  13.730   6.447  0.1871  0.0755 -0.4727
  943YOPC   C4A13602  14.932  13.520   6.543  0.2183  0.1121  0.1153
  943YOPC   C1B13603  13.672  13.875   6.276  0.0512  0.1526  0.3498
  943YOPC   C2B13604  13.544  13.743   6.601 -0.1366 -0.0401 -0.0880
  943YOPC   D3B13605  13.733  13.954   6.938  0.1361 -0.0223  0.1702
  943YOPC   C4B13606  13.721  14.160   7.246 -0.2434  0.3623  0.1392
  944YOPC   NC313607   6.514   8.393   5.118  0.3410  0.2026  0.2428
  944YOPC   PO413608   6.715   8.276   5.504 -0.2132  0.2126 -0.3977
  944YOPC   GL113609   6.956   8.264   5.820 -0.1944  0.3548  0.2184
  944YOPC   GL213610   7.334   8.487   5.864 -0.3736 -0.2020  0.0627
  944YOPC   C1A13611   7.086   8.231   6.292  0.0413 -0.4615 -0.1714
  944YOPC   D2A13612   7.075   7.865   6.541 -0.0758  0.0372  0.1355
  944YOPC   C3A13613   6.859   7.829   6.947  0.3072  0.0147 -0.1500
  944YOPC   C4A13614   6.766   7.389   7.067  0.1889 -0.0647 -0.1589
  944YOPC   C1B13615   7.556   8.511   6.230 -0.0119  0.3501  0.2963
  944YOPC   C2B13616   7.447   8.422   6.607  0.0425  0.2374  0.1202
  944YOPC   D3B13617   7.057   8.270   6.819 -0.1067  0.1425 -0.0225
  944YOPC   C4B13618   7.024   8.267   7.245 -0.1476  0.0870  0.1038
  945YOPC   NC313619  19.028  10.270   5.424  0.2589 -0.0881 -0.0670
  945YOPC   PO413620  18.909   9.924   5.344  0.1545 -0.2665 -0.0299
  945YOPC   GL113621  18.992   9.986   5.826  0.0612  0.1091  0.1102
  945YOPC   GL213622  18.887  10.228   5.960  0.4988  0.3492 -0.0694
  945YOPC   C1A13623  19.209   9.995   6.232 -0.0037  0.0937  0.4655
  945YOPC   D2A13624  19.125  10.097   6.747  0.0622 -0.3466 -0.4945
  945YOPC   C3A13625  19.077  10.510   6.921  0.4196  0.2335  0.3113
  945YOPC   C4A13626  18.856  10.934   7.026 -0.0042 -0.0585  0.1183
  945YOPC   C1B13627  18.688  10.041   6.431  0.2153  0.3100  0.2482
  945YOPC   C2B13628  18.666  10.092   6.902  0.2737  0.0715  0.1326
  945YOPC   D3B13629  18.917   9.868   7.184 -0.0648 -0.0266 -0.0890
  945YOPC   C4B13630  19.108   9.534   7.110 -0.1343  0.0361 -0.3871
  946YOPC   NC313631  18.553  13.295   4.713 -0.1822  0.2191 -0.1428
  946YOPC   PO413632  18.392  13.795   4.550 -0.2852 -0.0568 -0.0813
  946YOPC   GL113633  18.406  13.793   4.989  0.1809  0.3423 -0.0181
  946YOPC   GL213634  18.369  14.094   5.113  0.0509 -0.0743  0.2182
  946YOPC   C1A13635  18.393  13.683   5.476 -0.0173  0.0937 -0.0473
  946YOPC   D2A13636  18.387  13.612   5.918 -0.1326  0.2465 -0.1533
  946YOPC   C3A13637  18.526  13.670   6.277  0.1122  0.1099  0.0863
  946YOPC   C4A13638  18.645  13.422   6.591 -0.0481  0.2120  0.1559
  946YOPC   C1B13639  18.374  14.151   5.649 -0.0827 -0.0701 -0.0648
  946YOPC   C2B13640  18.084  13.964   6.012  0.0865 -0.0278  0.0985
  946YOPC   D3B13641  17.756  14.101   6.402  0.2315 -0.0027  0.2591
  946YOPC   C4B13642  17.474  14.421   6.531  0.1704  0.2636  0.1779
  947YOPC   NC313643  16.558  12.768   4.971 -0.3414 -0.2319  0.1020
  947YOPC   PO413644  16.941  12.582   5.172  0.0069 -0.0712 -0.0303
  947YOPC   GL113645  16.976  12.788   5.570 -0.2915  0.2375 -0.2838
  947YOPC   GL213646  16.666  12.836   5.548 -0.0965 -0.0692 -0.0791
  947YOPC   C1A13647  17.074  12.906   5.986  0.1349 -0.0130  0.7148
  947YOPC   D2A13648  17.072  13.187   6.279 -0.1809 -0.3218  0.0244
  947YOPC   C3A13649  17.095  13.526   6.049 -0.0219 -0.1048  0.0045
  947YOPC   C4A13650  16.750  13.565   5.994 -0.1843  0.2206 -0.1981
  947YOPC   C1B13651  16.611  13.051   5.840  0.2589  0.0860 -0.3071
  947YOPC   C2B13652  16.426  13.122   6.267  0.0960  0.2756 -0.2283
  947YOPC   D3B13653  16.654  13.375   6.506 -0.1236  0.4178 -0.0830
  947YOPC   C4B13654  17.007  13.592   6.624  0.3269  0.2811 -0.0230
  948YOPC   NC313655   3.514   2.594   5.768 -0.0238 -0.1785 -0.1676
  948YOPC   PO413656   3.146   2.773   6.045 -0.0838 -0.1212  0.0812
  948YOPC   GL113657   2.979   2.764   6.441  0.2380 -0.0440 -0.2716
  948YOPC   GL213658   2.731   2.764   6.587  0.0513  0.5221 -0.1569
  948YOPC   C1A13659   3.131   2.546   6.791 -0.0685 -0.2195  0.0485
  948YOPC   D2A13660   3.321   2.632   7.078  0.2153 -0.0314  0.0604
  948YOPC   C3A13661   3.087   2.483   7.396 -0.1647  0.5201  0.2036
  948YOPC   C4A13662   2.845   2.085   7.519 -0.0347 -0.1462 -0.0608
  948YOPC   C1B13663   2.726   2.945   7.122  0.1767 -0.0280  0.1701
  948YOPC   C2B13664   3.004   2.958   7.436 -0.3288  0.5150  0.1662
  948YOPC   D3B13665   3.438   2.816   7.556  0.0679  0.5051 -0.1150
  948YOPC   C4B13666   3.908   2.793   7.368 -0.2643 -0.0602  0.0606
  949YOPC   NC313667   6.480   2.245   5.191 -0.0033  0.0863 -0.0032
  949YOPC   PO413668   6.232   2.130   5.564  0.0954 -0.0843 -0.0749
  949YOPC   GL113669   6.457   2.247   5.926 -0.1074  0.3934  0.1177
  949YOPC   GL213670   6.611   2.548   6.082  0.1371 -0.1757 -0.3107
  949YOPC   C1A13671   6.606   1.947   6.200  0.3345  0.0843  0.1327
  949YOPC   D2A13672   6.845   1.626   6.308  0.1263 -0.0804 -0.2649
  949YOPC   C3A13673   6.987   1.574   6.741  0.2478  0.2903 -0.1039
  949YOPC   C4A13674   6.752   1.672   7.160 -0.1586  0.3894 -0.0284
  949YOPC   C1B13675   6.728   2.378   6.434  0.3187  0.0368  0.6727
  949YOPC   C2B13676   6.626   2.491   6.861  0.0050 -0.4614  0.2470
  949YOPC   D3B13677   6.356   2.612   7.122 -0.0053 -0.2050 -0.0503
  949YOPC   C4B13678   6.239   3.087   7.293  0.2778 -0.1277  0.0247
  950YOPC   NC313679   0.716  10.035   5.160  0.0340 -0.0745 -0.2092
  950YOPC   PO413680   0.442  10.053   5.434  0.0673 -0.0383  0.0502
  950YOPC   GL113681   0.409  10.116   5.854 -0.0514 -0.1328  0.3014
  950YOPC   GL213682   0.267  10.364   5.879  0.1920 -0.1187 -0.0132
  950YOPC   C1A13683   0.641   9.881   6.182 -0.0125  0.0625 -0.2885
  950YOPC   D2A13684   0.563   9.743   6.552  0.1100  0.2576 -0.2575
  950YOPC   C3A13685   0.443   9.892   6.967  0.2268  0.1258  0.3045
  950YOPC   C4A13686   0.310  10.157   7.249  0.0329  0.1059 -0.0887
  950YOPC   C1B13687   0.619  10.603   5.988  0.1167  0.1253  0.1578
  950YOPC   C2B13688   0.901  10.583   6.256 -0.2814  0.6543 -0.2407
  950YOPC   D3B13689   0.965  10.733   6.708  0.3100  0.0228  0.0220
  950YOPC   C4B13690   1.073  11.053   7.077 -0.2505 -0.1198  0.0870
  951YOPC   NC313691   4.744   1.145   6.010 -0.0120  0.1821 -0.0564
  951YOPC   PO413692   5.227   1.332   6.149  0.1225 -0.4009  0.0255
  951YOPC   GL113693   4.947   1.389   6.448 -0.0323  0.0806  0.1839
  951YOPC   GL213694   4.874   1.105   6.596 -0.1343 -0.0629  0.0953
  951YOPC   C1A13695   4.872   1.665   6.759  0.1026  0.2727 -0.1768
  951YOPC   D2A13696   5.294   1.700   6.998 -0.0474 -0.1138 -0.2305
  951YOPC   C3A13697   5.625   1.970   6.939 -0.0286  0.0176  0.3803
  951YOPC   C4A13698   5.968   2.194   7.179  0.0998 -0.2929  0.1914
  951YOPC   C1B13699   4.545   0.800   6.863 -0.1630 -0.1932  0.1102
  951YOPC   C2B13700   4.325   0.480   7.002  0.1107  0.0742  0.1702
  951YOPC   D3B13701   3.847   0.559   7.243  0.1528  0.2361  0.1935
  951YOPC   C4B13702   3.635   0.308   7.513 -0.1486  0.1122 -0.1445
  952YOPC   NC313703  12.383   2.758   5.462  0.0572  0.1341  0.0465
  952YOPC   PO413704  12.792   2.749   5.470 -0.1569  0.1757 -0.2184
  952YOPC   GL113705  12.649   2.451   5.896 -0.0640  0.2918  0.2287
  952YOPC   GL213706  12.434   2.099   5.965 -0.3864 -0.1427 -0.0781
  952YOPC   C1A13707  12.641   2.321   6.406 -0.0364 -0.1010 -0.1962
  952YOPC   D2A13708  12.852   2.614   6.678 -0.4231 -0.2059  0.0980
  952YOPC   C3A13709  12.598   3.048   6.695  0.2126  0.4401 -0.0483
  952YOPC   C4A13710  12.225   3.057   6.656  0.1388 -0.2218 -0.0274
  952YOPC   C1B13711  12.436   1.793   6.353  0.0186 -0.0499  0.1758
  952YOPC   C2B13712  12.308   1.353   6.466  0.0158 -0.0151  0.1173
  952YOPC   D3B13713  12.596   1.185   6.911  0.2034  0.2101  0.0708
  952YOPC   C4B13714  12.850   0.966   7.078 -0.2116  0.1599  0.0211
  953YOPC   NC313715   8.015  10.374   5.550 -0.0119  0.4355  0.1281
  953YOPC   PO413716   7.723  10.295   5.737  0.1268 -0.0639  0.1616
  953YOPC   GL113717   7.368  10.386   6.032  0.0645  0.0932  0.0717
  953YOPC   GL213718   7.461  10.701   6.116 -0.2874  0.1600 -0.1434
  953YOPC   C1A13719   6.964  10.588   6.003 -0.3009 -0.1121 -0.2299
  953YOPC   D2A13720   6.614  10.463   6.007  0.2767  0.0289 -0.1442
  953YOPC   C3A13721   6.367  10.585   6.261 -0.1505 -0.1341  0.1244
  953YOPC   C4A13722   6.263  10.479   6.631  0.2212 -0.1552  0.1130
  953YOPC   C1B13723   7.690  10.661   6.537 -0.1323  0.0531  0.1779
  953YOPC   C2B13724   8.082  10.463   6.641  0.2036  0.0334 -0.1144
  953YOPC   D3B13725   8.224  10.472   7.146 -0.1798  0.0910 -0.0786
  953YOPC   C4B13726   8.653  10.424   7.310 -0.0898 -0.5834  0.0278
  954YOPC   NC313727  16.167   6.110   4.993 -0.3436  0.1082 -0.2379
  954YOPC   PO413728  16.546   5.885   5.178 -0.2402  0.1366  0.1953
  954YOPC   GL113729  16.613   5.720   5.647  0.2252  0.1033  0.2545
  954YOPC   GL213730  16.893   5.822   5.839  0.2072  0.2448  0.1825
  954YOPC   C1A13731  16.368   5.545   6.069 -0.2680  0.1002  0.0808
  954YOPC   D2A13732  16.180   5.564   6.375 -0.1997 -0.2129  0.0109
  954YOPC   C3A13733  15.773   5.309   6.693 -0.0808  0.1173 -0.2510
  954YOPC   C4A13734  15.737   5.357   7.118 -0.0001 -0.0333  0.3056
  954YOPC   C1B13735  16.672   6.164   6.015 -0.0080 -0.0482  0.4388
  954YOPC   C2B13736  16.199   6.006   5.972 -0.0392  0.3781 -0.1416
  954YOPC   D3B13737  15.970   6.110   6.172  0.1038 -0.1196  0.0321
  954YOPC   C4B13738  15.567   6.174   6.197  0.0029  0.0382 -0.4010
  955YOPC   NC313739  15.029  12.009   5.329  0.1681  0.0412 -0.1636
  955YOPC   PO413740  14.589  11.865   5.381 -0.1313  0.1861  0.1131
  955YOPC   GL113741  14.748  12.111   5.765 -0.3373 -0.3075  0.2186
  955YOPC   GL213742  15.039  11.974   5.845  0.2414 -0.0862 -0.0318
  955YOPC   C1A13743  15.012  12.481   5.848  0.2086 -0.1659  0.2214
  955YOPC   D2A13744  15.216  12.798   6.031  0.0671 -0.1040  0.0270
  955YOPC   C3A13745  15.610  12.675   6.212 -0.1850  0.0114  0.2179
  955YOPC   C4A13746  15.701  12.671   6.637  0.1138  0.0544  0.1202
  955YOPC   C1B13747  15.177  11.706   6.135 -0.0735 -0.1663  0.4053
  955YOPC   C2B13748  15.268  11.779   6.564 -0.1661  0.0458  0.0526
  955YOPC   D3B13749  15.054  11.925   6.887 -0.1865  0.0612 -0.1460
  955YOPC   C4B13750  15.120  12.238   7.218  0.1913 -0.1133 -0.0206
  956YOPC   NC313751  10.751  15.206   5.766 -0.1193 -0.1064 -0.0585
  956YOPC   PO413752  10.781  14.703   5.916 -0.0613 -0.0090  0.0456
  956YOPC   GL113753  10.847  14.795   6.319 -0.0607 -0.2808 -0.0722
  956YOPC   GL213754  11.139  14.810   6.321 -0.1040 -0.1375 -0.1382
  956YOPC   C1A13755  10.938  14.815   6.754 -0.0571  0.1668 -0.1325
  956YOPC   D2A13756  10.964  15.033   7.131 -0.2234 -0.0229 -0.2349
  956YOPC   C3A13757  10.751  15.189   7.433  0.1516  0.1141 -0.0824
  956YOPC   C4A13758  10.606  14.873   7.756 -0.3437  0.0412 -0.2191
  956YOPC   C1B13759  11.067  15.211   6.506 -0.1235  0.0501 -0.1288
  956YOPC   C2B13760  10.837  15.419   6.793  0.1502  0.0576 -0.4245
  956YOPC   D3B13761  10.471  15.187   6.946 -0.0635 -0.0535 -0.0732
  956YOPC   C4B13762  10.462  14.812   7.159 -0.0471  0.0940  0.0061
  957YOPC   NC313763   3.753  13.785   5.400 -0.0218  0.1565 -0.0215
  957YOPC   PO413764   3.360  13.714   5.269 -0.1958 -0.1378  0.2180
  957YOPC   GL113765   3.425  13.622   5.751 -0.1748  0.3731 -0.0981
  957YOPC   GL213766   3.664  13.569   5.879 -0.0985  0.1689  0.4026
  957YOPC   C1A13767   3.260  13.772   6.071 -0.0921 -0.1206  0.0386
  957YOPC   D2A13768   2.929  13.661   6.411 -0.0012  0.0552 -0.2696
  957YOPC   C3A13769   2.732  13.389   6.658  0.3585 -0.1011  0.0814
  957YOPC   C4A13770   2.765  12.871   6.581  0.1687  0.0307 -0.1521
  957YOPC   C1B13771   3.811  13.439   6.200 -0.2890 -0.0160 -0.2504
  957YOPC   C2B13772   3.777  13.405   6.675  0.1682 -0.3716 -0.1685
  957YOPC   D3B13773   3.648  13.072   7.036 -0.2812  0.0558 -0.1507
  957YOPC   C4B13774   3.376  12.720   7.128  0.0991 -0.1165 -0.1252
  958YOPC   NC313775  14.525  10.420   5.297 -0.1830 -0.3114 -0.0864
  958YOPC   PO413776  14.280  10.649   5.499  0.0062 -0.1219 -0.0802
  958YOPC   GL113777  14.214  10.729   5.953  0.0534 -0.3770  0.1312
  958YOPC   GL213778  13.898  10.637   5.971  0.2221  0.2602  0.2064
  958YOPC   C1A13779  14.613  10.852   6.300 -0.0639  0.1730 -0.1552
  958YOPC   D2A13780  14.767  10.971   6.758  0.2822 -0.5576 -0.2655
  958YOPC   C3A13781  14.497  11.211   6.978  0.1551  0.1429 -0.1962
  958YOPC   C4A13782  14.052  11.323   6.958  0.1202  0.1111  0.1591
  958YOPC   C1B13783  13.940  10.556   6.425  0.1977 -0.1119  0.2254
  958YOPC   C2B13784  13.976  10.291   6.763 -0.3642  0.3557  0.2213
  958YOPC   D3B13785  13.923   9.829   6.615  0.3514 -0.2707 -0.0793
  958YOPC   C4B13786  13.714   9.433   6.668  0.0863 -0.2052 -0.0520
  959YOPC   NC313787  14.709  14.524   5.710  0.0813  0.0912 -0.2771
  959YOPC   PO413788  15.072  14.779   5.573  0.2912  0.1878  0.0008
  959YOPC   GL113789  15.100  14.785   5.993 -0.2112 -0.0367  0.2545
  959YOPC   GL213790  14.896  14.495   6.146 -0.0690  0.3494 -0.0463
  959YOPC   C1A13791  14.935  14.977   6.391  0.0135  0.2897  0.1559
  959YOPC   D2A13792  14.955  15.158   6.866 -0.1367  0.2384  0.0910
  959YOPC   C3A13793  15.140  14.887   7.224  0.0341  0.1096 -0.0137
  959YOPC   C4A13794  15.490  14.620   7.345 -0.1386 -0.2187  0.4385
  959YOPC   C1B13795  14.912  14.492   6.562  0.1818 -0.1003 -0.1728
  959YOPC   C2B13796  14.686  14.633   6.908 -0.2527 -0.1365  0.0167
  959YOPC   D3B13797  14.765  14.534   7.331 -0.0797  0.1773 -0.3944
  959YOPC   C4B13798  14.845  14.355   7.586 -0.0183 -0.0374 -0.2412
  960YOPC   NC313799   9.761   6.051   5.557  0.0382  0.0231  0.1846
  960YOPC   PO413800  10.054   6.488   5.478  0.0308  0.1460 -0.0455
  960YOPC   GL113801   9.977   6.856   5.745 -0.0296 -0.4100 -0.0471
  960YOPC   GL213802  10.108   7.174   5.833 -0.1357 -0.1619  0.1339
  960YOPC   C1A13803   9.995   6.791   6.207 -0.1448 -0.1232 -0.1115
  960YOPC   D2A13804   9.988   6.648   6.692 -0.1819  0.0630  0.2749
  960YOPC   C3A13805  10.237   6.522   7.060 -0.1788 -0.0944 -0.1147
  960YOPC   C4A13806  10.244   6.345   7.426 -0.0336 -0.1030 -0.2396
  960YOPC   C1B13807  10.293   7.170   6.224  0.4512  0.3603  0.2935
  960YOPC   C2B13808  10.294   7.044   6.660  0.0628  0.1521  0.5326
  960YOPC   D3B13809  10.061   7.043   7.012 -0.0549 -0.0535 -0.0454
  960YOPC   C4B13810   9.762   6.701   7.251  0.3079 -0.0854 -0.1313
  961YOPC   NC313811   6.354   1.315   5.689  0.0143 -0.3692  0.2182
  961YOPC   PO413812   6.434   0.854   5.593  0.0971  0.2053 -0.1142
  961YOPC   GL113813   6.397   0.795   6.017 -0.1824  0.1811  0.0521
  961YOPC   GL213814   6.227   1.057   6.103  0.1975 -0.2838  0.2005
  961YOPC   C1A13815   6.594   0.845   6.420  0.1346 -0.0124 -0.0527
  961YOPC   D2A13816   6.544   0.762   6.904  0.1017  0.2073  0.0496
  961YOPC   C3A13817   6.513   0.404   7.187  0.2498  0.2198  0.0537
  961YOPC   C4A13818   6.643   0.296   7.508 -0.0916 -0.1464 -0.1118
  961YOPC   C1B13819   6.428   1.358   6.363 -0.0763  0.2749 -0.2225
  961YOPC   C2B13820   6.454   1.546   6.766 -0.0307 -0.0708  0.1650
  961YOPC   D3B13821   6.212   1.725   7.115 -0.1360 -0.0761  0.3499
  961YOPC   C4B13822   6.375   1.797   7.491  0.0840 -0.1060 -0.0186
  962YOPC   NC313823   9.140   6.679   5.387  0.2973  0.3164 -0.0979
  962YOPC   PO413824   9.297   6.249   5.421 -0.0792 -0.4201 -0.1777
  962YOPC   GL113825   9.098   6.340   5.813  0.0107 -0.1595 -0.0061
  962YOPC   GL213826   8.868   6.563   5.895 -0.0070 -0.0961  0.1312
  962YOPC   C1A13827   9.050   6.177   6.236  0.0033  0.2541  0.2853
  962YOPC   D2A13828   9.017   6.119   6.664 -0.0494  0.3555  0.3504
  962YOPC   C3A13829   9.181   5.993   7.073  0.4724  0.3435  0.0375
  962YOPC   C4A13830   8.911   5.700   7.413 -0.3066 -0.0636 -0.1520
  962YOPC   C1B13831   8.880   6.705   6.298 -0.1293 -0.1474 -0.1654
  962YOPC   C2B13832   9.156   6.664   6.574 -0.0465 -0.4202  0.2299
  962YOPC   D3B13833   9.193   6.495   7.038 -0.2058  0.1170 -0.2414
  962YOPC   C4B13834   9.285   6.595   7.508 -0.2095 -0.1000  0.1485
  963YOPC   NC313835   8.957   3.464   5.211 -0.0353 -0.2131 -0.0840
  963YOPC   PO413836   8.624   3.306   5.377 -0.1289 -0.2486 -0.0112
  963YOPC   GL113837   8.771   3.202   5.684  0.3265 -0.0685 -0.1735
  963YOPC   GL213838   8.881   3.465   5.894 -0.0245 -0.2375  0.2730
  963YOPC   C1A13839   9.024   2.986   6.036 -0.0029  0.2420  0.2997
  963YOPC   D2A13840   9.429   3.009   6.245 -0.0677 -0.3958  0.0808
  963YOPC   C3A13841   9.464   3.379   6.443  0.2563 -0.1713 -0.0297
  963YOPC   C4A13842   9.075   3.347   6.615 -0.0425 -0.0184  0.1814
  963YOPC   C1B13843   8.621   3.546   6.147 -0.2593  0.2101  0.1357
  963YOPC   C2B13844   8.521   3.885   6.349  0.1376  0.0599 -0.0129
  963YOPC   D3B13845   8.439   3.986   6.765  0.1255 -0.0520 -0.0099
  963YOPC   C4B13846   8.515   3.868   7.173 -0.1296 -0.2351  0.0044
  964YOPC   NC313847  11.617   0.388   5.187 -0.0375  0.0150 -0.3134
  964YOPC   PO413848  11.854   0.479   5.489 -0.3153  0.0832  0.1750
  964YOPC   GL113849  11.730   0.567   5.874  0.2057  0.1617  0.2075
  964YOPC   GL213850  11.492   0.756   5.963 -0.0347  0.2355  0.2528
  964YOPC   C1A13851  11.801   0.599   6.294 -0.1990  0.4252 -0.0421
  964YOPC   D2A13852  11.984   0.405   6.728  0.3117 -0.0542 -0.3515
  964YOPC   C3A13853  12.339   0.158   6.889  0.3080  0.2194  0.0758
  964YOPC   C4A13854  12.449   0.056   7.304 -0.0477 -0.2949 -0.2699
  964YOPC   C1B13855  11.331   0.543   6.246  0.1746 -0.1167 -0.0213
  964YOPC   C2B13856  11.113   0.383   6.497  0.0823  0.2642 -0.1473
  964YOPC   D3B13857  11.172   0.441   6.923 -0.0486 -0.2168 -0.1833
  964YOPC   C4B13858  11.260   0.264   7.331 -0.1446  0.0460 -0.0596
  965YOPC   NC313859   4.369   4.809   5.597  0.3647 -0.1074  0.3943
  965YOPC   PO413860   4.657   4.721   5.945 -0.2720 -0.1581  0.1489
  965YOPC   GL113861   4.400   5.121   6.032 -0.1981 -0.4728 -0.2778
  965YOPC   GL213862   4.786   5.183   6.145  0.0493 -0.0952  0.1284
  965YOPC   C1A13863   4.102   5.268   6.289  0.0450 -0.0131  0.0219
  965YOPC   D2A13864   3.634   4.996   6.429  0.1136  0.2972 -0.1902
  965YOPC   C3A13865   3.727   4.590   6.662 -0.2197  0.1014  0.0849
  965YOPC   C4A13866   4.023   4.494   6.975 -0.0649 -0.0049  0.1890
  965YOPC   C1B13867   4.699   5.170   6.497 -0.0558 -0.2430 -0.0149
  965YOPC   C2B13868   4.848   5.072   6.826  0.3546 -0.1053 -0.1950
  965YOPC   D3B13869   4.983   5.221   7.135  0.1501 -0.0261  0.5126
  965YOPC   C4B13870   5.190   5.515   7.320 -0.0149 -0.0849 -0.1336
  966YOPC   NC313871   8.675  15.308   5.678  0.0868 -0.1836  0.0977
  966YOPC   PO413872   8.928  14.838   5.673 -0.4023 -0.2551 -0.2263
  966YOPC   GL113873   8.912  15.097   6.080 -0.1822 -0.1147  0.0022
  966YOPC   GL213874   8.696  14.934   6.335  0.0024  0.2249  0.0320
  966YOPC   C1A13875   8.835  15.442   6.431 -0.0297 -0.4389 -0.0682
  966YOPC   D2A13876   8.707  15.504   6.849  0.2550  0.3124 -0.0821
  966YOPC   C3A13877   9.037  15.847   6.980  0.0721  0.2574 -0.2146
  966YOPC   C4A13878   9.204  16.079   7.251  0.2647 -0.2480 -0.1038
  966YOPC   C1B13879   8.592  14.852   6.841  0.0208  0.1365  0.1184
  966YOPC   C2B13880   8.743  14.953   7.205 -0.1812  0.2125 -0.0307
  966YOPC   D3B13881   9.128  14.734   7.426  0.1392  0.0239  0.4225
  966YOPC   C4B13882   9.533  14.829   7.273  0.0601 -0.4104  0.0485
  967YOPC   NC313883   7.583   9.406   5.483  0.0753 -0.0935  0.3850
  967YOPC   PO413884   7.899   9.797   5.609 -0.0195  0.1727 -0.4117
  967YOPC   GL113885   7.721   9.646   6.036 -0.0566  0.1343 -0.4541
  967YOPC   GL213886   7.417   9.473   5.978 -0.1006  0.2218  0.3432
  967YOPC   C1A13887   7.593   9.469   6.463 -0.0356  0.1110 -0.1848
  967YOPC   D2A13888   7.535   9.506   6.942 -0.0554  0.4593  0.0161
  967YOPC   C3A13889   7.876   9.465   7.305  0.1658 -0.0509  0.0592
  967YOPC   C4A13890   8.120   9.544   7.592  0.2189  0.2373 -0.0711
  967YOPC   C1B13891   7.278   9.801   6.202 -0.1139  0.1765 -0.3310
  967YOPC   C2B13892   7.140   9.885   6.582  0.2602 -0.2057 -0.0399
  967YOPC   D3B13893   7.235   9.836   7.070  0.1859  0.0119 -0.2146
  967YOPC   C4B13894   7.472   9.780   7.432  0.0061  0.0389  0.0767
  968YOPC   NC313895   3.936   0.073   5.828  0.2416  0.2390  0.2882
  968YOPC   PO413896   3.602  -0.072   5.722 -0.0715  0.0927 -0.1167
  968YOPC   GL113897   3.467  -0.020   6.110  0.1482  0.1355 -0.0278
  968YOPC   GL213898   3.330  -0.396   6.102  0.0545 -0.1648 -0.1222
  968YOPC   C1A13899   3.711  -0.061   6.515  0.2584  0.5073 -0.0834
  968YOPC   D2A13900   4.066  -0.155   6.897  0.2354  0.1412 -0.0155
  968YOPC   C3A13901   4.046   0.113   7.215  0.0723  0.2580 -0.0066
  968YOPC   C4A13902   4.228   0.211   7.585  0.0844 -0.0581 -0.1427
  968YOPC   C1B13903   3.304  -0.363   6.560  0.1681 -0.1646  0.3582
  968YOPC   C2B13904   3.552  -0.459   6.880 -0.2178 -0.0564  0.3280
  968YOPC   D3B13905   3.434  -0.840   7.154 -0.1138 -0.3626  0.1721
  968YOPC   C4B13906   3.192  -0.915   7.501 -0.0363 -0.3572  0.0887
  969YOPC   NC313907   9.846  17.141   5.842  0.0537  0.2243 -0.1869
  969YOPC   PO413908   9.894  16.670   5.930  0.0113 -0.1179 -0.1212
  969YOPC   GL113909   9.970  16.749   6.433 -0.1120 -0.0290  0.0746
  969YOPC   GL213910   9.680  16.581   6.563  0.2282 -0.4172  0.0626
  969YOPC   C1A13911  10.049  16.851   6.828  0.0947 -0.0822 -0.1726
  969YOPC   D2A13912  10.200  16.934   7.162  0.0489 -0.1395 -0.0876
  969YOPC   C3A13913  10.370  16.683   7.391 -0.0438  0.2862  0.3094
  969YOPC   C4A13914  10.301  16.607   7.776 -0.0191 -0.3314  0.2462
  969YOPC   C1B13915   9.657  16.400   6.989 -0.2041  0.1222 -0.1736
  969YOPC   C2B13916   9.678  16.032   7.349 -0.1281  0.2772  0.0340
  969YOPC   D3B13917   9.930  15.754   7.225  0.1285  0.0566 -0.0522
  969YOPC   C4B13918  10.215  15.379   7.483  0.1869 -0.1635 -0.2289
  970YOPC   NC313919   8.400   8.744   5.011 -0.2450  0.0248 -0.0760
  970YOPC   PO413920   8.383   8.387   5.158  0.0472 -0.0600 -0.1043
  970YOPC   GL113921   8.433   8.373   5.609 -0.1019  0.2099 -0.1050
  970YOPC   GL213922   8.192   8.386   5.740  0.4399 -0.2104 -0.1598
  970YOPC   C1A13923   8.633   8.209   5.938 -0.3297 -0.0617 -0.0461
  970YOPC   D2A13924   8.549   7.902   6.148 -0.0982 -0.0356 -0.0847
  970YOPC   C3A13925   8.814   7.710   6.340  0.1056 -0.3090 -0.0629
  970YOPC   C4A13926   9.357   7.726   6.348 -0.1725 -0.5782  0.2441
  970YOPC   C1B13927   8.122   8.623   6.150 -0.4492 -0.1125  0.0610
  970YOPC   C2B13928   7.909   8.625   6.521 -0.2782  0.1254 -0.1843
  970YOPC   D3B13929   7.917   8.583   6.995 -0.0567  0.3913  0.0932
  970YOPC   C4B13930   7.828   8.827   7.439  0.0460 -0.1668  0.5056
  971YOPC   NC313931  17.018  11.948   4.950 -0.3563 -0.1763  0.3082
  971YOPC   PO413932  16.777  11.676   5.168 -0.0250 -0.4688  0.3096
  971YOPC   GL113933  16.736  11.728   5.574  0.1960  0.0720 -0.1011
  971YOPC   GL213934  16.507  11.381   5.627 -0.1455 -0.2107 -0.2455
  971YOPC   C1A13935  16.763  11.909   6.041 -0.0560  0.3115 -0.2863
  971YOPC   D2A13936  16.826  12.216   6.354 -0.1721 -0.4664  0.1270
  971YOPC   C3A13937  16.593  12.295   6.696  0.1747  0.0933 -0.2375
  971YOPC   C4A13938  16.560  12.483   7.154 -0.0990  0.1433 -0.1433
  971YOPC   C1B13939  16.413  11.328   6.052  0.0063 -0.4259 -0.0058
  971YOPC   C2B13940  16.055  11.368   6.357 -0.4644 -0.1838 -0.1781
  971YOPC   D3B13941  16.060  11.588   6.721 -0.2429 -0.1193  0.1434
  971YOPC   C4B13942  16.170  11.955   7.014  0.0475  0.1875  0.0949
  972YOPC   NC313943  15.475  14.032   5.340 -0.0545 -0.0543 -0.3083
  972YOPC   PO413944  15.424  14.460   5.699  0.3659 -0.5044 -0.1461
  972YOPC   GL113945  15.302  14.239   6.013  0.2987  0.2187 -0.1871
  972YOPC   GL213946  15.314  14.280   6.392 -0.1912  0.1933 -0.0425
  972YOPC   C1A13947  15.477  13.808   6.146 -0.0656 -0.1335  0.0398
  972YOPC   D2A13948  15.411  13.647   6.496  0.4212 -0.3154 -0.0587
  972YOPC   C3A13949  15.804  13.603   6.674  0.1467 -0.0801 -0.1998
  972YOPC   C4A13950  16.217  13.587   6.509 -0.0016  0.1032 -0.3348
  972YOPC   C1B13951  15.464  14.036   6.815  0.0722 -0.0890 -0.0354
  972YOPC   C2B13952  15.194  13.693   7.049  0.2543 -0.0218 -0.2396
  972YOPC   D3B13953  14.747  13.724   7.043  0.1906 -0.1546  0.0280
  972YOPC   C4B13954  14.570  13.829   7.485 -0.1355 -0.0393 -0.2671
  973YOPC   NC313955  14.194   6.194   4.764  0.0605 -0.4524 -0.0279
  973YOPC   PO413956  14.050   6.239   5.165  0.1193 -0.0011  0.2662
  973YOPC   GL113957  14.150   6.229   5.609  0.1764 -0.2226 -0.0391
  973YOPC   GL213958  14.475   6.444   5.696  0.3160  0.1812  0.0471
  973YOPC   C1A13959  13.883   6.104   5.951  0.0502  0.0811 -0.0162
  973YOPC   D2A13960  13.527   6.322   6.182  0.1302 -0.1745 -0.0348
  973YOPC   C3A13961  13.172   6.080   6.385 -0.1406  0.3497  0.3065
  973YOPC   C4A13962  12.905   5.856   6.603 -0.2878  0.1065 -0.3634
  973YOPC   C1B13963  14.835   6.600   6.013  0.1227  0.1254 -0.3054
  973YOPC   C2B13964  14.962   7.026   6.219 -0.0924 -0.3515 -0.0839
  973YOPC   D3B13965  14.902   7.200   6.627 -0.0496  0.3553 -0.3848
  973YOPC   C4B13966  14.673   7.336   7.149 -0.0827  0.0426  0.0477
  974YOPC   NC313967   9.818  10.545   5.237  0.0522 -0.0216 -0.0562
  974YOPC   PO413968   9.740  10.222   5.007  0.3890 -0.1027  0.2732
  974YOPC   GL113969   9.805  10.078   5.363  0.1524 -0.0378 -0.0962
  974YOPC   GL213970  10.032  10.125   5.544  0.1751  0.0252  0.2274
  974YOPC   C1A13971   9.660   9.966   5.811 -0.2608  0.1092  0.1056
  974YOPC   D2A13972   9.702   9.771   6.093  0.0161  0.2770  0.0371
  974YOPC   C3A13973   9.980   9.988   6.326 -0.3599  0.2135 -0.0573
  974YOPC   C4A13974  10.441   9.980   6.342 -0.1397  0.0232 -0.1867
  974YOPC   C1B13975  10.160   9.923   5.910  0.1167  0.4473 -0.1093
  974YOPC   C2B13976  10.180   9.535   6.201  0.2589 -0.1489 -0.0623
  974YOPC   D3B13977  10.424   9.565   6.637 -0.0538 -0.1550  0.1936
  974YOPC   C4B13978  10.582   9.802   6.997  0.1022 -0.1996  0.2967
  975YOPC   NC313979  16.413  14.413   5.304  0.0868  0.2808 -0.0109
  975YOPC   PO413980  16.878  14.582   5.333 -0.1035 -0.0123  0.0339
  975YOPC   GL113981  16.876  14.290   5.749  0.1273  0.1227  0.0720
  975YOPC   GL213982  16.653  13.992   5.769  0.1017 -0.3859 -0.1506
  975YOPC   C1A13983  16.955  14.317   6.200 -0.0616 -0.0127 -0.0759
  975YOPC   D2A13984  16.952  14.599   6.513 -0.1497 -0.0252  0.0784
  975YOPC   C3A13985  16.787  14.672   6.920  0.1924  0.1010 -0.0562
  975YOPC   C4A13986  16.713  14.700   7.299  0.0215 -0.0464 -0.0174
  975YOPC   C1B13987  16.747  13.945   6.298  0.2763  0.0050  0.0922
  975YOPC   C2B13988  17.006  14.103   6.669 -0.0011 -0.0344 -0.1850
  975YOPC   D3B13989  17.202  14.374   6.959 -0.0753  0.0628  0.0045
  975YOPC   C4B13990  17.217  14.851   7.045 -0.1030  0.0154  0.0069
  976YOPC   NC313991  11.370   3.574   4.834 -0.3921  0.1853  0.1515
  976YOPC   PO413992  11.054   3.631   5.208 -0.0958 -0.1265  0.1595
  976YOPC   GL113993  10.879   3.845   5.636 -0.1347 -0.1590  0.1054
  976YOPC   GL213994  11.343   3.903   5.677  0.0898 -0.1421 -0.3384
  976YOPC   C1A13995  10.953   3.802   6.083 -0.0346  0.0796  0.3107
  976YOPC   D2A13996  10.786   3.788   6.448 -0.0916  0.1008  0.0802
  976YOPC   C3A13997  10.444   4.117   6.609 -0.3403  0.0064 -0.1226
  976YOPC   C4A13998  10.137   4.467   6.700  0.1579  0.2306 -0.0525
  976YOPC   C1B13999  11.475   3.800   6.110  0.0818  0.0085  0.0426
  976YOPC   C2B14000  11.309   3.609   6.387  0.0829 -0.0395  0.1114
  976YOPC   D3B14001  11.133   3.705   6.786  0.2017 -0.0424  0.2775
  976YOPC   C4B14002  10.773   3.842   6.989  0.0435 -0.0631  0.3009
  977YOPC   NC314003   2.548   5.247   5.400 -0.1155 -0.1691 -0.1040
  977YOPC   PO414004   2.581   5.589   5.720  0.2321  0.2248 -0.2894
  977YOPC   GL114005   2.583   5.835   6.140  0.3212  0.2296 -0.0160
  977YOPC   GL214006   2.660   5.662   6.441 -0.3441  0.4814  0.1552
  977YOPC   C1A14007   2.604   6.153   6.489  0.0319  0.3328 -0.0069
  977YOPC   D2A14008   2.574   6.469   6.833 -0.2561 -0.5142  0.4088
  977YOPC   C3A14009   2.430   6.527   7.234  0.0444 -0.2448  0.1606
  977YOPC   C4A14010   2.228   6.099   7.317 -0.0710  0.1179  0.1510
  977YOPC   C1B14011   2.632   5.268   6.702  0.2761 -0.3346 -0.0875
  977YOPC   C2B14012   2.788   5.066   7.040  0.2527  0.0129  0.0435
  977YOPC   D3B14013   2.656   4.753   7.232 -0.0461 -0.0471  0.3967
  977YOPC   C4B14014   2.634   4.454   7.543 -0.1452 -0.2429 -0.1128
  978YOPC   NC314015   5.740  15.162   5.356 -0.2637  0.0403  0.1031
  978YOPC   PO414016   5.432  15.441   5.534  0.1041 -0.0426  0.0416
  978YOPC   GL114017   5.565  15.558   5.962 -0.1777  0.0677 -0.0167
  978YOPC   GL214018   5.371  15.354   6.061  0.1319  0.0815 -0.2010
  978YOPC   C1A14019   5.592  15.831   6.274  0.1145 -0.0316 -0.2113
  978YOPC   D2A14020   5.811  16.002   6.494  0.0727  0.0416  0.3275
  978YOPC   C3A14021   5.812  15.886   6.861 -0.2025  0.2945 -0.4023
  978YOPC   C4A14022   5.815  15.882   7.281  0.1911  0.2154  0.1429
  978YOPC   C1B14023   5.168  15.575   6.535 -0.0586  0.1063 -0.0557
  978YOPC   C2B14024   5.035  15.540   7.006  0.2875 -0.0374 -0.1493
  978YOPC   D3B14025   4.641  15.556   7.176 -0.0737 -0.2920 -0.0632
  978YOPC   C4B14026   4.412  15.225   7.265 -0.0139 -0.1585  0.0314
  979YOPC   NC314027   9.277   7.987   5.165  0.2287 -0.0439 -0.1128
  979YOPC   PO414028   9.653   7.861   5.342 -0.1814 -0.1606  0.0335
  979YOPC   GL114029   9.652   8.122   5.752 -0.2287  0.0910 -0.1030
  979YOPC   GL214030   9.493   8.536   5.924 -0.0648 -0.3190  0.2343
  979YOPC   C1A14031   9.835   7.966   6.172 -0.1101 -0.3721 -0.0448
  979YOPC   D2A14032  10.174   7.920   6.491 -0.0439 -0.0648 -0.3915
  979YOPC   C3A14033  10.097   7.885   6.996  0.1837  0.2010  0.0742
  979YOPC   C4A14034   9.831   7.679   7.303  0.0621 -0.3734 -0.1603
  979YOPC   C1B14035   9.495   8.276   6.416  0.0077  0.2923  0.2501
  979YOPC   C2B14036   9.658   7.929   6.674  0.1400  0.0935 -0.0875
  979YOPC   D3B14037   9.449   7.978   7.121 -0.1609 -0.3265  0.0649
  979YOPC   C4B14038   9.448   7.955   7.617  0.1411  0.0938  0.2604
  980YOPC   NC314039   0.660  16.318   4.725  0.2924 -0.0967  0.0154
  980YOPC   PO414040   0.507  16.655   5.060 -0.0541 -0.1900 -0.0922
  980YOPC   GL114041   0.531  16.829   5.482  0.1621 -0.0587  0.1783
  980YOPC   GL214042   0.888  16.826   5.583 -0.0642 -0.1179  0.0715
  980YOPC   C1A14043   0.693  17.193   5.876  0.0218 -0.3036  0.1432
  980YOPC   D2A14044   0.901  17.284   6.237  0.0539 -0.1346  0.0415
  980YOPC   C3A14045   0.759  17.607   6.408  0.1965  0.0816  0.2942
  980YOPC   C4A14046   0.475  18.020   6.603  0.2252 -0.0279 -0.0360
  980YOPC   C1B14047   0.838  16.772   6.073 -0.0005 -0.0350 -0.0762
  980YOPC   C2B14048   0.777  16.783   6.643 -0.1311  0.2060 -0.2508
  980YOPC   D3B14049   0.980  17.014   7.066  0.1884  0.0655  0.0488
  980YOPC   C4B14050   1.015  17.321   7.035  0.0186 -0.0903  0.5525
  981YOPC   NC314051   0.545   0.323   5.160  0.1405 -0.2652 -0.0262
  981YOPC   PO414052   0.943   0.496   5.299 -0.0458 -0.2239 -0.0390
  981YOPC   GL114053   1.106   0.375   5.664  0.1964 -0.0219 -0.0825
  981YOPC   GL214054   1.462   0.442   5.715 -0.2006 -0.3339  0.3785
  981YOPC   C1A14055   1.080   0.531   6.124  0.1212  0.0788  0.0160
  981YOPC   D2A14056   1.122   0.458   6.526 -0.2634 -0.1231 -0.0661
  981YOPC   C3A14057   1.491   0.473   6.651  0.3759 -0.1113  0.1405
  981YOPC   C4A14058   1.786   0.481   6.868 -0.5052  0.3089 -0.1316
  981YOPC   C1B14059   1.607   0.484   6.156 -0.1267  0.2509  0.0651
  981YOPC   C2B14060   1.961   0.242   6.451 -0.3280  0.0578  0.2366
  981YOPC   D3B14061   1.933  -0.076   6.777 -0.1869  0.2571  0.2608
  981YOPC   C4B14062   1.760  -0.432   7.204 -0.2618  0.1216 -0.0501
  982YOPC   NC314063   5.812   8.906   5.412  0.1550  0.0303  0.0261
  982YOPC   PO414064   6.145   9.084   5.268 -0.1992 -0.1083 -0.0357
  982YOPC   GL114065   6.102   9.173   5.706  0.0905  0.2220 -0.4867
  982YOPC   GL214066   6.467   9.233   5.713  0.0721  0.0079  0.0183
  982YOPC   C1A14067   6.068   9.541   6.090  0.0992 -0.1182  0.0284
  982YOPC   D2A14068   6.209   9.637   6.478 -0.0305 -0.3373 -0.1868
  982YOPC   C3A14069   6.231   9.909   6.831  0.0416  0.0712 -0.0427
  982YOPC   C4A14070   6.343  10.205   7.098  0.0134 -0.1324 -0.2432
  982YOPC   C1B14071   6.336   8.947   6.080 -0.0359 -0.2134  0.2235
  982YOPC   C2B14072   5.956   8.984   6.329  0.1604 -0.1284  0.0451
  982YOPC   D3B14073   5.638   9.192   6.147 -0.0510 -0.1787  0.0491
  982YOPC   C4B14074   5.645   9.493   5.799  0.1508 -0.0361 -0.3444
  983YOPC   NC314075  17.362  14.195   5.002  0.0104  0.2097  0.2570
  983YOPC   PO414076  16.987  14.049   5.258 -0.1998  0.1633 -0.0561
  983YOPC   GL114077  16.931  13.716   5.510  0.0424  0.1809 -0.0235
  983YOPC   GL214078  17.238  13.732   5.579 -0.0773 -0.0936  0.0803
  983YOPC   C1A14079  16.996  13.321   5.572 -0.1253 -0.1244  0.1029
  983YOPC   D2A14080  17.323  13.191   5.517 -0.0214 -0.0958 -0.0584
  983YOPC   C3A14081  17.496  13.193   5.876 -0.1338  0.2287 -0.0787
  983YOPC   C4A14082  17.609  13.689   5.980  0.0812 -0.1185 -0.0554
  983YOPC   C1B14083  17.213  13.980   5.909  0.1721  0.0972 -0.0540
  983YOPC   C2B14084  17.314  13.878   6.353 -0.1157  0.2757  0.2141
  983YOPC   D3B14085  17.506  13.452   6.451  0.0700 -0.0731 -0.0872
  983YOPC   C4B14086  17.617  13.303   6.806  0.0458 -0.4393  0.4226
  984YOPC   NC314087   2.210   1.032   5.422 -0.0209  0.2436 -0.1564
  984YOPC   PO414088   2.029   1.344   5.747  0.1999  0.1264 -0.3084
  984YOPC   GL114089   2.211   1.286   6.175  0.0325  0.1285 -0.0354
  984YOPC   GL214090   2.166   1.544   6.288 -0.3082  0.1126 -0.2788
  984YOPC   C1A14091   2.484   1.098   6.500  0.0998  0.3525 -0.2633
  984YOPC   D2A14092   2.512   1.088   6.944 -0.0768 -0.0964  0.3104
  984YOPC   C3A14093   2.986   0.985   7.057  0.0951  0.0865  0.0775
  984YOPC   C4A14094   3.379   0.584   6.982  0.0291  0.0886 -0.3037
  984YOPC   C1B14095   2.185   1.659   6.785 -0.3422  0.0328  0.0963
  984YOPC   C2B14096   2.040   1.776   7.228 -0.2200 -0.0368 -0.0757
  984YOPC   D3B14097   2.361   2.027   7.536 -0.3963  0.2653  0.0719
  984YOPC   C4B14098   2.365   2.353   7.877  0.1238 -0.0099 -0.2575
  985YOPC   NC314099   0.473   6.248   5.325 -0.1286  0.0980  0.1329
  985YOPC   PO414100   0.583   6.629   5.453 -0.0238 -0.0502  0.1440
  985YOPC   GL114101   0.626   6.532   5.885  0.0674 -0.0865  0.0134
  985YOPC   GL214102   0.435   6.794   6.060  0.0236 -0.0625 -0.1689
  985YOPC   C1A14103   0.637   6.208   6.327  0.2413  0.3325  0.1705
  985YOPC   D2A14104   0.837   5.842   6.613 -0.2653 -0.0047 -0.2787
  985YOPC   C3A14105   1.166   5.803   6.862 -0.2914  0.2514 -0.1436
  985YOPC   C4A14106   1.355   5.981   7.208  0.1407 -0.1638  0.6079
  985YOPC   C1B14107   0.221   6.501   6.417  0.0612 -0.3365 -0.1633
  985YOPC   C2B14108   0.406   6.467   6.882 -0.0821 -0.1797 -0.1723
  985YOPC   D3B14109   0.597   6.582   7.324 -0.0659  0.0707 -0.0163
  985YOPC   C4B14110   0.533   6.415   7.668 -0.0116  0.0048  0.5163
  986YOPC   NC314111   0.002  18.644   5.066  0.0926 -0.0993 -0.0132
  986YOPC   PO414112  -0.075  18.254   5.133 -0.1355  0.2061  0.2611
  986YOPC   GL114113  -0.145  18.302   5.600 -0.2265  0.1597  0.1350
  986YOPC   GL214114   0.133  18.368   5.867  0.0050 -0.1424 -0.2420
  986YOPC   C1A14115  -0.407  18.338   5.949 -0.0064  0.2634 -0.0298
  986YOPC   D2A14116  -0.627  17.961   6.131  0.2805  0.0350 -0.0268
  986YOPC   C3A14117  -0.569  17.783   6.464 -0.7765  0.0948 -0.0084
  986YOPC   C4A14118  -0.278  17.432   6.582 -0.3612  0.0990 -0.0411
  986YOPC   C1B14119  -0.156  18.693   6.177 -0.2568  0.3654 -0.2969
  986YOPC   C2B14120  -0.333  19.134   6.337 -0.2808 -0.3062  0.1973
  986YOPC   D3B14121  -0.380  19.156   6.747  0.1093  0.5242  0.0239
  986YOPC   C4B14122  -0.821  19.269   7.083  0.0720 -0.0131  0.0241
  987YOPC   NC314123   1.243   3.778   5.781 -0.1977  0.2625  0.1215
  987YOPC   PO414124   1.243   3.340   5.811  0.1066  0.1998  0.0664
  987YOPC   GL114125   1.081   3.141   6.196 -0.3957  0.0579  0.0892
  987YOPC   GL214126   1.016   2.862   6.394 -0.3326  0.4063 -0.0148
  987YOPC   C1A14127   0.988   3.172   6.723 -0.0691 -0.2572  0.2346
  987YOPC   D2A14128   0.760   3.271   7.109 -0.3736  0.3476  0.1052
  987YOPC   C3A14129   0.470   3.152   7.353  0.2025 -0.3722 -0.0646
  987YOPC   C4A14130   0.275   2.909   7.590  0.2489  0.2323 -0.3570
  987YOPC   C1B14131   0.695   2.786   6.648  0.1111 -0.0711  0.1041
  987YOPC   C2B14132   0.373   2.860   6.972 -0.1466  0.0075 -0.0600
  987YOPC   D3B14133  -0.031   2.963   7.128 -0.1472 -0.0642  0.0423
  987YOPC   C4B14134  -0.509   2.786   7.341 -0.1376 -0.1053 -0.0890
  988YOPC   NC314135   5.391  17.957   5.221 -0.0199  0.2066  0.0986
  988YOPC   PO414136   5.158  18.068   5.560  0.0635 -0.1262  0.0419
  988YOPC   GL114137   5.166  17.956   5.941  0.0289 -0.0456  0.0470
  988YOPC   GL214138   5.103  18.169   6.208 -0.1667  0.1893  0.0521
  988YOPC   C1A14139   4.998  17.684   6.203  0.1504  0.1248  0.6395
  988YOPC   D2A14140   4.729  17.335   6.296  0.1881  0.1656 -0.0901
  988YOPC   C3A14141   4.358  17.406   6.437  0.0083  0.2393 -0.0564
  988YOPC   C4A14142   4.102  17.517   6.823 -0.1797  0.1349 -0.0696
  988YOPC   C1B14143   5.096  18.018   6.572 -0.1430 -0.0135 -0.0180
  988YOPC   C2B14144   5.328  17.906   6.991  0.1034 -0.2580  0.1127
  988YOPC   D3B14145   5.412  17.899   7.465  0.1122 -0.0425 -0.1651
  988YOPC   C4B14146   5.686  17.693   7.765 -0.0540 -0.2159 -0.2049
  989YOPC   NC314147   5.251   6.576   5.637 -0.2390  0.2875 -0.1499
  989YOPC   PO414148   4.831   6.857   5.746 -0.2514 -0.1321  0.0519
  989YOPC   GL114149   4.796   7.239   5.837  0.0832  0.1326 -0.2420
  989YOPC   GL214150   5.108   7.229   5.876  0.0240 -0.3302  0.1568
  989YOPC   C1A14151   4.504   7.265   6.158 -0.0434 -0.1429  0.5605
  989YOPC   D2A14152   4.575   7.523   6.601 -0.1614 -0.1534  0.1669
  989YOPC   C3A14153   4.182   7.504   6.830  0.1735 -0.0966  0.0437
  989YOPC   C4A14154   3.996   7.681   7.275 -0.0128 -0.1726 -0.1348
  989YOPC   C1B14155   5.069   7.280   6.355 -0.2575 -0.2233 -0.2178
  989YOPC   C2B14156   5.092   7.013   6.814  0.5836 -0.1006 -0.1564
  989YOPC   D3B14157   5.167   6.911   7.218 -0.3388  0.2180  0.1283
  989YOPC   C4B14158   5.234   7.029   7.696  0.0088 -0.0978 -0.1448
  990YOPC   NC314159   0.036  17.029   5.112  0.0876  0.1061 -0.1951
  990YOPC   PO414160  -0.259  17.316   5.298  0.2809  0.0708 -0.2677
  990YOPC   GL114161  -0.296  17.199   5.704  0.1291  0.0558 -0.3939
  990YOPC   GL214162  -0.554  16.946   5.788 -0.2945  0.2263 -0.0081
  990YOPC   C1A14163  -0.544  17.308   6.120 -0.0946  0.1059  0.0393
  990YOPC   D2A14164  -0.732  17.311   6.543  0.1666  0.1604 -0.0268
  990YOPC   C3A14165  -0.856  17.688   6.913 -0.0252  0.0077  0.1000
  990YOPC   C4A14166  -0.927  17.868   7.237 -0.1634  0.0293 -0.0927
  990YOPC   C1B14167  -0.215  16.827   6.021 -0.0946  0.1978  0.3989
  990YOPC   C2B14168  -0.252  16.919   6.480  0.1441 -0.0687 -0.1548
  990YOPC   D3B14169  -0.028  16.964   6.827  0.3744 -0.1677  0.0652
  990YOPC   C4B14170  -0.071  16.966   7.169 -0.0675  0.1429 -0.3276
  991YOPC   NC314171  18.218   5.905   5.353  0.4055  0.0870 -0.4257
  991YOPC   PO414172  18.032   5.617   5.534  0.1862  0.1827 -0.0584
  991YOPC   GL114173  17.924   5.470   5.916  0.2523  0.0802 -0.0089
  991YOPC   GL214174  17.887   5.741   6.123 -0.0004  0.1739 -0.1980
  991YOPC   C1A14175  18.023   5.240   6.325  0.0433 -0.0263  0.1872
  991YOPC   D2A14176  18.262   5.366   6.641  0.2618 -0.0739  0.0273
  991YOPC   C3A14177  18.194   5.243   7.081  0.0381  0.1497  0.0853
  991YOPC   C4A14178  18.153   5.202   7.452  0.0408  0.2252  0.1377
  991YOPC   C1B14179  17.860   5.679   6.523  0.0295 -0.3206  0.2064
  991YOPC   C2B14180  17.684   5.726   6.962  0.2825 -0.1082 -0.2044
  991YOPC   D3B14181  17.963   5.678   7.193 -0.0970 -0.1558  0.0865
  991YOPC   C4B14182  18.021   5.876   7.451 -0.0395 -0.2404 -0.0255
  992YOPC   NC314183  11.886  14.271   5.749  0.1564 -0.0414 -0.1615
  992YOPC   PO414184  11.720  14.450   6.119 -0.2550  0.0612 -0.0526
  992YOPC   GL114185  11.526  14.548   6.448  0.1097  0.0218  0.3514
  992YOPC   GL214186  11.700  14.359   6.658  0.2158 -0.1379  0.3106
  992YOPC   C1A14187  11.410  14.728   6.846 -0.3012  0.0803  0.1181
  992YOPC   D2A14188  11.435  14.680   7.194  0.1379  0.0957 -0.2423
  992YOPC   C3A14189  11.571  14.380   7.217  0.1471  0.2604  0.1328
  992YOPC   C4A14190  11.435  13.992   6.949  0.1478  0.0693  0.2389
  992YOPC   C1B14191  12.033  14.342   6.748  0.0049  0.1599  0.1859
  992YOPC   C2B14192  12.565  14.212   6.588  0.2515 -0.0812  0.2091
  992YOPC   D3B14193  12.882  13.984   6.798  0.1368 -0.1238  0.1461
  992YOPC   C4B14194  13.225  13.854   6.970  0.1825 -0.2978  0.1296
  993YOPC   NC314195  15.804  18.259   5.444 -0.0157  0.3898  0.0381
  993YOPC   PO414196  16.170  17.987   5.698 -0.2689  0.2543 -0.3233
  993YOPC   GL114197  16.094  17.761   6.069  0.2322 -0.1374 -0.0081
  993YOPC   GL214198  15.736  17.905   6.081 -0.1627 -0.2191 -0.2017
  993YOPC   C1A14199  16.041  17.506   6.359  0.1732 -0.4636 -0.0797
  993YOPC   D2A14200  15.987  17.241   6.681 -0.2182 -0.3478 -0.1828
  993YOPC   C3A14201  16.346  17.295   6.906  0.0529  0.2335 -0.0025
  993YOPC   C4A14202  16.478  17.093   7.337  0.1911 -0.0943  0.1382
  993YOPC   C1B14203  15.443  18.113   6.406  0.2543  0.0764  0.0927
  993YOPC   C2B14204  15.462  18.104   6.833 -0.1532 -0.0013  0.1382
  993YOPC   D3B14205  15.619  17.966   7.213  0.2815 -0.1203 -0.2124
  993YOPC   C4B14206  15.502  18.028   7.610 -0.2307  0.0062  0.1179
  994YOPC   NC314207   4.791   8.183   5.551  0.0923  0.2673  0.0899
  994YOPC   PO414208   5.011   8.527   5.811 -0.4034  0.2051 -0.0161
  994YOPC   GL114209   5.005   8.809   6.097 -0.2923 -0.2003 -0.4370
  994YOPC   GL214210   5.368   8.793   6.121 -0.1318 -0.0398 -0.2114
  994YOPC   C1A14211   4.980   9.002   6.502  0.0270 -0.1688 -0.0020
  994YOPC   D2A14212   5.101   8.944   6.944 -0.2005 -0.2204  0.1335
  994YOPC   C3A14213   5.395   8.758   7.100  0.1496 -0.3159 -0.2005
  994YOPC   C4A14214   5.863   8.762   7.007 -0.0433  0.0585 -0.0457
  994YOPC   C1B14215   5.637   8.602   6.533 -0.0215 -0.2292  0.0522
  994YOPC   C2B14216   5.573   8.291   6.882 -0.0479 -0.1088  0.1066
  994YOPC   D3B14217   5.560   8.356   7.352  0.1631  0.0798  0.0420
  994YOPC   C4B14218   5.937   8.172   7.631  0.2890  0.3703  0.3755
  995YOPC   NC314219   4.465  18.894   6.065 -0.1579  0.0829 -0.0952
  995YOPC   PO414220   4.201  18.658   5.752  0.1086 -0.3184  0.3545
  995YOPC   GL114221   4.389  18.415   6.120  0.0889  0.0640  0.1093
  995YOPC   GL214222   4.760  18.473   6.170  0.1241 -0.0717  0.0592
  995YOPC   C1A14223   4.238  18.178   6.476 -0.1492 -0.0859 -0.2285
  995YOPC   D2A14224   4.295  17.975   6.854  0.0855  0.2482  0.3597
  995YOPC   C3A14225   4.583  17.676   6.968  0.1944 -0.1629  0.1215
  995YOPC   C4A14226   4.951  17.486   6.800 -0.1830  0.2767 -0.4877
  995YOPC   C1B14227   4.618  18.587   6.568 -0.4936 -0.1658 -0.3260
  995YOPC   C2B14228   4.312  18.517   6.842  0.3447 -0.2691 -0.2389
  995YOPC   D3B14229   3.940  18.555   6.626 -0.1232 -0.1908  0.1341
  995YOPC   C4B14230   3.862  18.107   6.761 -0.0102  0.0523 -0.2205
  996YOPC   NC314231  13.159  13.268   5.340  0.0051  0.1633 -0.0577
  996YOPC   PO414232  12.820  13.026   5.462 -0.6018 -0.0396 -0.2411
  996YOPC   GL114233  12.870  13.142   5.870 -0.2298 -0.0387 -0.0472
  996YOPC   GL214234  13.071  13.423   5.911 -0.4445  0.1235  0.3297
  996YOPC   C1A14235  12.983  13.006   6.216 -0.0038 -0.1135  0.1687
  996YOPC   D2A14236  13.169  12.986   6.520  0.0044  0.4520 -0.1106
  996YOPC   C3A14237  13.597  13.078   6.548  0.1442 -0.1558 -0.0544
  996YOPC   C4A14238  13.889  13.381   6.525  0.1450 -0.0653  0.0384
  996YOPC   C1B14239  12.667  13.631   5.992  0.0097 -0.0964  0.1762
  996YOPC   C2B14240  12.505  13.771   6.299  0.4297  0.0716 -0.1166
  996YOPC   D3B14241  12.618  13.530   6.675 -0.2134  0.2467  0.2156
  996YOPC   C4B14242  12.820  13.648   7.140  0.1897 -0.0088  0.0323
  997YOPC   NC314243  10.581  17.834   5.673 -0.0479 -0.0876 -0.0462
  997YOPC   PO414244  10.103  17.942   5.542  0.2640  0.3224  0.0792
  997YOPC   GL114245  10.288  18.027   5.996 -0.0574  0.1252  0.0880
  997YOPC   GL214246  10.426  17.794   6.207 -0.1492 -0.1147  0.4356
  997YOPC   C1A14247  10.327  18.442   6.113 -0.0405 -0.1646 -0.0931
  997YOPC   D2A14248  10.000  18.837   6.155 -0.2079 -0.2256  0.0934
  997YOPC   C3A14249   9.707  18.734   6.469  0.1511  0.2726 -0.0510
  997YOPC   C4A14250   9.724  18.765   6.852  0.2225  0.3353 -0.1255
  997YOPC   C1B14251  10.323  17.691   6.541 -0.1028  0.3164  0.0350
  997YOPC   C2B14252  10.426  17.698   7.017 -0.1134 -0.1306  0.2793
  997YOPC   D3B14253  10.406  17.540   7.356  0.1252  0.0747  0.3810
  997YOPC   C4B14254  10.189  17.669   7.738 -0.0387 -0.0723 -0.1658
  998YOPC   NC314255  12.546   0.060   4.991  0.1329  0.0944  0.0742
  998YOPC   PO414256  12.692   0.336   5.299 -0.1813  0.0006 -0.3198
  998YOPC   GL114257  12.894   0.192   5.662  0.0120 -0.1557  0.1353
  998YOPC   GL214258  12.586   0.123   5.768 -0.2920  0.4974  0.0009
  998YOPC   C1A14259  12.958   0.333   6.121  0.1535 -0.0401 -0.1182
  998YOPC   D2A14260  12.847   0.352   6.581  0.0944  0.2065  0.0892
  998YOPC   C3A14261  13.101   0.682   6.740  0.0104  0.1281 -0.0223
  998YOPC   C4A14262  13.143   1.107   6.589  0.0212 -0.2338  0.1730
  998YOPC   C1B14263  12.109   0.074   5.919  0.3120 -0.1489  0.0264
  998YOPC   C2B14264  11.909   0.159   6.288  0.3509 -0.3651  0.2357
  998YOPC   D3B14265  11.983  -0.122   6.643 -0.0837  0.0917  0.2318
  998YOPC   C4B14266  12.009  -0.134   7.087 -0.0544 -0.2446  0.0378
  999YOPC   NC314267  10.571  17.312   6.107 -0.2273 -0.0781  0.0412
  999YOPC   PO414268  10.314  16.982   5.955  0.1700  0.0016 -0.1919
  999YOPC   GL114269  10.488  16.954   6.382  0.3018  0.2359 -0.1106
  999YOPC   GL214270  10.484  16.715   6.352 -0.0226  0.0100 -0.2582
  999YOPC   C1A14271  10.530  17.164   6.744 -0.1061  0.3646  0.0324
  999YOPC   D2A14272  10.798  17.538   6.688 -0.0987  0.0264 -0.2125
  999YOPC   C3A14273  10.920  17.853   6.407  0.2359 -0.0239  0.1464
  999YOPC   C4A14274  11.129  17.840   6.121  0.4285 -0.1090 -0.3501
  999YOPC   C1B14275  10.465  16.657   6.868 -0.3191 -0.1066  0.1503
  999YOPC   C2B14276  10.749  16.458   7.200  0.0692  0.0076  0.2544
  999YOPC   D3B14277  10.891  16.725   7.573 -0.1028  0.0738 -0.1289
  999YOPC   C4B14278  11.228  17.081   7.511  0.0671  0.1245  0.1608
 1000YOPC   NC314279   1.668   7.440   5.436  0.2260 -0.1527  0.0717
 1000YOPC   PO414280   2.086   7.308   5.570  0.1126  0.5851 -0.0870
 1000YOPC   GL114281   1.890   7.079   5.996  0.2730 -0.3566  0.1453
 1000YOPC   GL214282   1.932   6.860   6.046 -0.3722  0.1452  0.1498
 1000YOPC   C1A14283   1.783   7.393   6.327  0.1034  0.2047  0.0545
 1000YOPC   D2A14284   1.477   7.558   6.505  0.2320  0.0446 -0.2720
 1000YOPC   C3A14285   1.479   7.650   6.991 -0.0064  0.1795 -0.1660
 1000YOPC   C4A14286   1.660   7.571   7.316 -0.1490  0.3107 -0.1643
 1000YOPC   C1B14287   2.160   6.967   6.403  0.0476 -0.0526 -0.2473
 1000YOPC   C2B14288   2.224   6.846   6.875  0.0206 -0.2246 -0.1674
 1000YOPC   D3B14289   2.436   7.197   7.064  0.0682 -0.1886  0.0779
 1000YOPC   C4B14290   2.723   7.449   7.388  0.2476  0.1122  0.1479
 1001YOPC   NC314291  17.282  18.287   5.355  0.1707  0.2095 -0.0104
 1001YOPC   PO414292  17.503  18.631   5.547  0.0133  0.0051  0.1058
 1001YOPC   GL114293  17.612  18.547   5.908 -0.2907 -0.1426  0.4326
 1001YOPC   GL214294  17.408  18.556   6.072  0.1904  0.0747  0.1959
 1001YOPC   C1A14295  17.840  18.316   6.229 -0.0655  0.4816  0.2321
 1001YOPC   D2A14296  18.161  18.218   6.485 -0.1439  0.3441  0.2232
 1001YOPC   C3A14297  18.247  18.303   6.918 -0.1071  0.5001 -0.0367
 1001YOPC   C4A14298  18.263  18.338   7.375 -0.2122 -0.1109 -0.2473
 1001YOPC   C1B14299  17.185  18.792   6.259  0.2027 -0.1502  0.1795
 1001YOPC   C2B14300  17.311  19.189   6.533 -0.2684  0.0708 -0.1425
 1001YOPC   D3B14301  17.140  19.225   6.955  0.0536 -0.0059 -0.1189
 1001YOPC   C4B14302  17.114  19.195   7.393 -0.2854  0.0529 -0.2529
 1002YOPC   NC314303   7.293  14.013   5.448 -0.0187 -0.3587 -0.6237
 1002YOPC   PO414304   6.873  13.799   5.617  0.1146 -0.0101 -0.1405
 1002YOPC   GL114305   6.712  13.844   6.043  0.1264  0.0249 -0.2294
 1002YOPC   GL214306   6.443  14.109   6.098 -0.1478  0.5215  0.0541
 1002YOPC   C1A14307   6.475  13.557   6.330 -0.1687 -0.0570 -0.1258
 1002YOPC   D2A14308   6.094  13.615   6.562 -0.0313 -0.0653  0.1334
 1002YOPC   C3A14309   6.020  13.776   6.964 -0.0780  0.0229  0.1268
 1002YOPC   C4A14310   5.695  13.639   7.269 -0.0425 -0.1404 -0.1382
 1002YOPC   C1B14311   6.027  14.045   6.290 -0.2870  0.1189 -0.2113
 1002YOPC   C2B14312   5.594  14.129   6.357 -0.1489 -0.0533 -0.0070
 1002YOPC   D3B14313   5.388  13.925   6.691 -0.0883 -0.0344 -0.2154
 1002YOPC   C4B14314   5.161  13.690   6.952  0.2126  0.0217 -0.2164
 1003YOPC   NC314315   0.465  14.193   5.294  0.0382 -0.0455 -0.1204
 1003YOPC   PO414316   0.594  14.571   5.051  0.2867 -0.1357 -0.1010
 1003YOPC   GL114317   0.827  14.526   5.379  0.2318  0.1237  0.1463
 1003YOPC   GL214318   1.074  14.561   5.660 -0.6128  0.0699  0.0912
 1003YOPC   C1A14319   0.712  14.345   5.894  0.1090  0.0091  0.2175
 1003YOPC   D2A14320   0.900  14.457   6.255  0.1071 -0.1508 -0.0156
 1003YOPC   C3A14321   0.978  14.136   6.509 -0.3649 -0.2590 -0.0016
 1003YOPC   C4A14322   1.040  13.719   6.589 -0.1415 -0.1931 -0.1129
 1003YOPC   C1B14323   1.362  14.738   5.954  0.0998  0.2271 -0.0827
 1003YOPC   C2B14324   1.738  14.720   6.233  0.0754 -0.2864  0.3205
 1003YOPC   D3B14325   1.660  14.677   6.590 -0.3123  0.2819  0.2252
 1003YOPC   C4B14326   1.674  14.875   6.903 -0.2502  0.0922  0.0341
 1004YOPC   NC314327   3.424   7.730   5.587 -0.2637 -0.1326  0.1978
 1004YOPC   PO414328   3.427   8.162   5.528 -0.0563  0.2670  0.2312
 1004YOPC   GL114329   3.259   8.195   5.964  0.3255 -0.0364 -0.0492
 1004YOPC   GL214330   2.932   8.254   5.962 -0.1568  0.0253  0.4556
 1004YOPC   C1A14331   3.160   8.099   6.404  0.2437 -0.1148  0.2514
 1004YOPC   D2A14332   3.236   7.998   6.880  0.0099  0.0271  0.0578
 1004YOPC   C3A14333   3.232   8.421   7.202 -0.1748 -0.2317 -0.6113
 1004YOPC   C4A14334   2.939   8.324   7.532  0.3415  0.2826 -0.4220
 1004YOPC   C1B14335   3.202   8.587   6.235  0.2065  0.1094 -0.0545
 1004YOPC   C2B14336   2.902   8.617   6.494  0.1137 -0.3792 -0.1409
 1004YOPC   D3B14337   2.947   8.621   6.839  0.1595 -0.1034 -0.0413
 1004YOPC   C4B14338   2.745   8.349   7.072  0.1087  0.3414 -0.1493
 1005YOPC   NC314339   7.365   4.672   5.569  0.1547  0.0652 -0.2471
 1005YOPC   PO414340   7.615   4.580   5.705 -0.1845 -0.5657 -0.1983
 1005YOPC   GL114341   7.567   4.755   6.102  0.2143 -0.1576 -0.0851
 1005YOPC   GL214342   7.387   4.932   6.123 -0.0967 -0.4365 -0.0642
 1005YOPC   C1A14343   7.400   4.665   6.534 -0.0070 -0.0559 -0.2920
 1005YOPC   D2A14344   7.436   4.370   6.929  0.0568  0.1577  0.1648
 1005YOPC   C3A14345   7.158   4.373   7.326  0.0849 -0.0042  0.0384
 1005YOPC   C4A14346   7.095   4.416   7.779  0.1723 -0.0267  0.1262
 1005YOPC   C1B14347   7.899   5.053   6.298 -0.0902 -0.2613 -0.1710
 1005YOPC   C2B14348   8.088   4.768   6.465  0.2132  0.1088 -0.0645
 1005YOPC   D3B14349   7.900   4.841   6.957 -0.1831  0.1061 -0.2926
 1005YOPC   C4B14350   7.555   4.685   7.336  0.1537 -0.0229 -0.1116
 1006YOPC   NC314351  16.032  13.368   4.737  0.0072 -0.4671  0.0500
 1006YOPC   PO414352  16.448  13.231   4.796  0.0453 -0.2382 -0.0089
 1006YOPC   GL114353  16.347  13.394   5.220 -0.0055 -0.0091 -0.1181
 1006YOPC   GL214354  16.554  13.336   5.412  0.4595 -0.1591  0.1626
 1006YOPC   C1A14355  16.255  13.628   5.726 -0.1918  0.0137  0.2710
 1006YOPC   D2A14356  16.120  13.853   6.114  0.1877  0.2831  0.2420
 1006YOPC   C3A14357  15.797  14.246   6.318  0.1509 -0.0353 -0.0187
 1006YOPC   C4A14358  15.770  14.503   6.622  0.1365  0.2862  0.0662
 1006YOPC   C1B14359  16.144  13.009   5.649  0.0756  0.2224 -0.0643
 1006YOPC   C2B14360  16.032  12.951   6.007 -0.0098  0.2197  0.0445
 1006YOPC   D3B14361  16.161  12.684   6.282 -0.0190  0.2240 -0.0167
 1006YOPC   C4B14362  16.051  12.292   6.492  0.0764  0.1176 -0.3787
 1007YOPC   NC314363  11.707   8.969   5.352  0.0528 -0.2641 -0.1012
 1007YOPC   PO414364  12.121   8.975   5.117  0.3111 -0.2455 -0.0861
 1007YOPC   GL114365  12.151   9.094   5.600  0.1804 -0.1672 -0.0903
 1007YOPC   GL214366  12.073   8.758   5.788 -0.3424  0.0788 -0.6234
 1007YOPC   C1A14367  11.921   9.233   6.005 -0.0843 -0.2960 -0.1108
 1007YOPC   D2A14368  11.799   9.685   6.220  0.0072 -0.0378  0.0462
 1007YOPC   C3A14369  12.057  10.056   6.091 -0.0571 -0.0420 -0.0577
 1007YOPC   C4A14370  11.795  10.324   5.866 -0.0083  0.0260 -0.0963
 1007YOPC   C1B14371  11.860   8.478   6.031 -0.0696  0.1947  0.1154
 1007YOPC   C2B14372  11.720   8.593   6.386 -0.2252 -0.1559 -0.2901
 1007YOPC   D3B14373  12.039   8.737   6.664  0.0972  0.3442 -0.0382
 1007YOPC   C4B14374  12.365   8.784   6.730 -0.0675  0.1243  0.2007
 1008YOPC   NC314375  17.345   0.906   5.259 -0.4597  0.1220 -0.4793
 1008YOPC   PO414376  17.706   1.158   5.315  0.0080 -0.2173  0.0767
 1008YOPC   GL114377  17.677   1.140   5.770 -0.1460  0.1473  0.4553
 1008YOPC   GL214378  17.855   0.860   6.094  0.0651  0.1351  0.2889
 1008YOPC   C1A14379  17.509   1.185   6.064 -0.0672  0.3002  0.2227
 1008YOPC   D2A14380  17.253   0.961   6.300 -0.2018  0.0350  0.0927
 1008YOPC   C3A14381  17.473   0.775   6.660  0.1873 -0.0434  0.1604
 1008YOPC   C4A14382  17.603   0.413   6.738 -0.2707  0.0506 -0.0493
 1008YOPC   C1B14383  17.908   1.160   6.476 -0.2638  0.0300 -0.2063
 1008YOPC   C2B14384  18.045   1.646   6.612  0.3490  0.3072  0.0995
 1008YOPC   D3B14385  17.639   1.960   6.667 -0.0194  0.2103 -0.1455
 1008YOPC   C4B14386  17.278   2.094   6.889 -0.0260 -0.1996 -0.1346
 1009YOPC   NC314387  15.178  13.101   5.132  0.1750 -0.1964  0.2427
 1009YOPC   PO414388  15.562  13.115   4.914  0.2656  0.0230  0.4934
 1009YOPC   GL114389  15.633  12.996   5.394 -0.0313 -0.0355  0.3581
 1009YOPC   GL214390  15.656  13.129   5.674 -0.0668 -0.2197  0.2342
 1009YOPC   C1A14391  15.865  12.613   5.636  0.1071  0.1030 -0.0700
 1009YOPC   D2A14392  15.993  12.351   5.978  0.0740  0.1699  0.1445
 1009YOPC   C3A14393  16.494  12.470   6.064  0.2161  0.4639 -0.0381
 1009YOPC   C4A14394  16.778  12.706   6.411  0.0126 -0.0227  0.0358
 1009YOPC   C1B14395  15.688  13.369   6.075  0.0805 -0.1167  0.0908
 1009YOPC   C2B14396  15.873  13.157   6.462  0.3513 -0.1682  0.2218
 1009YOPC   D3B14397  15.901  13.092   6.857  0.2929  0.0768 -0.2709
 1009YOPC   C4B14398  16.152  13.384   6.982 -0.1289 -0.1131 -0.4832
 1010YOPC   NC314399   0.942  14.970   5.043 -0.1431 -0.1752 -0.1216
 1010YOPC   PO414400   1.309  15.339   5.262  0.5565  0.0516 -0.5182
 1010YOPC   GL114401   1.324  15.184   5.725 -0.0262 -0.0524 -0.2422
 1010YOPC   GL214402   1.126  15.286   5.952  0.1030 -0.2761  0.3530
 1010YOPC   C1A14403   1.668  15.155   5.993  0.2066  0.1454  0.0671
 1010YOPC   D2A14404   1.650  15.165   6.435  0.2458  0.0538  0.0722
 1010YOPC   C3A14405   1.254  15.180   6.691 -0.3281  0.1989  0.1121
 1010YOPC   C4A14406   1.160  15.530   6.942  0.0831 -0.2745 -0.4534
 1010YOPC   C1B14407   1.154  15.500   6.316  0.4270 -0.1477  0.1598
 1010YOPC   C2B14408   1.183  16.003   6.470 -0.1030  0.0516  0.0436
 1010YOPC   D3B14409   1.026  16.078   6.876 -0.3028 -0.2519  0.0048
 1010YOPC   C4B14410   0.780  16.328   7.105 -0.0481 -0.2743 -0.0099
 1011YOPC   NC314411   5.961   5.326   4.865  0.1181  0.2362 -0.0643
 1011YOPC   PO414412   5.868   5.639   5.187 -0.2317  0.1786  0.2681
 1011YOPC   GL114413   5.943   5.711   5.566 -0.1287 -0.0527  0.1976
 1011YOPC   GL214414   5.790   5.899   5.740 -0.1156  0.2478 -0.1505
 1011YOPC   C1A14415   6.148   5.521   5.932  0.0354 -0.0364  0.1832
 1011YOPC   D2A14416   6.465   5.563   6.128 -0.0580 -0.2891 -0.2868
 1011YOPC   C3A14417   6.476   5.834   6.451 -0.2757  0.0723  0.0822
 1011YOPC   C4A14418   6.743   6.035   6.733 -0.0191 -0.0707  0.1520
 1011YOPC   C1B14419   6.150   6.044   5.986 -0.4735 -0.0702 -0.0733
 1011YOPC   C2B14420   6.191   6.233   6.361 -0.1481  0.1210 -0.0462
 1011YOPC   D3B14421   6.277   6.121   6.890 -0.0614 -0.2603 -0.0498
 1011YOPC   C4B14422   6.284   6.016   7.369 -0.1464 -0.0655 -0.0945
 1012YOPC   NC314423   6.154  18.986   5.585  0.0403 -0.1688 -0.1530
 1012YOPC   PO414424   5.714  18.759   5.771 -0.0635 -0.0790  0.0649
 1012YOPC   GL114425   5.646  18.698   6.175 -0.0866 -0.0437  0.0778
 1012YOPC   GL214426   5.306  18.689   6.256 -0.1838 -0.4326 -0.2107
 1012YOPC   C1A14427   5.888  18.774   6.534 -0.1970  0.1584 -0.0913
 1012YOPC   D2A14428   6.205  18.466   6.653  0.1382  0.1225  0.1227
 1012YOPC   C3A14429   6.270  18.106   6.938  0.1329 -0.0528 -0.2128
 1012YOPC   C4A14430   6.608  17.950   7.150 -0.1914  0.1280  0.0805
 1012YOPC   C1B14431   5.091  18.532   6.630  0.0866  0.3598  0.0407
 1012YOPC   C2B14432   5.098  18.444   7.086 -0.1848 -0.0829 -0.2442
 1012YOPC   D3B14433   4.990  18.122   7.327  0.1903  0.1310  0.2705
 1012YOPC   C4B14434   4.919  17.733   7.583 -0.1736 -0.0987 -0.1331
 1013YOPC   NC314435   8.328  18.397   5.160 -0.1989 -0.2115  0.0321
 1013YOPC   PO414436   8.472  18.834   5.364  0.0330  0.3222 -0.2063
 1013YOPC   GL114437   8.344  18.544   5.677 -0.0401 -0.0184  0.0949
 1013YOPC   GL214438   8.479  18.301   5.873  0.0502  0.0182  0.2457
 1013YOPC   C1A14439   8.073  18.544   6.027  0.2511  0.4189 -0.1945
 1013YOPC   D2A14440   8.242  18.443   6.490 -0.2873  0.1909  0.0211
 1013YOPC   C3A14441   7.961  18.693   6.853 -0.0489  0.1250 -0.1540
 1013YOPC   C4A14442   7.689  18.633   7.166 -0.4500 -0.2308 -0.1819
 1013YOPC   C1B14443   8.265  17.904   6.023  0.0145 -0.0914  0.0161
 1013YOPC   C2B14444   8.017  17.592   6.259  0.0787 -0.2036  0.1089
 1013YOPC   D3B14445   8.277  17.646   6.589  0.1101 -0.1380 -0.2359
 1013YOPC   C4B14446   8.529  17.907   6.699  0.1117  0.1416  0.1155
 1014YOPC   NC314447   7.718  13.878   5.805  0.0846 -0.0297  0.0575
 1014YOPC   PO414448   7.457  13.553   5.521  0.1683 -0.1923 -0.3225
 1014YOPC   GL114449   7.388  13.405   5.934 -0.0895 -0.0028  0.1159
 1014YOPC   GL214450   7.645  13.095   6.046 -0.2956 -0.0265 -0.1194
 1014YOPC   C1A14451   7.038  13.448   6.214  0.2207 -0.1841  0.2415
 1014YOPC   D2A14452   6.753  13.333   6.683  0.1531  0.0180  0.3099
 1014YOPC   C3A14453   7.059  13.385   7.081  0.1344 -0.0320  0.0409
 1014YOPC   C4A14454   7.115  13.325   7.519 -0.2409  0.0348 -0.2745
 1014YOPC   C1B14455   7.479  12.637   6.188  0.2466 -0.2698 -0.0773
 1014YOPC   C2B14456   7.125  12.422   6.243 -0.1646 -0.2124 -0.0201
 1014YOPC   D3B14457   7.162  12.629   6.697  0.0047  0.0208  0.3136
 1014YOPC   C4B14458   7.578  12.628   6.935  0.0657 -0.3014 -0.1130
 1015YOPC   NC314459   5.630   2.820   5.531  0.0705  0.1378 -0.1390
 1015YOPC   PO414460   5.877   2.508   5.477  0.2038 -0.2889 -0.0278
 1015YOPC   GL114461   5.845   2.293   5.928 -0.2489 -0.0937 -0.1706
 1015YOPC   GL214462   6.087   2.403   6.184 -0.0309 -0.0909 -0.3136
 1015YOPC   C1A14463   5.625   2.362   6.394  0.3493  0.1234  0.2699
 1015YOPC   D2A14464   5.503   2.536   6.742  0.1226 -0.2206 -0.1249
 1015YOPC   C3A14465   5.796   2.699   6.937  0.1596  0.2490  0.2155
 1015YOPC   C4A14466   5.955   2.674   7.419  0.0975  0.0776 -0.3499
 1015YOPC   C1B14467   6.261   2.263   6.497  0.1812 -0.0003  0.0467
 1015YOPC   C2B14468   6.571   2.041   6.776  0.2699 -0.0368  0.2180
 1015YOPC   D3B14469   6.530   2.127   7.158 -0.2708 -0.0903  0.1673
 1015YOPC   C4B14470   6.299   2.342   7.478  0.1716 -0.0742  0.0409
 1016YOPC   NC314471  18.779  15.083   5.124 -0.2355  0.1052 -0.1156
 1016YOPC   PO414472  19.073  15.395   5.037 -0.1743  0.0897 -0.0665
 1016YOPC   GL114473  19.118  15.286   5.491  0.1442  0.0016  0.1457
 1016YOPC   GL214474  18.759  15.499   5.521  0.1392 -0.0411 -0.2318
 1016YOPC   C1A14475  19.257  15.086   5.924 -0.0998  0.3655  0.1141
 1016YOPC   D2A14476  19.443  15.065   6.332  0.1424  0.1583 -0.0244
 1016YOPC   C3A14477  19.304  14.866   6.731  0.0225 -0.2114  0.0081
 1016YOPC   C4A14478  18.973  14.818   6.899  0.1545 -0.3674 -0.3126
 1016YOPC   C1B14479  18.726  15.260   5.858 -0.1151 -0.0893 -0.0793
 1016YOPC   C2B14480  18.932  15.111   6.294 -0.1185  0.2759  0.0382
 1016YOPC   D3B14481  18.962  14.668   6.182  0.0507 -0.1220  0.0800
 1016YOPC   C4B14482  19.193  14.459   6.512  0.3547 -0.0533 -0.2653
 1017YOPC   NC314483   5.154  18.500   5.809 -0.2592 -0.3862  0.1821
 1017YOPC   PO414484   5.011  19.007   6.022  0.0820  0.2076 -0.2893
 1017YOPC   GL114485   4.761  19.223   6.262 -0.1221 -0.2415 -0.0550
 1017YOPC   GL214486   4.963  19.486   6.379 -0.1233  0.1385 -0.2004
 1017YOPC   C1A14487   4.601  19.250   6.714 -0.0851 -0.0577  0.1225
 1017YOPC   D2A14488   4.553  19.185   7.194  0.0204  0.0922  0.1303
 1017YOPC   C3A14489   4.625  19.593   7.502 -0.1653 -0.1147 -0.0514
 1017YOPC   C4A14490   4.694  19.640   7.847  0.2986  0.2160 -0.3272
 1017YOPC   C1B14491   5.017  19.558   6.843 -0.2847  0.1389  0.2015
 1017YOPC   C2B14492   5.076  19.819   7.162  0.1379 -0.3112 -0.2578
 1017YOPC   D3B14493   5.408  19.927   7.333 -0.0843  0.2247  0.0849
 1017YOPC   C4B14494   5.706  20.186   7.264  0.2669  0.1450  0.2375
 1018YOPC   NC314495  10.707   1.696   5.278 -0.1131 -0.1442  0.0648
 1018YOPC   PO414496  10.657   1.239   5.333 -0.0175  0.3463  0.0301
 1018YOPC   GL114497  10.575   1.222   5.733  0.1103 -0.2281  0.0506
 1018YOPC   GL214498  10.314   0.974   5.778 -0.1870 -0.4107 -0.1127
 1018YOPC   C1A14499  10.709   1.113   6.092 -0.2931  0.2392 -0.0371
 1018YOPC   D2A14500  11.137   1.286   6.206 -0.2076 -0.2406  0.0415
 1018YOPC   C3A14501  11.350   1.000   6.462 -0.2456  0.0645 -0.2859
 1018YOPC   C4A14502  11.529   0.714   6.731 -0.3162 -0.0493 -0.0224
 1018YOPC   C1B14503  10.379   0.819   6.226  0.2001  0.3437  0.1729
 1018YOPC   C2B14504  10.514   0.327   6.433  0.3653  0.2410  0.1505
 1018YOPC   D3B14505  10.713   0.160   6.862  0.2281 -0.0168 -0.1867
 1018YOPC   C4B14506  11.101  -0.055   6.894 -0.2612 -0.0568  0.0242
 1019YOPC   NC314507  13.173   9.696   5.253  0.1532 -0.4285  0.2167
 1019YOPC   PO414508  13.633   9.470   5.429 -0.0956  0.1384  0.0694
 1019YOPC   GL114509  13.590   9.097   5.753  0.1826 -0.3500 -0.1901
 1019YOPC   GL214510  13.444   8.792   5.506  0.2575 -0.0637 -0.1023
 1019YOPC   C1A14511  13.764   8.709   6.090  0.1595  0.4296 -0.0268
 1019YOPC   D2A14512  14.036   8.498   6.333  0.0050 -0.2475  0.0378
 1019YOPC   C3A14513  14.401   8.316   6.096 -0.1230  0.2377  0.1002
 1019YOPC   C4A14514  14.704   7.965   6.045 -0.0367 -0.0475 -0.0144
 1019YOPC   C1B14515  13.198   8.857   6.017 -0.0237 -0.0364  0.2173
 1019YOPC   C2B14516  13.258   9.246   6.275 -0.1110  0.1013 -0.0625
 1019YOPC   D3B14517  13.011   9.330   6.653 -0.3173  0.1774  0.1161
 1019YOPC   C4B14518  12.924   9.282   7.138 -0.0159 -0.4388 -0.1481
 1020YOPC   NC314519  11.728   6.956   5.428  0.0055 -0.4680 -0.1772
 1020YOPC   PO414520  11.495   6.638   5.270 -0.1721  0.0509  0.0056
 1020YOPC   GL114521  11.319   6.680   5.576 -0.0957  0.0476 -0.0980
 1020YOPC   GL214522  11.104   6.955   5.730  0.0063  0.3076 -0.0013
 1020YOPC   C1A14523  10.972   6.336   5.720  0.0196 -0.0269 -0.3218
 1020YOPC   D2A14524  10.638   6.189   5.891 -0.0532  0.2798  0.2904
 1020YOPC   C3A14525  10.633   6.327   6.315  0.1592 -0.5662  0.3731
 1020YOPC   C4A14526  10.415   6.258   6.655 -0.1560 -0.3048  0.4348
 1020YOPC   C1B14527  11.305   6.614   6.074  0.0420 -0.0486  0.2144
 1020YOPC   C2B14528  11.212   6.379   6.286  0.1255 -0.2045 -0.3130
 1020YOPC   D3B14529  11.019   6.344   6.605  0.3396 -0.0093 -0.2203
 1020YOPC   C4B14530  10.860   6.042   6.845 -0.0817 -0.0721  0.0961
 1021YOPC   NC314531   9.280  18.554   5.527  0.1821 -0.0073 -0.3301
 1021YOPC   PO414532   9.758  18.531   5.614 -0.2006 -0.2006 -0.1674
 1021YOPC   GL114533   9.826  18.245   5.893  0.2203  0.0533 -0.1418
 1021YOPC   GL214534   9.630  18.312   6.211 -0.2057 -0.0384 -0.3050
 1021YOPC   C1A14535  10.076  18.195   6.396 -0.1387  0.2619 -0.3653
 1021YOPC   D2A14536  10.188  18.412   6.780 -0.0149  0.0398  0.0113
 1021YOPC   C3A14537  10.339  18.847   6.978 -0.2350 -0.0396 -0.1150
 1021YOPC   C4A14538  10.457  19.147   7.287 -0.3149  0.1434 -0.2133
 1021YOPC   C1B14539   9.646  18.238   6.655  0.0975  0.0587 -0.2532
 1021YOPC   C2B14540   9.807  18.338   7.089 -0.1338  0.2813 -0.0156
 1021YOPC   D3B14541   9.532  18.439   7.329 -0.3565  0.0477 -0.1848
 1021YOPC   C4B14542   9.219  18.310   7.550 -0.2352 -0.0243 -0.1046
 1022YOPC   NC314543  15.463   9.893   5.414 -0.0648  0.3538 -0.1969
 1022YOPC   PO414544  15.784  10.185   5.323  0.0633 -0.0708 -0.0013
 1022YOPC   GL114545  15.643  10.200   5.712  0.1077  0.0651 -0.0571
 1022YOPC   GL214546  15.335  10.287   5.759  0.1440  0.1205 -0.0576
 1022YOPC   C1A14547  15.713  10.435   6.097 -0.0118  0.0603  0.4254
 1022YOPC   D2A14548  15.693  10.526   6.616 -0.2868  0.1613  0.1793
 1022YOPC   C3A14549  15.767  10.874   6.747 -0.0813 -0.1229  0.0687
 1022YOPC   C4A14550  16.040  11.112   6.845  0.1028  0.0321 -0.6860
 1022YOPC   C1B14551  15.309  10.073   6.101 -0.1379  0.0452  0.1377
 1022YOPC   C2B14552  14.907  10.071   6.354 -0.1317  0.2686  0.0235
 1022YOPC   D3B14553  14.908  10.067   6.663 -0.1050 -0.0474 -0.0774
 1022YOPC   C4B14554  15.119   9.999   7.027 -0.1960  0.3394 -0.0919
 1023YOPC   NC314555   9.676   7.644   4.913  0.2036  0.2860  0.1869
 1023YOPC   PO414556   9.375   7.457   5.141  0.1729 -0.2065 -0.0568
 1023YOPC   GL114557   9.442   7.337   5.522 -0.0691  0.0610  0.0055
 1023YOPC   GL214558   9.478   7.574   5.716 -0.0433 -0.2283  0.2415
 1023YOPC   C1A14559   9.560   7.089   5.796  0.0303  0.0469  0.0158
 1023YOPC   D2A14560   9.526   6.758   6.091  0.0317  0.0048  0.0767
 1023YOPC   C3A14561   9.563   6.283   6.166 -0.0643 -0.1123 -0.4388
 1023YOPC   C4A14562   9.443   5.856   6.125  0.1255 -0.2502  0.1181
 1023YOPC   C1B14563   9.647   7.333   6.201  0.1205  0.0417  0.3092
 1023YOPC   C2B14564   9.648   7.031   6.469  0.1142  0.0423 -0.1818
 1023YOPC   D3B14565   9.559   6.883   6.856  0.0327 -0.0512 -0.0196
 1023YOPC   C4B14566   9.206   6.978   7.089 -0.0519  0.1902  0.0162
 1024YOPC   NC314567  17.780   6.003   5.737 -0.1519 -0.2758 -0.2744
 1024YOPC   PO414568  17.920   6.505   5.792  0.2784 -0.3227 -0.1091
 1024YOPC   GL114569  17.705   6.238   6.167 -0.2429  0.0208 -0.1922
 1024YOPC   GL214570  17.424   6.554   6.215  0.2616  0.1588  0.0348
 1024YOPC   C1A14571  17.636   6.139   6.606 -0.0634 -0.1167 -0.1517
 1024YOPC   D2A14572  17.256   6.225   6.853 -0.0067  0.0068 -0.1354
 1024YOPC   C3A14573  17.312   6.490   7.108  0.0844 -0.0563  0.0713
 1024YOPC   C4A14574  17.651   6.546   7.411 -0.0255 -0.3464 -0.2509
 1024YOPC   C1B14575  17.235   6.725   6.628  0.1055 -0.0589 -0.1950
 1024YOPC   C2B14576  17.211   6.929   6.956 -0.0612  0.1556 -0.1417
 1024YOPC   D3B14577  16.913   7.015   7.273  0.2275  0.1744  0.0517
 1024YOPC   C4B14578  16.563   7.049   7.622  0.2483  0.1638  0.2980
 1025YOPC   NC314579   6.973  11.181   5.191 -0.1166  0.3800 -0.0633
 1025YOPC   PO414580   6.607  11.470   5.262 -0.1253  0.1323  0.3298
 1025YOPC   GL114581   6.749  11.403   5.614  0.1402  0.0431 -0.0292
 1025YOPC   GL214582   6.607  11.666   5.802  0.6266 -0.0219  0.0421
 1025YOPC   C1A14583   6.799  11.037   5.882 -0.0074 -0.2555  0.2269
 1025YOPC   D2A14584   6.780  10.860   6.361  0.1670  0.1080  0.0414
 1025YOPC   C3A14585   6.800  11.114   6.839 -0.2747 -0.5072 -0.1499
 1025YOPC   C4A14586   6.819  11.097   7.345  0.1575  0.0990  0.1431
 1025YOPC   C1B14587   6.341  11.916   6.011  0.1653  0.1545 -0.0572
 1025YOPC   C2B14588   6.056  12.080   6.288 -0.3072  0.2463  0.1569
 1025YOPC   D3B14589   6.153  11.911   6.671 -0.0966  0.1067 -0.0688
 1025YOPC   C4B14590   6.082  12.052   7.126 -0.0198  0.1484  0.0505
 1026YOPC   NC314591   3.932   7.038   5.582 -0.0158  0.1813 -0.1242
 1026YOPC   PO414592   4.275   6.836   5.655  0.0966 -0.2217 -0.0826
 1026YOPC   GL114593   4.274   6.866   6.120  0.5136  0.0985 -0.2577
 1026YOPC   GL214594   4.124   6.613   6.407 -0.2084 -0.1465  0.0304
 1026YOPC   C1A14595   4.314   7.065   6.572  0.0887  0.0726 -0.0513
 1026YOPC   D2A14596   4.150   6.886   6.912  0.0131 -0.1006  0.1769
 1026YOPC   C3A14597   4.004   6.523   6.891  0.0268  0.2143  0.0092
 1026YOPC   C4A14598   3.839   6.067   6.908 -0.3400  0.2469  0.0410
 1026YOPC   C1B14599   4.468   6.553   6.597  0.1363  0.0716 -0.0202
 1026YOPC   C2B14600   4.623   6.878   6.972 -0.0232  0.0815  0.0153
 1026YOPC   D3B14601   4.581   7.248   6.981  0.0312 -0.0869 -0.3198
 1026YOPC   C4B14602   4.556   7.766   7.154  0.0841  0.2363  0.3120
 1027YOPC   NC314603  18.830  14.009   4.764 -0.3405 -0.1059 -0.1578
 1027YOPC   PO414604  18.831  14.431   4.940 -0.1542 -0.2090 -0.2882
 1027YOPC   GL114605  19.172  14.537   5.318 -0.1066 -0.1013 -0.0135
 1027YOPC   GL214606  19.410  14.751   5.436  0.0602 -0.0563 -0.2458
 1027YOPC   C1A14607  18.936  14.770   5.653  0.0884  0.0711 -0.0634
 1027YOPC   D2A14608  18.548  14.559   5.846  0.0177  0.0806  0.2751
 1027YOPC   C3A14609  18.639  14.238   6.199 -0.1398  0.2931  0.4013
 1027YOPC   C4A14610  18.368  14.082   6.461 -0.0463  0.1251 -0.0931
 1027YOPC   C1B14611  19.740  15.014   5.712  0.2829  0.0955  0.3341
 1027YOPC   C2B14612  19.892  14.894   5.978 -0.1700  0.0612 -0.1272
 1027YOPC   D3B14613  19.998  14.935   6.459  0.0089  0.2772 -0.1718
 1027YOPC   C4B14614  19.843  15.178   6.761 -0.1278  0.0798 -0.1944
 1028YOPC   NC314615   4.253   1.801   5.456  0.0235 -0.1141 -0.0209
 1028YOPC   PO414616   4.430   1.996   5.799  0.0539  0.0795  0.5369
 1028YOPC   GL114617   4.246   1.961   6.173 -0.0409  0.1211  0.3717
 1028YOPC   GL214618   4.440   1.866   6.333  0.1862  0.0584 -0.1298
 1028YOPC   C1A14619   3.891   1.909   6.521 -0.1109  0.0359 -0.2145
 1028YOPC   D2A14620   3.906   1.640   6.784  0.0576 -0.2552  0.1363
 1028YOPC   C3A14621   3.986   1.180   6.853 -0.4717 -0.0894 -0.0423
 1028YOPC   C4A14622   4.115   1.114   7.320 -0.0010  0.0908 -0.0778
 1028YOPC   C1B14623   4.544   2.031   6.718  0.2155  0.1251 -0.0822
 1028YOPC   C2B14624   4.600   2.141   7.115  0.1112  0.0306 -0.0851
 1028YOPC   D3B14625   4.905   2.004   7.384  0.0684  0.1286  0.2390
 1028YOPC   C4B14626   4.988   1.664   7.412 -0.0738  0.1569 -0.1123
 1029YOPC   NC314627   8.917   5.963   5.313  0.0276 -0.1769 -0.2096
 1029YOPC   PO414628   8.523   5.721   5.337 -0.0493 -0.2336  0.2579
 1029YOPC   GL114629   8.704   5.843   5.739 -0.3034  0.3420  0.0424
 1029YOPC   GL214630   8.516   5.567   5.908 -0.0522 -0.3875 -0.0067
 1029YOPC   C1A14631   8.895   5.736   6.179 -0.1240 -0.3957  0.2529
 1029YOPC   D2A14632   9.140   5.622   6.462  0.0616 -0.2906 -0.1116
 1029YOPC   C3A14633   9.404   5.857   6.603 -0.0716 -0.0116  0.1584
 1029YOPC   C4A14634   9.504   6.322   6.672  0.0517 -0.2207  0.0674
 1029YOPC   C1B14635   8.448   5.670   6.280  0.1507 -0.2541  0.2511
 1029YOPC   C2B14636   8.594   5.861   6.648 -0.1303  0.1956 -0.0718
 1029YOPC   D3B14637   8.843   5.525   6.898  0.0361 -0.2037  0.1842
 1029YOPC   C4B14638   9.263   5.527   6.945 -0.1579 -0.1171  0.0358
 1030YOPC   NC314639  16.139  16.921   5.349  0.2312 -0.0685  0.0775
 1030YOPC   PO414640  16.495  16.876   5.657 -0.1189  0.5881  0.0354
 1030YOPC   GL114641  16.461  16.580   6.039  0.3722 -0.2362  0.0422
 1030YOPC   GL214642  16.603  16.398   6.027  0.0493 -0.3244 -0.1773
 1030YOPC   C1A14643  16.473  16.583   6.510 -0.2415 -0.2345  0.3756
 1030YOPC   D2A14644  16.750  16.414   6.779 -0.0473  0.1840 -0.2588
 1030YOPC   C3A14645  17.059  16.676   7.061 -0.3497 -0.1632 -0.2477
 1030YOPC   C4A14646  17.370  16.751   7.514 -0.1406 -0.0961  0.1887
 1030YOPC   C1B14647  16.840  16.173   6.344  0.2468 -0.2158 -0.4060
 1030YOPC   C2B14648  17.064  15.862   6.445  0.2059  0.2020 -0.1526
 1030YOPC   D3B14649  17.201  15.785   6.960 -0.0938 -0.0503  0.1147
 1030YOPC   C4B14650  17.075  15.719   7.361  0.0901 -0.0655 -0.1063
 1031YOPC   NC314651   8.320   2.930   5.397  0.0408  0.1558  0.0967
 1031YOPC   PO414652   8.208   2.573   5.532  0.3426 -0.3019 -0.0012
 1031YOPC   GL114653   8.220   2.380   5.898  0.0341 -0.2426 -0.3543
 1031YOPC   GL214654   7.922   2.137   6.039  0.0690 -0.4510  0.1282
 1031YOPC   C1A14655   8.467   2.248   6.204 -0.0484 -0.0262  0.3219
 1031YOPC   D2A14656   8.565   2.302   6.709  0.2124  0.0210  0.2336
 1031YOPC   C3A14657   8.869   2.504   6.958  0.0063 -0.0236 -0.2363
 1031YOPC   C4A14658   8.874   2.617   7.324 -0.3344 -0.0941 -0.0227
 1031YOPC   C1B14659   7.618   2.082   6.281  0.0296 -0.0711  0.4094
 1031YOPC   C2B14660   7.632   2.165   6.641 -0.1960 -0.0720 -0.1406
 1031YOPC   D3B14661   8.032   2.206   6.938  0.0769 -0.2068  0.0205
 1031YOPC   C4B14662   8.260   2.436   7.083  0.1437  0.0744 -0.0043
 1032YOPC   NC314663   6.428  15.269   5.812  0.0304  0.3709 -0.1889
 1032YOPC   PO414664   6.105  14.986   5.654 -0.0741  0.3215 -0.0830
 1032YOPC   GL114665   6.410  14.830   6.043  0.1014  0.1457 -0.2131
 1032YOPC   GL214666   6.653  14.583   6.055  0.1564 -0.0265 -0.4217
 1032YOPC   C1A14667   6.276  15.079   6.447  0.1256 -0.1466 -0.0148
 1032YOPC   D2A14668   6.311  15.062   6.829 -0.1959 -0.0569 -0.2303
 1032YOPC   C3A14669   6.389  14.647   7.017  0.1860 -0.3008 -0.1124
 1032YOPC   C4A14670   6.710  14.392   7.350  0.0139  0.0437  0.0138
 1032YOPC   C1B14671   6.415  14.423   6.416 -0.0481 -0.0826  0.0155
 1032YOPC   C2B14672   6.155  14.234   6.729 -0.4622  0.4118 -0.2307
 1032YOPC   D3B14673   5.728  14.240   6.861 -0.0136  0.0801 -0.1244
 1032YOPC   C4B14674   5.413  14.089   7.175  0.2764  0.0496 -0.0441
 1033YOPC   NC314675  17.250   9.910   5.062  0.0905 -0.2360 -0.2048
 1033YOPC   PO414676  17.481   9.573   5.340  0.0292 -0.2486  0.3018
 1033YOPC   GL114677  17.434   9.513   5.701  0.0880 -0.2033 -0.2972
 1033YOPC   GL214678  17.668   9.629   5.855  0.2563  0.0676 -0.1220
 1033YOPC   C1A14679  16.970   9.511   6.038  0.1946 -0.0104 -0.0690
 1033YOPC   D2A14680  16.930   9.727   6.434 -0.1885  0.0801  0.0425
 1033YOPC   C3A14681  17.220  10.164   6.469  0.1974  0.1312 -0.0521
 1033YOPC   C4A14682  17.414  10.574   6.243  0.1462  0.2201  0.0087
 1033YOPC   C1B14683  17.950   9.562   6.283 -0.0574 -0.2211  0.6346
 1033YOPC   C2B14684  18.263   9.551   6.700 -0.2122 -0.1729 -0.0635
 1033YOPC   D3B14685  18.681   9.638   6.685  0.2907 -0.2363 -0.2702
 1033YOPC   C4B14686  19.064   9.627   6.613  0.0766 -0.2518 -0.1402
 1034YOPC   NC314687   1.113  11.276   5.209  0.0148 -0.0714  0.3132
 1034YOPC   PO414688   1.435  11.585   5.159 -0.1650 -0.0052  0.0147
 1034YOPC   GL114689   1.630  11.569   5.458 -0.3359 -0.1157 -0.0446
 1034YOPC   GL214690   1.382  11.705   5.699  0.0574  0.0901  0.0606
 1034YOPC   C1A14691   1.869  11.444   5.872  0.0941 -0.0623 -0.1622
 1034YOPC   D2A14692   1.793  11.263   6.235 -0.0087 -0.1094  0.1022
 1034YOPC   C3A14693   1.615  11.380   6.537 -0.0477  0.4113  0.3708
 1034YOPC   C4A14694   1.381  11.249   6.694  0.0485  0.0762  0.1953
 1034YOPC   C1B14695   1.077  12.001   5.992 -0.1067 -0.0326 -0.1567
 1034YOPC   C2B14696   0.981  12.086   6.384  0.0871  0.2104  0.1881
 1034YOPC   D3B14697   1.290  12.113   6.735 -0.0100 -0.3789 -0.0432
 1034YOPC   C4B14698   1.585  11.853   6.839  0.1853  0.0526  0.0340
 1035YOPC   NC314699  11.000   7.501   5.496  0.2271  0.2617  0.1972
 1035YOPC   PO414700  10.651   7.241   5.550  0.1567  0.1648  0.2948
 1035YOPC   GL114701  10.719   7.221   5.929  0.0537  0.0499  0.1357
 1035YOPC   GL214702  10.950   7.386   6.004 -0.0865  0.0291  0.2034
 1035YOPC   C1A14703  10.714   6.852   6.208  0.0628 -0.0356  0.0843
 1035YOPC   D2A14704  10.709   6.709   6.715 -0.0185  0.0256 -0.0102
 1035YOPC   C3A14705  10.574   6.982   7.151 -0.3468 -0.0219 -0.1378
 1035YOPC   C4A14706  10.175   6.880   7.453  0.2829  0.0056 -0.0699
 1035YOPC   C1B14707  11.133   7.158   6.257 -0.1608  0.0264  0.0214
 1035YOPC   C2B14708  11.162   6.822   6.560 -0.0958 -0.0423  0.0296
 1035YOPC   D3B14709  11.576   6.746   6.501  0.0272  0.1501  0.3157
 1035YOPC   C4B14710  12.033   6.947   6.551  0.1830 -0.0421  0.0770
 1036YOPC   NC314711  13.460   3.648   5.499 -0.0062 -0.0313 -0.0835
 1036YOPC   PO414712  13.247   4.040   5.564 -0.0042 -0.2116  0.0087
 1036YOPC   GL114713  13.433   4.152   5.885  0.1242 -0.0059  0.0075
 1036YOPC   GL214714  13.695   3.963   6.076 -0.0948  0.1876 -0.0388
 1036YOPC   C1A14715  13.691   4.433   6.118  0.4376 -0.0226  0.1518
 1036YOPC   D2A14716  13.508   4.736   6.443 -0.1104  0.1415  0.4795
 1036YOPC   C3A14717  13.736   4.895   6.716  0.0027  0.2050  0.0970
 1036YOPC   C4A14718  13.774   5.387   6.975  0.0410 -0.0973  0.0899
 1036YOPC   C1B14719  13.603   3.759   6.457 -0.1277 -0.2157  0.1297
 1036YOPC   C2B14720  13.419   3.442   6.768  0.0741 -0.0023  0.0643
 1036YOPC   D3B14721  13.069   3.205   6.914 -0.2220 -0.2960 -0.2172
 1036YOPC   C4B14722  12.793   2.803   7.144  0.0076  0.0921  0.5726
 1037YOPC   NC314723  15.386   2.756   4.947  0.0212  0.0162 -0.2688
 1037YOPC   PO414724  15.688   2.795   5.246 -0.0193  0.1225 -0.0646
 1037YOPC   GL114725  15.669   2.643   5.619  0.0681 -0.0550 -0.0701
 1037YOPC   GL214726  15.911   2.643   5.824  0.0018  0.0352 -0.0617
 1037YOPC   C1A14727  15.490   2.563   6.068 -0.0679 -0.2639 -0.0802
 1037YOPC   D2A14728  15.687   2.539   6.595  0.0021  0.0767  0.2606
 1037YOPC   C3A14729  15.999   2.396   6.860 -0.0933  0.0883  0.0396
 1037YOPC   C4A14730  16.030   2.471   7.246 -0.2139  0.0117 -0.1813
 1037YOPC   C1B14731  16.095   2.824   6.151 -0.0175 -0.0688  0.0546
 1037YOPC   C2B14732  16.089   2.872   6.681  0.0309 -0.1078  0.0372
 1037YOPC   D3B14733  16.263   3.274   6.799 -0.2677  0.2052  0.0683
 1037YOPC   C4B14734  16.237   3.444   7.106 -0.0919 -0.0829 -0.1157
 1038YOPC   NC314735   1.590   6.820   5.642 -0.0331 -0.1272  0.1560
 1038YOPC   PO414736   1.363   7.152   5.784 -0.2269  0.1548  0.2230
 1038YOPC   GL114737   1.248   6.761   6.003  0.0772  0.0379  0.1448
 1038YOPC   GL214738   1.210   6.417   5.817  0.2749 -0.0158  0.2708
 1038YOPC   C1A14739   0.930   6.681   6.279 -0.2238  0.0006  0.1288
 1038YOPC   D2A14740   0.585   6.842   6.612 -0.1546  0.1458  0.3102
 1038YOPC   C3A14741   0.733   7.058   6.936  0.0560  0.0247 -0.2698
 1038YOPC   C4A14742   0.483   7.389   7.292  0.2534 -0.2956  0.0769
 1038YOPC   C1B14743   1.442   6.478   6.329 -0.1254 -0.1542 -0.3387
 1038YOPC   C2B14744   1.105   6.654   6.805 -0.0173  0.0127  0.0430
 1038YOPC   D3B14745   1.173   6.450   7.280 -0.2826 -0.4468 -0.1177
 1038YOPC   C4B14746   1.241   6.709   7.534 -0.0136  0.0807  0.0111
 1039YOPC   NC314747  13.135   6.794   5.307  0.1932  0.2080 -0.2418
 1039YOPC   PO414748  13.237   6.237   5.373  0.1543  0.0109  0.0584
 1039YOPC   GL114749  13.409   6.487   5.636 -0.3318  0.2384 -0.1554
 1039YOPC   GL214750  13.798   6.568   5.562  0.1258  0.4419 -0.0547
 1039YOPC   C1A14751  13.454   6.789   6.060 -0.3127  0.1153  0.1365
 1039YOPC   D2A14752  13.523   6.766   6.486  0.2536 -0.0306  0.1116
 1039YOPC   C3A14753  13.927   6.644   6.678  0.2028 -0.0426 -0.3409
 1039YOPC   C4A14754  14.228   6.427   6.758 -0.1709  0.1874 -0.2589
 1039YOPC   C1B14755  13.999   6.653   5.940 -0.1388  0.1038  0.2950
 1039YOPC   C2B14756  14.177   6.459   6.265 -0.0836 -0.1059 -0.2522
 1039YOPC   D3B14757  14.072   6.096   6.472 -0.1704  0.0807  0.0820
 1039YOPC   C4B14758  14.418   5.869   6.711 -0.0500  0.1887 -0.0070
 1040YOPC   NC314759  14.773   2.428   5.432  0.1769 -0.0249  0.3641
 1040YOPC   PO414760  15.035   2.280   5.185  0.3009  0.0909 -0.0542
 1040YOPC   GL114761  14.880   2.027   5.660 -0.3516 -0.1321  0.0932
 1040YOPC   GL214762  14.684   2.266   5.910 -0.1403 -0.2563 -0.0659
 1040YOPC   C1A14763  14.753   1.823   6.074 -0.3519  0.1945 -0.1472
 1040YOPC   D2A14764  14.806   1.581   6.416 -0.2723  0.3117  0.2699
 1040YOPC   C3A14765  14.613   1.368   6.772  0.1975  0.1254 -0.0527
 1040YOPC   C4A14766  14.424   1.368   7.219  0.2113  0.1660  0.0230
 1040YOPC   C1B14767  14.617   2.473   6.312  0.1068 -0.0001  0.1206
 1040YOPC   C2B14768  14.713   2.346   6.759 -0.1105  0.2067 -0.0569
 1040YOPC   D3B14769  14.957   2.725   6.812 -0.0123 -0.1165 -0.2589
 1040YOPC   C4B14770  15.217   2.792   7.187 -0.0534  0.1641 -0.1137
 1041YOPC   NC314771  16.212   4.743   4.889  0.1136  0.0761  0.3654
 1041YOPC   PO414772  16.255   4.948   5.281 -0.1219  0.3435 -0.1158
 1041YOPC   GL114773  16.226   4.648   5.618  0.1651 -0.3339  0.0668
 1041YOPC   GL214774  16.187   4.309   5.616  0.0317  0.3103 -0.1197
 1041YOPC   C1A14775  16.294   4.616   6.007 -0.2474 -0.0797  0.1591
 1041YOPC   D2A14776  16.251   4.483   6.387  0.3232  0.0015 -0.1925
 1041YOPC   C3A14777  16.277   4.140   6.425  0.1957  0.0034 -0.1276
 1041YOPC   C4A14778  16.127   3.746   6.539  0.0253 -0.0629  0.0189
 1041YOPC   C1B14779  16.185   4.128   5.920 -0.0379  0.1687  0.0070
 1041YOPC   C2B14780  15.930   3.739   6.067 -0.1071 -0.2742  0.3668
 1041YOPC   D3B14781  16.220   3.461   6.097 -0.0043  0.0806 -0.1944
 1041YOPC   C4B14782  16.599   3.365   6.367  0.1092  0.1562 -0.1028
 1042YOPC   NC314783  11.981  15.292   5.640 -0.0787  0.2020 -0.1924
 1042YOPC   PO414784  11.967  15.732   5.683 -0.0091 -0.0370 -0.1961
 1042YOPC   GL114785  11.788  15.705   6.044  0.1175  0.3378  0.3337
 1042YOPC   GL214786  11.845  15.384   6.214  0.3498  0.2470 -0.0200
 1042YOPC   C1A14787  11.852  15.856   6.474  0.1569 -0.0983  0.0897
 1042YOPC   D2A14788  11.868  16.067   6.944 -0.4429 -0.1800 -0.0148
 1042YOPC   C3A14789  12.185  15.926   7.145  0.2210 -0.1686  0.0569
 1042YOPC   C4A14790  12.356  15.476   7.367 -0.2069  0.2450 -0.1302
 1042YOPC   C1B14791  11.475  15.541   6.486  0.0523  0.2930  0.1538
 1042YOPC   C2B14792  11.390  15.746   6.883  0.0660  0.0940  0.3899
 1042YOPC   D3B14793  10.931  15.940   6.947 -0.4090  0.2789 -0.0001
 1042YOPC   C4B14794  10.710  16.213   6.777  0.2829  0.0591  0.0815
 1043YOPC   NC314795  14.715  15.481   5.248 -0.0550 -0.3415 -0.2151
 1043YOPC   PO414796  14.361  15.879   5.256  0.1106 -0.2277  0.0885
 1043YOPC   GL114797  14.525  15.815   5.676  0.1742 -0.0422  0.1652
 1043YOPC   GL214798  14.881  15.830   5.733 -0.2827 -0.0347  0.1654
 1043YOPC   C1A14799  14.622  15.757   6.094  0.0452  0.1974 -0.0820
 1043YOPC   D2A14800  14.448  15.959   6.363  0.0793 -0.5101  0.0901
 1043YOPC   C3A14801  14.597  15.997   6.736 -0.4502  0.1770  0.2999
 1043YOPC   C4A14802  14.466  16.261   7.135 -0.0285  0.0399  0.1362
 1043YOPC   C1B14803  15.191  15.788   5.986 -0.2236 -0.3530  0.1364
 1043YOPC   C2B14804  15.590  15.575   5.965 -0.0177 -0.1556  0.0551
 1043YOPC   D3B14805  15.882  15.564   6.277 -0.1834 -0.0984 -0.0835
 1043YOPC   C4B14806  15.849  15.493   6.632  0.0428 -0.3024 -0.1406
 1044YOPC   NC314807  12.303   8.093   4.788 -0.0079  0.1117  0.5380
 1044YOPC   PO414808  12.348   8.047   5.259 -0.0271 -0.1584  0.0932
 1044YOPC   GL114809  12.664   8.242   5.528  0.0529  0.1348 -0.1302
 1044YOPC   GL214810  12.799   7.974   5.834 -0.3070  0.3347  0.6344
 1044YOPC   C1A14811  12.652   8.411   5.924  0.1775 -0.0480 -0.0810
 1044YOPC   D2A14812  12.369   8.445   6.313 -0.0036 -0.2134  0.4109
 1044YOPC   C3A14813  12.267   8.868   6.237  0.2632 -0.1928 -0.1282
 1044YOPC   C4A14814  12.143   9.270   6.473 -0.0747  0.2091 -0.1352
 1044YOPC   C1B14815  12.755   8.095   6.308  0.0053  0.0694 -0.1826
 1044YOPC   C2B14816  12.749   8.421   6.612  0.0831 -0.1754  0.3195
 1044YOPC   D3B14817  12.784   8.759   6.368  0.1771  0.2590  0.2047
 1044YOPC   C4B14818  12.707   8.906   5.957  0.1944 -0.1290  0.0062
 1045YOPC   NC314819  10.764  18.536   4.909 -0.1467 -0.0155 -0.0024
 1045YOPC   PO414820  10.738  18.733   5.312 -0.4887  0.1273 -0.2816
 1045YOPC   GL114821  10.696  18.892   5.727  0.0860  0.1384 -0.2210
 1045YOPC   GL214822  11.023  18.834   5.798  0.1633  0.0198  0.0520
 1045YOPC   C1A14823  10.476  18.923   6.116 -0.1903  0.1132 -0.0342
 1045YOPC   D2A14824  10.484  18.789   6.534 -0.1162 -0.1113  0.0566
 1045YOPC   C3A14825  10.761  18.559   6.771 -0.0603  0.1584  0.1337
 1045YOPC   C4A14826  10.640  18.482   7.190 -0.1190  0.1287 -0.2232
 1045YOPC   C1B14827  11.348  19.038   6.120 -0.0728  0.0979  0.1803
 1045YOPC   C2B14828  11.499  19.118   6.581  0.2329 -0.0179 -0.0880
 1045YOPC   D3B14829  11.615  19.192   6.911 -0.2316 -0.0550 -0.0381
 1045YOPC   C4B14830  11.598  19.624   7.169  0.3265  0.0297  0.0206
 1046YOPC   NC314831  12.082  17.441   5.836 -0.3535  0.3415  0.0871
 1046YOPC   PO414832  12.488  17.182   5.781  0.1889  0.3754  0.2801
 1046YOPC   GL114833  12.439  17.151   6.137 -0.0328 -0.0290  0.0888
 1046YOPC   GL214834  12.312  17.335   6.318 -0.0495  0.1520  0.0675
 1046YOPC   C1A14835  12.616  16.963   6.558 -0.0223  0.0216 -0.1199
 1046YOPC   D2A14836  12.898  17.018   6.911 -0.1601  0.0900  0.2239
 1046YOPC   C3A14837  12.824  17.259   7.224 -0.2399  0.2045 -0.1152
 1046YOPC   C4A14838  12.611  17.670   7.327  0.1234 -0.1584  0.0758
 1046YOPC   C1B14839  12.248  17.719   6.437  0.0959  0.2939  0.2288
 1046YOPC   C2B14840  12.104  17.947   6.787  0.0623 -0.2616 -0.0203
 1046YOPC   D3B14841  12.223  18.012   7.222 -0.1126 -0.0697 -0.1378
 1046YOPC   C4B14842  12.402  18.242   7.562  0.2669 -0.3506 -0.1704
 1047YOPC   NC314843  15.626   0.585   5.395 -0.0490 -0.1934 -0.0371
 1047YOPC   PO414844  15.595   0.904   5.342 -0.4121 -0.0776  0.1007
 1047YOPC   GL114845  15.611   0.939   5.808 -0.1335 -0.1238 -0.0307
 1047YOPC   GL214846  15.785   1.166   5.987  0.1336 -0.0919  0.0220
 1047YOPC   C1A14847  15.389   1.063   6.186 -0.0367  0.0314  0.2908
 1047YOPC   D2A14848  14.926   1.061   6.366 -0.1093 -0.0559 -0.0407
 1047YOPC   C3A14849  14.708   0.715   6.600  0.3577 -0.4268 -0.0545
 1047YOPC   C4A14850  14.549   0.455   7.007  0.0470 -0.0171 -0.2121
 1047YOPC   C1B14851  15.644   1.389   6.478 -0.1390  0.3106 -0.1230
 1047YOPC   C2B14852  15.640   1.856   6.677 -0.2209 -0.3910 -0.0906
 1047YOPC   D3B14853  15.651   2.039   7.061  0.1181 -0.1090  0.1795
 1047YOPC   C4B14854  15.504   2.354   7.478  0.0384  0.0458  0.2479
 1048YOPC   NC314855   6.552   6.822   5.591  0.0694  0.2387  0.0322
 1048YOPC   PO414856   6.569   7.308   5.535  0.2069 -0.1385 -0.1255
 1048YOPC   GL114857   6.393   7.156   5.919 -0.1931  0.1801  0.1470
 1048YOPC   GL214858   6.120   7.046   5.858 -0.1876  0.3171  0.1055
 1048YOPC   C1A14859   6.429   7.125   6.375 -0.0865  0.1923 -0.1981
 1048YOPC   D2A14860   6.253   6.787   6.576 -0.2398  0.2571  0.0154
 1048YOPC   C3A14861   6.602   6.519   6.661 -0.0306  0.2999 -0.0581
 1048YOPC   C4A14862   6.856   6.544   6.915  0.1611  0.2931 -0.1797
 1048YOPC   C1B14863   5.941   7.092   6.332  0.3419 -0.1065 -0.1553
 1048YOPC   C2B14864   5.862   7.144   6.753 -0.3095 -0.0986  0.0832
 1048YOPC   D3B14865   5.913   7.537   6.955 -0.0616  0.4119  0.2033
 1048YOPC   C4B14866   5.786   7.863   6.789 -0.4289  0.1215 -0.2092
 1049YOPC   NC314867  16.871   0.265   5.631 -0.1528 -0.1873  0.1804
 1049YOPC   PO414868  17.316   0.389   5.575 -0.0546 -0.2734  0.2804
 1049YOPC   GL114869  17.597   0.239   5.952  0.0403 -0.1551 -0.6071
 1049YOPC   GL214870  17.720  -0.065   6.139  0.0529 -0.0063  0.1041
 1049YOPC   C1A14871  17.895   0.391   6.343  0.0364 -0.3493 -0.4319
 1049YOPC   D2A14872  18.151   0.555   6.699 -0.2952  0.4036  0.0432
 1049YOPC   C3A14873  18.232   0.876   6.946 -0.5405  0.1674 -0.1263
 1049YOPC   C4A14874  18.606   1.109   7.164 -0.0112  0.2992  0.0477
 1049YOPC   C1B14875  17.891  -0.283   6.293  0.4426 -0.1723 -0.1726
 1049YOPC   C2B14876  17.977  -0.450   6.690  0.0957  0.1694 -0.2930
 1049YOPC   D3B14877  17.776  -0.619   7.044  0.0257  0.1112  0.1151
 1049YOPC   C4B14878  17.695  -1.005   7.374 -0.2683 -0.0417 -0.1843
 1050YOPC   NC314879  10.481  11.398   5.305 -0.2119  0.1083 -0.1973
 1050YOPC   PO414880  10.856  11.336   5.582 -0.1379 -0.0818 -0.1650
 1050YOPC   GL114881  10.807  11.273   6.022 -0.0215  0.2626 -0.1118
 1050YOPC   GL214882  10.484  11.147   6.213  0.0738 -0.1594  0.1247
 1050YOPC   C1A14883  10.925  11.393   6.441  0.2266  0.0784  0.0299
 1050YOPC   D2A14884  11.176  11.205   6.743 -0.0302  0.0180 -0.0182
 1050YOPC   C3A14885  11.080  11.310   7.186  0.0587 -0.0025 -0.0979
 1050YOPC   C4A14886  11.228  11.676   7.210  0.2956 -0.1382  0.1452
 1050YOPC   C1B14887  10.886  10.865   6.423 -0.0083  0.1877  0.1210
 1050YOPC   C2B14888  10.963  10.381   6.412  0.2947 -0.0763  0.0691
 1050YOPC   D3B14889  10.805  10.320   6.785 -0.0354 -0.1354 -0.0592
 1050YOPC   C4B14890  10.868  10.220   7.176 -0.1100 -0.0613  0.0353
 1051YOPC   NC314891   2.672  14.473   5.234  0.0001  0.1966  0.1643
 1051YOPC   PO414892   2.853  14.920   5.366  0.0619 -0.1301 -0.0293
 1051YOPC   GL114893   2.978  14.703   5.711  0.1359  0.1193  0.1746
 1051YOPC   GL214894   2.846  14.356   5.706 -0.1713 -0.0706 -0.2010
 1051YOPC   C1A14895   2.674  14.791   6.038 -0.5470 -0.0390  0.3144
 1051YOPC   D2A14896   2.604  14.738   6.381  0.2270  0.0773  0.0570
 1051YOPC   C3A14897   2.723  14.877   6.724  0.0242 -0.1710  0.0178
 1051YOPC   C4A14898   2.612  15.251   6.940  0.0470  0.1329  0.1707
 1051YOPC   C1B14899   2.959  14.387   6.157  0.0465 -0.1426 -0.0434
 1051YOPC   C2B14900   3.046  14.440   6.549  0.1644  0.2605 -0.2380
 1051YOPC   D3B14901   3.291  14.085   6.652 -0.3346 -0.0994 -0.1522
 1051YOPC   C4B14902   3.265  13.629   6.762  0.2297 -0.0026  0.0463
 1052YOPC   NC314903  11.500  18.608   5.565 -0.1709  0.0433  0.0928
 1052YOPC   PO414904  11.865  18.282   5.550  0.0540 -0.0331 -0.2467
 1052YOPC   GL114905  11.711  18.326   5.972  0.1767 -0.5477 -0.0327
 1052YOPC   GL214906  11.325  18.353   6.094 -0.3507 -0.1083  0.1176
 1052YOPC   C1A14907  11.727  18.189   6.418  0.0345  0.0825 -0.1957
 1052YOPC   D2A14908  11.664  18.050   6.902 -0.2495  0.3284 -0.1064
 1052YOPC   C3A14909  11.785  18.356   7.113 -0.0488  0.4353 -0.0904
 1052YOPC   C4A14910  11.871  18.430   7.573 -0.1996 -0.0180 -0.0671
 1052YOPC   C1B14911  10.876  18.360   6.153 -0.0298  0.0365 -0.3840
 1052YOPC   C2B14912  10.579  18.177   6.478  0.1190 -0.1855  0.0661
 1052YOPC   D3B14913  10.832  18.104   6.862 -0.0506 -0.0419 -0.2870
 1052YOPC   C4B14914  11.165  17.977   6.940 -0.0983 -0.1727 -0.0219
 1053YOPC   NC314915  17.003   6.984   4.969 -0.2211  0.0279 -0.1450
 1053YOPC   PO414916  17.382   7.149   5.191  0.1736 -0.0573  0.1878
 1053YOPC   GL114917  17.497   7.351   5.545  0.0672  0.1788 -0.1968
 1053YOPC   GL214918  17.592   7.298   5.848 -0.0527  0.0137 -0.0052
 1053YOPC   C1A14919  17.286   7.693   5.806 -0.1830 -0.0706 -0.0560
 1053YOPC   D2A14920  17.290   7.764   6.153  0.1667  0.0714  0.1678
 1053YOPC   C3A14921  17.401   7.776   6.553 -0.0473 -0.1465  0.1205
 1053YOPC   C4A14922  17.266   7.762   6.997 -0.1345 -0.0177 -0.3084
 1053YOPC   C1B14923  17.653   7.376   6.185  0.0008 -0.1771 -0.2082
 1053YOPC   C2B14924  17.896   7.563   6.425 -0.0649  0.3301 -0.1509
 1053YOPC   D3B14925  17.835   7.863   6.812  0.0748 -0.2135  0.2696
 1053YOPC   C4B14926  17.687   7.758   7.287 -0.1206  0.3552 -0.1995
 1054YOPC   NC314927  10.845   4.271   5.244  0.2878 -0.0523 -0.1305
 1054YOPC   PO414928  10.485   4.497   5.200  0.3528 -0.3195  0.0045
 1054YOPC   GL114929  10.487   4.617   5.604  0.0266  0.0078 -0.1098
 1054YOPC   GL214930  10.736   4.741   5.679  0.2680 -0.0517  0.0899
 1054YOPC   C1A14931  10.200   4.827   5.840  0.1798  0.1546 -0.1220
 1054YOPC   D2A14932   9.851   4.662   5.931  0.2381 -0.0447 -0.1449
 1054YOPC   C3A14933   9.883   4.182   6.053  0.0123 -0.0581  0.3519
 1054YOPC   C4A14934   9.916   3.806   6.138 -0.1566 -0.0248 -0.0740
 1054YOPC   C1B14935  10.669   4.773   6.055 -0.1374  0.2883 -0.2649
 1054YOPC   C2B14936  10.752   4.781   6.465 -0.0639 -0.2079  0.2930
 1054YOPC   D3B14937  10.556   4.616   6.851 -0.0398  0.4034  0.5933
 1054YOPC   C4B14938  10.431   4.297   7.114  0.0531  0.0313 -0.0748
 1055YOPC   NC314939   2.886   6.015   5.850 -0.1884  0.1001 -0.5559
 1055YOPC   PO414940   3.353   5.925   5.903 -0.1468 -0.3803 -0.3157
 1055YOPC   GL114941   3.053   6.031   6.337  0.0788  0.2331  0.1126
 1055YOPC   GL214942   3.280   5.969   6.460 -0.0707 -0.0111  0.4053
 1055YOPC   C1A14943   2.959   6.446   6.524 -0.1803 -0.0745 -0.2698
 1055YOPC   D2A14944   3.111   6.804   6.756 -0.1925  0.3049  0.0664
 1055YOPC   C3A14945   2.797   6.838   7.104  0.0251  0.4354 -0.2230
 1055YOPC   C4A14946   2.825   6.960   7.510 -0.0610 -0.1579  0.1534
 1055YOPC   C1B14947   3.450   5.781   6.723 -0.0613 -0.1841  0.0739
 1055YOPC   C2B14948   3.625   5.322   6.857 -0.3144  0.1920 -0.1513
 1055YOPC   D3B14949   3.743   5.276   7.391 -0.0841 -0.3655 -0.3913
 1055YOPC   C4B14950   4.169   5.478   7.471 -0.2405 -0.1850 -0.2924
 1056YOPC   NC314951   3.408   3.336   6.041  0.2549 -0.0454  0.1744
 1056YOPC   PO414952   2.914   3.452   5.823  0.3154  0.1556  0.0575
 1056YOPC   GL114953   2.979   3.589   6.204  0.1065 -0.3667  0.1572
 1056YOPC   GL214954   2.975   3.265   6.383 -0.2744  0.1250 -0.2089
 1056YOPC   C1A14955   3.011   3.901   6.589  0.0109 -0.4482  0.0328
 1056YOPC   D2A14956   3.157   4.136   6.845 -0.4159  0.0683 -0.1402
 1056YOPC   C3A14957   3.296   3.900   7.261  0.2721 -0.2845 -0.1923
 1056YOPC   C4A14958   3.188   3.723   7.647  0.0171  0.2447  0.4626
 1056YOPC   C1B14959   3.250   3.237   6.716  0.0237 -0.0375 -0.0235
 1056YOPC   C2B14960   3.609   3.094   7.058 -0.4257  0.0312 -0.2394
 1056YOPC   D3B14961   3.830   3.298   7.440 -0.0378  0.0915  0.2521
 1056YOPC   C4B14962   3.844   3.095   7.844  0.1985  0.1512  0.1992
 1057YOPC   NC314963  18.090   9.908   5.665  0.2939 -0.0947  0.0700
 1057YOPC   PO414964  18.029  10.369   5.551  0.2289  0.1387 -0.1212
 1057YOPC   GL114965  18.296  10.540   5.865  0.0533 -0.2935  0.1191
 1057YOPC   GL214966  18.044  10.570   6.167  0.0196  0.0350 -0.0090
 1057YOPC   C1A14967  18.618  10.558   6.211  0.0923 -0.1153  0.2734
 1057YOPC   D2A14968  18.720  10.624   6.558  0.2260 -0.0117 -0.0816
 1057YOPC   C3A14969  18.532  10.587   6.885  0.1189  0.1305  0.0900
 1057YOPC   C4A14970  18.094  10.685   7.001 -0.2978  0.1242  0.0442
 1057YOPC   C1B14971  18.240  10.428   6.571  0.0718  0.2081 -0.1094
 1057YOPC   C2B14972  18.106  10.066   6.797 -0.1771  0.1024  0.2370
 1057YOPC   D3B14973  17.690  10.144   7.004 -0.0400  0.1732 -0.0176
 1057YOPC   C4B14974  17.321  10.402   6.850 -0.3287  0.0305  0.0895
 1058YOPC   NC314975   1.026  17.035   4.629 -0.0328  0.2190 -0.3382
 1058YOPC   PO414976   1.261  17.268   4.958 -0.0812  0.1289  0.1697
 1058YOPC   GL114977   1.117  17.343   5.369 -0.2817 -0.0532  0.2387
 1058YOPC   GL214978   1.315  17.085   5.550  0.1208  0.5161  0.1379
 1058YOPC   C1A14979   1.041  17.562   5.761 -0.5601  0.2160 -0.0797
 1058YOPC   D2A14980   0.812  17.869   5.977 -0.0293 -0.0019  0.0891
 1058YOPC   C3A14981   1.131  17.857   6.392 -0.0513  0.2174 -0.0264
 1058YOPC   C4A14982   1.069  17.768   6.811  0.0064  0.4976  0.2881
 1058YOPC   C1B14983   1.306  17.065   5.950 -0.1705 -0.0617 -0.1158
 1058YOPC   C2B14984   1.393  17.400   6.118  0.1526  0.1315 -0.2167
 1058YOPC   D3B14985   1.323  17.332   6.522 -0.1285 -0.2073  0.0341
 1058YOPC   C4B14986   1.479  17.576   6.977 -0.0085 -0.1732 -0.0442
 1059YOPC   NC314987  15.728  17.608   5.650  0.2343 -0.2815  0.0255
 1059YOPC   PO414988  15.741  17.135   5.518 -0.3112 -0.1088  0.0592
 1059YOPC   GL114989  15.929  17.144   5.961 -0.2008 -0.0904  0.1129
 1059YOPC   GL214990  16.263  17.083   6.091 -0.1547 -0.2955  0.1780
 1059YOPC   C1A14991  15.999  16.786   6.336  0.0779  0.0001 -0.0835
 1059YOPC   D2A14992  16.004  16.407   6.433  0.0741 -0.0776 -0.1326
 1059YOPC   C3A14993  16.148  16.368   6.896  0.0225 -0.2318  0.0240
 1059YOPC   C4A14994  15.897  16.285   7.326 -0.0897  0.4435 -0.1826
 1059YOPC   C1B14995  16.467  17.154   6.450 -0.2835 -0.2940 -0.0350
 1059YOPC   C2B14996  16.578  17.590   6.629 -0.1318 -0.0075  0.2815
 1059YOPC   D3B14997  16.441  18.024   6.393  0.0185 -0.1306  0.1405
 1059YOPC   C4B14998  16.036  18.070   6.430 -0.4315 -0.0679  0.0993
 1060YOPC   NC314999  13.672  17.403   5.338 -0.0133  0.2544 -0.2856
 1060YOPC   PO415000  13.385  17.285   5.488 -0.1008 -0.0918 -0.3910
 1060YOPC   GL115001  13.600  17.198   5.850  0.2365 -0.1186 -0.1775
 1060YOPC   GL215002  13.942  16.985   5.792  0.0325 -0.0532 -0.0759
 1060YOPC   C1A15003  13.578  17.249   6.312 -0.1870 -0.0331 -0.2412
 1060YOPC   D2A15004  13.674  17.223   6.631 -0.5383 -0.1790 -0.0093
 1060YOPC   C3A15005  13.736  17.294   6.955 -0.1543  0.1386 -0.0754
 1060YOPC   C4A15006  13.759  17.530   7.423  0.0696  0.0071 -0.0604
 1060YOPC   C1B15007  14.060  17.130   6.171  0.3232  0.3024  0.3276
 1060YOPC   C2B15008  14.158  17.150   6.507 -0.0524 -0.2169  0.2331
 1060YOPC   D3B15009  14.328  17.303   7.003  0.1086  0.1585  0.3530
 1060YOPC   C4B15010  14.536  17.180   7.431  0.0174  0.1539 -0.3523
 1061YOPC   NC315011   4.914  17.094   5.857  0.3597  0.4059  0.0309
 1061YOPC   PO415012   4.886  16.663   5.683 -0.2682 -0.2016 -0.1575
 1061YOPC   GL115013   5.254  16.591   5.991 -0.1038  0.0396 -0.0275
 1061YOPC   GL215014   5.641  16.509   5.908 -0.1147 -0.4402  0.0214
 1061YOPC   C1A15015   5.182  16.627   6.466 -0.1634 -0.2014  0.1733
 1061YOPC   D2A15016   5.060  17.006   6.514  0.0985  0.4441  0.4800
 1061YOPC   C3A15017   5.363  17.358   6.506 -0.1488 -0.3344 -0.1583
 1061YOPC   C4A15018   5.470  17.764   6.450 -0.0138  0.1977 -0.0651
 1061YOPC   C1B15019   5.564  16.375   6.285  0.0463 -0.2666 -0.2317
 1061YOPC   C2B15020   5.343  16.044   6.712  0.1661 -0.2093 -0.1419
 1061YOPC   D3B15021   5.357  16.052   7.116  0.1501  0.1971 -0.0477
 1061YOPC   C4B15022   5.418  16.127   7.570 -0.1089  0.0604  0.0560
 1062YOPC   NC315023  14.675  14.504   5.117 -0.3468 -0.2497 -0.1994
 1062YOPC   PO415024  14.561  14.125   5.472  0.0940  0.0920 -0.2069
 1062YOPC   GL115025  14.611  14.007   5.886 -0.3054  0.0108  0.1403
 1062YOPC   GL215026  14.480  13.768   5.959  0.0289 -0.3941  0.1601
 1062YOPC   C1A15027  14.909  13.958   6.229 -0.1885  0.0463 -0.1089
 1062YOPC   D2A15028  14.975  14.008   6.708  0.1020  0.2382  0.0746
 1062YOPC   C3A15029  14.535  14.134   6.889  0.1574  0.3068 -0.1096
 1062YOPC   C4A15030  14.221  14.123   7.189  0.1119  0.0910  0.1693
 1062YOPC   C1B15031  14.136  13.880   6.199  0.0423 -0.0033 -0.0076
 1062YOPC   C2B15032  14.168  13.888   6.703  0.0356 -0.0993  0.2670
 1062YOPC   D3B15033  14.079  13.644   7.058 -0.4419 -0.0294  0.0774
 1062YOPC   C4B15034  14.074  13.751   7.530  0.2373 -0.3869  0.0875
 1063YOPC   NC315035  11.434  11.615   4.829  0.2324 -0.2592 -0.1305
 1063YOPC   PO415036  11.319  11.359   5.240 -0.0919  0.2021  0.0538
 1063YOPC   GL115037  11.372  11.115   5.597 -0.1444  0.0130 -0.2366
 1063YOPC   GL215038  11.266  11.016   5.886  0.3555 -0.0791 -0.1939
 1063YOPC   C1A15039  11.483  10.647   5.575  0.4590  0.1028 -0.4072
 1063YOPC   D2A15040  11.303  10.297   5.794 -0.2545  0.1837 -0.0949
 1063YOPC   C3A15041  10.934  10.389   5.884 -0.1199  0.0952 -0.0069
 1063YOPC   C4A15042  10.697  10.677   6.003 -0.1412 -0.1897  0.3128
 1063YOPC   C1B15043  11.406  10.644   6.107  0.2322 -0.0205 -0.0631
 1063YOPC   C2B15044  11.729  10.495   6.432 -0.6944 -0.2247 -0.0584
 1063YOPC   D3B15045  11.818  10.526   6.854  0.1498 -0.1773 -0.1354
 1063YOPC   C4B15046  11.756  10.496   7.345  0.2650 -0.0831 -0.1785
 1064YOPC   NC315047  10.457  13.735   5.610  0.4812  0.2348  0.1113
 1064YOPC   PO415048  10.017  13.627   5.607 -0.0884  0.1423 -0.2462
 1064YOPC   GL115049  10.104  13.712   6.006  0.0727  0.2241  0.2585
 1064YOPC   GL215050  10.463  13.810   6.122 -0.1107 -0.2919  0.1425
 1064YOPC   C1A15051   9.736  13.634   6.311 -0.0389  0.2751 -0.2284
 1064YOPC   D2A15052   9.607  13.663   6.616 -0.3994 -0.3128 -0.1073
 1064YOPC   C3A15053   9.889  13.749   6.953 -0.1430 -0.0814 -0.0574
 1064YOPC   C4A15054   9.830  13.859   7.395 -0.1605 -0.1074  0.1381
 1064YOPC   C1B15055  10.223  13.615   6.491  0.2594  0.1177  0.1296
 1064YOPC   C2B15056  10.348  13.241   6.803 -0.0536  0.1883 -0.0324
 1064YOPC   D3B15057  10.171  13.121   7.242 -0.0427 -0.1321  0.0793
 1064YOPC   C4B15058   9.859  12.792   7.401 -0.1711 -0.2049  0.0350
 1065YOPC   NC315059   5.309   9.746   5.112 -0.2989  0.0639  0.1249
 1065YOPC   PO415060   5.256  10.191   5.192 -0.0279  0.0119 -0.1523
 1065YOPC   GL115061   5.221  10.458   5.550 -0.1080 -0.1895 -0.1087
 1065YOPC   GL215062   5.483  10.376   5.796  0.0577 -0.1054  0.2828
 1065YOPC   C1A15063   5.105  10.668   6.070  0.0418 -0.1842  0.3912
 1065YOPC   D2A15064   4.815  10.355   6.398  0.1794 -0.0305  0.1022
 1065YOPC   C3A15065   4.948  10.023   6.548  0.0410  0.0666 -0.0337
 1065YOPC   C4A15066   5.333   9.844   6.715 -0.0787  0.1444 -0.0489
 1065YOPC   C1B15067   5.642  10.731   5.925  0.3957  0.0801 -0.1597
 1065YOPC   C2B15068   5.909  10.823   6.357  0.0111  0.0875  0.2718
 1065YOPC   D3B15069   5.917  11.226   6.606 -0.1670  0.0017 -0.3695
 1065YOPC   C4B15070   6.307  11.391   6.869  0.1495 -0.1977  0.0769
 1066YOPC   NC315071  17.544  15.720   4.623 -0.0561  0.3136  0.1891
 1066YOPC   PO415072  17.480  15.721   4.970  0.2984  0.1721 -0.2665
 1066YOPC   GL115073  17.605  15.624   5.489  0.0059 -0.1420  0.3013
 1066YOPC   GL215074  17.917  15.685   5.486 -0.3035  0.1298  0.1550
 1066YOPC   C1A15075  17.385  15.601   5.880  0.0184 -0.1365 -0.2229
 1066YOPC   D2A15076  17.433  15.492   6.306  0.1734  0.0210  0.1582
 1066YOPC   C3A15077  17.639  15.813   6.574  0.1834  0.2216 -0.0900
 1066YOPC   C4A15078  17.953  16.074   6.672 -0.1456  0.2132 -0.1605
 1066YOPC   C1B15079  18.313  15.611   5.744 -0.3946 -0.0541  0.2812
 1066YOPC   C2B15080  18.594  15.774   5.958 -0.0380  0.1397 -0.1325
 1066YOPC   D3B15081  18.564  15.550   6.295  0.0053  0.0030  0.1350
 1066YOPC   C4B15082  18.639  15.450   6.631 -0.2624 -0.0305  0.1234
 1067YOPC   NC315083  18.715  15.878   4.853  0.3895 -0.0518  0.1576
 1067YOPC   PO415084  18.469  15.647   5.078  0.3231  0.0328  0.1433
 1067YOPC   GL115085  18.275  15.273   5.398  0.2582  0.1180 -0.0514
 1067YOPC   GL215086  17.901  15.213   5.406 -0.2140  0.0083  0.2480
 1067YOPC   C1A15087  18.256  15.103   5.762  0.1451  0.1525  0.6892
 1067YOPC   D2A15088  18.395  14.939   6.123 -0.1645  0.0924 -0.1174
 1067YOPC   C3A15089  18.347  14.598   6.361 -0.1808  0.1693  0.0250
 1067YOPC   C4A15090  18.206  14.590   6.794  0.3778 -0.1532 -0.2376
 1067YOPC   C1B15091  17.836  15.355   5.840  0.2487 -0.1470  0.1709
 1067YOPC   C2B15092  18.003  15.342   6.231  0.3069 -0.5671 -0.0614
 1067YOPC   D3B15093  18.157  15.601   6.577 -0.1287 -0.0161 -0.2525
 1067YOPC   C4B15094  18.172  15.644   7.046 -0.3513  0.0229 -0.0162
 1068YOPC   NC315095  11.236  14.383   5.989 -0.1551  0.1313  0.1707
 1068YOPC   PO415096  10.978  14.047   6.057  0.1755 -0.4350  0.0343
 1068YOPC   GL115097  11.147  14.191   6.404 -0.4077 -0.0580  0.0088
 1068YOPC   GL215098  11.328  13.954   6.472  0.1424  0.0692 -0.1188
 1068YOPC   C1A15099  11.100  14.320   6.829  0.0241 -0.1458  0.0449
 1068YOPC   D2A15100  11.077  14.369   7.258  0.0734 -0.0381  0.0821
 1068YOPC   C3A15101  11.027  14.634   7.525 -0.0603 -0.0918 -0.4261
 1068YOPC   C4A15102  11.243  14.568   7.931 -0.1453  0.1010 -0.1414
 1068YOPC   C1B15103  11.734  13.847   6.526  0.1292 -0.3242  0.2300
 1068YOPC   C2B15104  11.742  13.526   6.841 -0.2596 -0.2288 -0.0710
 1068YOPC   D3B15105  11.596  13.627   7.285 -0.1488  0.3622  0.1906
 1068YOPC   C4B15106  11.737  13.815   7.588  0.1790 -0.2141  0.0884
 1069YOPC   NC315107  18.408   9.674   5.275  0.1117 -0.1702 -0.0259
 1069YOPC   PO415108  18.172   9.482   5.540 -0.0816 -0.1894 -0.1664
 1069YOPC   GL115109  18.083   9.155   5.889 -0.0855  0.0897  0.0268
 1069YOPC   GL215110  18.288   8.881   5.934 -0.2979  0.0246 -0.0201
 1069YOPC   C1A15111  17.653   9.201   6.151  0.0630  0.0265 -0.1483
 1069YOPC   D2A15112  17.241   9.117   6.437 -0.3082 -0.1133 -0.3029
 1069YOPC   C3A15113  17.351   9.129   6.893 -0.1155  0.0362 -0.1054
 1069YOPC   C4A15114  17.034   9.115   7.225 -0.1398 -0.1509  0.0186
 1069YOPC   C1B15115  18.397   8.716   6.320  0.4412  0.0592  0.0564
 1069YOPC   C2B15116  18.527   8.773   6.797  0.0794  0.2271  0.2485
 1069YOPC   D3B15117  18.611   9.165   6.869  0.1427 -0.2479 -0.1577
 1069YOPC   C4B15118  18.694   9.315   7.130 -0.2970 -0.2444  0.4735
 1070YOPC   NC315119   6.560  18.357   5.330 -0.1281 -0.2732 -0.0433
 1070YOPC   PO415120   6.858  18.415   5.506 -0.0111 -0.3270 -0.1232
 1070YOPC   GL115121   7.067  18.170   5.793 -0.4497 -0.0241  0.0561
 1070YOPC   GL215122   6.917  18.258   6.076  0.2683  0.1688  0.0364
 1070YOPC   C1A15123   7.298  17.994   6.189  0.0904 -0.1352 -0.1384
 1070YOPC   D2A15124   7.062  17.912   6.559  0.3010  0.1840  0.1470
 1070YOPC   C3A15125   7.068  18.234   6.926  0.0976  0.2815 -0.0221
 1070YOPC   C4A15126   7.058  18.574   7.032 -0.0851 -0.2863  0.1032
 1070YOPC   C1B15127   6.932  18.484   6.434  0.1431 -0.3032  0.0477
 1070YOPC   C2B15128   6.636  18.687   6.716 -0.2384 -0.0146 -0.2194
 1070YOPC   D3B15129   6.591  18.447   7.101 -0.0654 -0.2167  0.0907
 1070YOPC   C4B15130   6.762  18.257   7.467  0.0763  0.1984 -0.1803
 1071YOPC   NC315131  17.125  11.402   5.418  0.2641  0.1640  0.1594
 1071YOPC   PO415132  17.587  11.405   5.617  0.1517 -0.3502  0.1158
 1071YOPC   GL115133  17.511  11.218   5.837  0.1523 -0.1582  0.1129
 1071YOPC   GL215134  17.433  11.056   5.867  0.1178  0.1405 -0.1473
 1071YOPC   C1A15135  17.843  11.117   6.191 -0.2791  0.7655 -0.1712
 1071YOPC   D2A15136  17.982  10.957   6.561  0.3073 -0.3731  0.2376
 1071YOPC   C3A15137  18.389  10.968   6.553  0.0307  0.0536 -0.2497
 1071YOPC   C4A15138  18.731  11.138   6.248  0.3323 -0.1362  0.2026
 1071YOPC   C1B15139  17.316  11.078   6.302 -0.3044  0.0659 -0.3334
 1071YOPC   C2B15140  17.456  10.884   6.619 -0.1434 -0.1087 -0.0632
 1071YOPC   D3B15141  17.781  10.484   6.597 -0.0485 -0.0025 -0.0696
 1071YOPC   C4B15142  17.753  10.021   6.478 -0.1383  0.1176  0.2632
 1072YOPC   NC315143  16.505   5.400   5.239  0.1617  0.2178 -0.3140
 1072YOPC   PO415144  16.732   4.979   5.390 -0.0124  0.0552 -0.0820
 1072YOPC   GL115145  16.702   5.131   5.801  0.2264 -0.1798  0.0791
 1072YOPC   GL215146  16.965   5.358   5.918  0.0673 -0.5617  0.0459
 1072YOPC   C1A15147  16.540   5.081   6.123  0.2970 -0.1166  0.1908
 1072YOPC   D2A15148  16.662   5.387   6.424  0.3059 -0.0914  0.1365
 1072YOPC   C3A15149  16.857   5.305   6.771  0.1709 -0.2832 -0.4514
 1072YOPC   C4A15150  17.319   5.219   6.760 -0.5822 -0.0577  0.1478
 1072YOPC   C1B15151  17.091   5.608   6.200  0.0937  0.4381  0.2479
 1072YOPC   C2B15152  17.350   5.741   6.645 -0.1825 -0.1220  0.1246
 1072YOPC   D3B15153  17.136   5.706   6.986 -0.1528 -0.2642  0.1847
 1072YOPC   C4B15154  16.761   5.682   7.209  0.0837  0.1561 -0.0406
 1073YOPC   NC315155  16.796   8.545   5.127 -0.0358  0.2463 -0.0482
 1073YOPC   PO415156  16.426   8.277   4.912  0.0976 -0.0260 -0.0173
 1073YOPC   GL115157  16.340   8.504   5.335  0.0685 -0.0862 -0.0931
 1073YOPC   GL215158  16.005   8.631   5.497 -0.2814  0.3620 -0.1930
 1073YOPC   C1A15159  16.355   8.305   5.694 -0.4445  0.1600 -0.2629
 1073YOPC   D2A15160  16.581   8.012   5.868  0.0353  0.1210  0.2480
 1073YOPC   C3A15161  16.842   8.117   6.182 -0.0469 -0.0790 -0.0704
 1073YOPC   C4A15162  17.206   8.220   6.302  0.3437  0.1965  0.0068
 1073YOPC   C1B15163  15.920   8.549   5.884  0.0243 -0.0921 -0.1186
 1073YOPC   C2B15164  15.776   8.671   6.312  0.0189  0.1397 -0.1605
 1073YOPC   D3B15165  15.942   8.712   6.802  0.1405 -0.0694 -0.2583
 1073YOPC   C4B15166  15.926   8.812   7.281  0.2323  0.1289 -0.1059
 1074YOPC   NC315167   2.031  15.748   5.250  0.1309 -0.1676 -0.2135
 1074YOPC   PO415168   1.594  15.912   5.133 -0.0474 -0.1691 -0.1928
 1074YOPC   GL115169   1.692  16.253   5.428 -0.2056  0.0210 -0.3897
 1074YOPC   GL215170   1.715  16.693   5.349  0.1169 -0.1713 -0.2512
 1074YOPC   C1A15171   1.794  16.259   5.845  0.0821 -0.1442 -0.2262
 1074YOPC   D2A15172   1.844  16.442   6.244 -0.1948 -0.4010 -0.1819
 1074YOPC   C3A15173   1.730  16.458   6.620 -0.3772  0.3142 -0.0791
 1074YOPC   C4A15174   1.754  16.524   7.050 -0.4246  0.0386  0.0289
 1074YOPC   C1B15175   1.765  16.747   5.734 -0.2911 -0.0743 -0.0806
 1074YOPC   C2B15176   1.805  16.924   6.045  0.0225 -0.1306  0.1174
 1074YOPC   D3B15177   2.194  16.971   6.419  0.0650 -0.2569 -0.2448
 1074YOPC   C4B15178   2.061  16.880   6.767 -0.1415  0.3579  0.1746
 1075YOPC   NC315179  12.164  11.581   5.174 -0.1915 -0.1570 -0.0105
 1075YOPC   PO415180  12.199  11.218   5.151 -0.0220 -0.1514 -0.2840
 1075YOPC   GL115181  12.301  11.253   5.590 -0.2367 -0.2024 -0.1326
 1075YOPC   GL215182  12.403  10.981   5.909 -0.1320 -0.0893 -0.0468
 1075YOPC   C1A15183  12.533  11.508   5.959  0.0709 -0.0516  0.0180
 1075YOPC   D2A15184  12.788  11.752   6.003  0.0634  0.1255  0.1167
 1075YOPC   C3A15185  12.810  12.011   6.353 -0.1502  0.1794 -0.0656
 1075YOPC   C4A15186  13.045  12.083   6.845  0.2063  0.0554 -0.0383
 1075YOPC   C1B15187  12.508  11.077   6.200  0.0899  0.2341 -0.0992
 1075YOPC   C2B15188  12.813  10.944   6.479 -0.0591 -0.0396 -0.1458
 1075YOPC   D3B15189  12.704  10.537   6.754 -0.0210  0.1001 -0.0037
 1075YOPC   C4B15190  12.310  10.524   6.940 -0.1985  0.0992 -0.2120
 1076YOPC   NC315191   3.455  10.455   5.315  0.2815  0.0586 -0.1838
 1076YOPC   PO415192   3.332  10.085   5.220  0.1894 -0.2438 -0.0322
 1076YOPC   GL115193   3.173  10.064   5.560  0.1100 -0.3082 -0.4498
 1076YOPC   GL215194   3.051   9.822   5.748 -0.1017 -0.2376  0.1936
 1076YOPC   C1A15195   3.183  10.411   6.019 -0.2164  0.1724 -0.2669
 1076YOPC   D2A15196   3.062  10.788   6.290 -0.2865 -0.3153  0.4937
 1076YOPC   C3A15197   3.122  10.801   6.766  0.3839 -0.1324 -0.0932
 1076YOPC   C4A15198   3.274  10.980   7.185 -0.0639  0.0581 -0.1642
 1076YOPC   C1B15199   3.233   9.892   6.138 -0.0372 -0.1539 -0.2266
 1076YOPC   C2B15200   3.443   9.878   6.618  0.4341 -0.1444 -0.3533
 1076YOPC   D3B15201   3.630  10.278   6.878  0.1255  0.0735  0.1835
 1076YOPC   C4B15202   3.639  10.657   7.025  0.0145  0.1714 -0.1358
 1077YOPC   NC315203  10.051   8.260   5.483  0.3536 -0.2161 -0.3342
 1077YOPC   PO415204   9.877   8.705   5.625  0.0471 -0.1279 -0.1119
 1077YOPC   GL115205   9.773   8.922   6.017 -0.0584 -0.0750 -0.3214
 1077YOPC   GL215206   9.776   9.201   6.007 -0.0350  0.2037 -0.1383
 1077YOPC   C1A15207   9.728   8.787   6.502  0.2389  0.1719  0.0071
 1077YOPC   D2A15208   9.623   8.586   6.900 -0.0922 -0.0967 -0.2349
 1077YOPC   C3A15209   9.274   8.456   6.923  0.0317  0.0203 -0.1849
 1077YOPC   C4A15210   9.140   8.033   6.733  0.1203  0.1119 -0.4324
 1077YOPC   C1B15211   9.826   9.328   6.433  0.1671 -0.0373  0.0961
 1077YOPC   C2B15212   9.967   9.646   6.717  0.2501 -0.2039  0.0787
 1077YOPC   D3B15213   9.868   9.592   7.068  0.1727  0.0922  0.4909
 1077YOPC   C4B15214   9.774   9.617   7.514  0.1564 -0.3726  0.2104
 1078YOPC   NC315215  12.049   2.215   5.102  0.3507  0.2464  0.0605
 1078YOPC   PO415216  12.437   2.254   5.502  0.1180  0.2572  0.1466
 1078YOPC   GL115217  12.056   2.373   5.773 -0.1782  0.0648 -0.1307
 1078YOPC   GL215218  11.943   2.120   5.934  0.1655 -0.0618  0.0283
 1078YOPC   C1A15219  12.138   2.639   6.031 -0.0095  0.0071 -0.0331
 1078YOPC   D2A15220  12.367   2.800   6.289 -0.2997 -0.2480 -0.2411
 1078YOPC   C3A15221  12.361   3.224   6.197 -0.6012 -0.2763 -0.1416
 1078YOPC   C4A15222  12.501   3.481   6.528 -0.1164  0.0820  0.1528
 1078YOPC   C1B15223  12.033   2.159   6.381 -0.0910  0.3083 -0.1165
 1078YOPC   C2B15224  12.253   2.193   6.726 -0.2173  0.2145 -0.0633
 1078YOPC   D3B15225  11.948   2.139   7.032 -0.1822 -0.1650 -0.0013
 1078YOPC   C4B15226  11.961   1.893   7.326 -0.1006  0.1088 -0.0222
 1079YOPC   NC315227  16.810  17.437   5.428 -0.0619  0.0890 -0.0304
 1079YOPC   PO415228  16.914  17.020   5.402  0.1735  0.1720  0.0934
 1079YOPC   GL115229  16.971  17.048   5.801 -0.0416  0.1069 -0.0690
 1079YOPC   GL215230  17.117  17.307   5.880  0.2453 -0.2710  0.0357
 1079YOPC   C1A15231  16.904  16.904   6.172 -0.0217 -0.1000  0.3112
 1079YOPC   D2A15232  16.925  17.026   6.578  0.0008  0.2606  0.0863
 1079YOPC   C3A15233  16.648  16.926   6.848  0.1689  0.1824 -0.0880
 1079YOPC   C4A15234  16.195  16.853   6.959  0.2697 -0.2469 -0.1411
 1079YOPC   C1B15235  17.179  17.515   6.318  0.3452  0.1711  0.0980
 1079YOPC   C2B15236  16.903  17.874   6.386 -0.5219  0.3289 -0.0726
 1079YOPC   D3B15237  17.013  18.265   6.485  0.1618  0.1017 -0.2788
 1079YOPC   C4B15238  16.759  18.550   6.310 -0.2551 -0.1759 -0.0509
 1080YOPC   NC315239  18.982   7.776   5.277 -0.2617 -0.3906 -0.1809
 1080YOPC   PO415240  18.804   7.403   5.189 -0.3402  0.1105  0.0924
 1080YOPC   GL115241  18.968   7.336   5.540 -0.0469 -0.1098 -0.0912
 1080YOPC   GL215242  19.159   7.676   5.786 -0.0051  0.1199  0.0433
 1080YOPC   C1A15243  19.136   7.165   5.955  0.0252 -0.1334  0.0388
 1080YOPC   D2A15244  19.192   6.996   6.417 -0.2002  0.3697 -0.0078
 1080YOPC   C3A15245  19.072   6.862   6.784  0.1131  0.3957 -0.3566
 1080YOPC   C4A15246  18.892   6.804   7.167 -0.0806  0.2639  0.1223
 1080YOPC   C1B15247  19.360   7.570   6.184  0.1025  0.1779  0.1418
 1080YOPC   C2B15248  19.686   7.290   6.388 -0.1194 -0.0565 -0.0326
 1080YOPC   D3B15249  19.898   7.506   6.567 -0.2578  0.3842 -0.0183
 1080YOPC   C4B15250  20.210   7.385   6.783  0.1317  0.1270 -0.1111
 1081YOPC   NC315251   3.016   7.310   5.669  0.1420 -0.1000 -0.0146
 1081YOPC   PO415252   3.471   7.178   5.810 -0.0802  0.1535  0.1857
 1081YOPC   GL115253   3.495   7.430   6.233 -0.2136 -0.3658  0.0220
 1081YOPC   GL215254   3.287   7.731   6.130  0.0958 -0.0774 -0.3729
 1081YOPC   C1A15255   3.512   7.678   6.583  0.0766 -0.2835 -0.0086
 1081YOPC   D2A15256   3.618   7.598   6.941 -0.4566  0.2885 -0.2358
 1081YOPC   C3A15257   3.853   7.236   7.120  0.1944 -0.0383 -0.2762
 1081YOPC   C4A15258   3.981   6.872   7.382 -0.2882 -0.0362  0.1358
 1081YOPC   C1B15259   3.030   7.556   6.356 -0.1137 -0.4867 -0.1066
 1081YOPC   C2B15260   2.747   7.723   6.661 -0.0459 -0.1940  0.2636
 1081YOPC   D3B15261   2.822   7.825   7.026  0.0949 -0.2854  0.2273
 1081YOPC   C4B15262   3.099   7.898   7.307  0.2442  0.0508  0.1132
 1082YOPC   NC315263   9.614   4.225   5.348  0.1593 -0.0618  0.1495
 1082YOPC   PO415264   9.124   4.295   5.175  0.1965  0.0397 -0.0825
 1082YOPC   GL115265   9.144   4.232   5.676 -0.0480 -0.5036 -0.0366
 1082YOPC   GL215266   9.408   4.141   5.753 -0.3332 -0.4164 -0.2028
 1082YOPC   C1A15267   8.942   4.069   6.072  0.1899  0.0095 -0.2029
 1082YOPC   D2A15268   9.038   3.814   6.441  0.0102  0.2226 -0.1170
 1082YOPC   C3A15269   8.971   3.922   6.827 -0.2050  0.3012 -0.0108
 1082YOPC   C4A15270   8.909   4.254   7.094  0.3434  0.3084  0.1993
 1082YOPC   C1B15271   9.279   4.418   6.130  0.0530 -0.0472 -0.2049
 1082YOPC   C2B15272   9.242   4.337   6.555 -0.1614  0.0698  0.0669
 1082YOPC   D3B15273   9.281   4.656   6.883 -0.0654 -0.2846  0.0647
 1082YOPC   C4B15274   9.414   5.050   7.040  0.0328  0.1504  0.1877
 1083YOPC   NC315275  16.219   9.909   5.078 -0.3614 -0.0598 -0.0721
 1083YOPC   PO415276  16.645  10.077   5.275  0.1106 -0.0192  0.1337
 1083YOPC   GL115277  16.888  10.046   5.584 -0.0366  0.0967  0.0662
 1083YOPC   GL215278  17.103  10.176   5.683  0.0796 -0.0428  0.0208
 1083YOPC   C1A15279  16.866  10.110   6.088 -0.1020 -0.2345 -0.0522
 1083YOPC   D2A15280  16.708  10.191   6.528 -0.1300  0.4513  0.2710
 1083YOPC   C3A15281  16.458   9.814   6.553  0.3110  0.4503 -0.0440
 1083YOPC   C4A15282  16.316   9.356   6.654 -0.0137  0.3495  0.1801
 1083YOPC   C1B15283  17.290   9.893   6.039 -0.2132 -0.1086  0.1131
 1083YOPC   C2B15284  17.397   9.575   6.336  0.0422 -0.0443 -0.1653
 1083YOPC   D3B15285  17.289   9.791   6.825 -0.0564 -0.1832 -0.2339
 1083YOPC   C4B15286  17.327   9.574   7.187 -0.1230 -0.0336  0.0902
 1084ERGO   ROH15287   5.936  17.675   9.171  0.1895 -0.3871 -0.2240
 1084ERGO    R115288   5.865  17.873   8.981  0.1227 -0.2672 -0.0745
 1084ERGO    R215289   6.039  17.959   8.784 -0.0185 -0.2952 -0.2040
 1084ERGO    R315290   5.834  17.892   8.619 -0.2207 -0.0968 -0.0422
 1084ERGO    R415291   6.002  18.071   8.459  0.0122 -0.4913 -0.2766
 1084ERGO    R515292   5.789  18.092   8.496  0.0520 -0.1079 -0.1785
 1084ERGO    C115293   5.789  18.072   8.115 -0.1598 -0.4188 -0.1669
 1084ERGO    C215294   5.703  18.183   7.837  0.4330 -0.0480  0.0462
 1085ERGO   ROH15295   8.284  15.083   9.956  0.1032 -0.0338  0.1361
 1085ERGO    R115296   8.329  14.963   9.703  0.0959  0.0123  0.1113
 1085ERGO    R215297   8.126  14.844   9.557  0.1058 -0.0345  0.1299
 1085ERGO    R315298   8.212  15.013   9.362  0.0168  0.0193  0.1392
 1085ERGO    R415299   8.086  14.792   9.218  0.2152 -0.0928  0.1271
 1085ERGO    R515300   8.287  14.869   9.187  0.1646  0.0619  0.1652
 1085ERGO    C115301   8.142  14.920   8.838  0.1954 -0.0763  0.1341
 1085ERGO    C215302   8.216  14.951   8.554  0.0878 -0.3624 -0.0173
 1086ERGO   ROH15303  14.593  18.031   6.123 -0.1013 -0.1601 -0.1106
 1086ERGO    R115304  14.518  18.020   6.396  0.0188 -0.0834 -0.0734
 1086ERGO    R215305  14.550  18.234   6.568  0.0362 -0.0102 -0.1618
 1086ERGO    R315306  14.285  18.196   6.614  0.0647 -0.0673 -0.0390
 1086ERGO    R415307  14.394  18.279   6.873  0.1277  0.1192 -0.1332
 1086ERGO    R515308  14.276  18.100   6.833  0.1711  0.0611  0.0189
 1086ERGO    C115309  14.054  18.270   7.094  0.2079  0.1409 -0.0012
 1086ERGO    C215310  13.984  18.208   7.403 -0.1277 -0.4505 -0.0511
 1087ERGO   ROH15311   3.276   9.173   5.793 -0.1210  0.0671 -0.0593
 1087ERGO    R115312   3.348   9.042   6.033 -0.0044 -0.0440 -0.1538
 1087ERGO    R215313   3.590   8.911   6.065  0.1073  0.1371 -0.2540
 1087ERGO    R315314   3.610   9.073   6.283 -0.0238  0.0012 -0.1382
 1087ERGO    R415315   3.727   8.818   6.368  0.0470 -0.0142 -0.2723
 1087ERGO    R515316   3.568   8.927   6.469 -0.0286 -0.1412 -0.2476
 1087ERGO    C115317   3.827   8.914   6.749 -0.1112 -0.2298 -0.1742
 1087ERGO    C215318   4.072   8.981   6.811 -0.1782 -0.3139  0.0863
 1088ERGO   ROH15319   5.217  13.349   6.026 -0.0701 -0.1031 -0.1788
 1088ERGO    R115320   5.297  13.196   6.251  0.0461  0.1437 -0.0480
 1088ERGO    R215321   5.265  13.285   6.510 -0.2462  0.2390 -0.1138
 1088ERGO    R315322   5.135  13.049   6.541  0.1099  0.0429 -0.0629
 1088ERGO    R415323   5.108  13.183   6.801 -0.2209  0.1329 -0.1374
 1088ERGO    R515324   5.185  12.982   6.766  0.1144  0.2313 -0.0054
 1088ERGO    C115325   4.894  12.900   6.999  0.1281 -0.1128 -0.1032
 1088ERGO    C215326   4.662  12.931   7.338  0.1045  0.2529  0.0385
 1089ERGO   ROH15327   0.136   1.163   9.196 -0.0377 -0.1924 -0.1072
 1089ERGO    R115328   0.144   1.244   8.925 -0.0061  0.1593 -0.0069
 1089ERGO    R215329  -0.011   1.125   8.729  0.3701  0.0719 -0.2661
 1089ERGO    R315330  -0.091   1.380   8.683 -0.1205 -0.0217  0.0014
 1089ERGO    R415331  -0.151   1.237   8.434  0.2129  0.1305 -0.1697
 1089ERGO    R515332  -0.034   1.420   8.454 -0.1445  0.3455  0.0544
 1089ERGO    C115333  -0.308   1.542   8.219 -0.3391  0.0768  0.1376
 1089ERGO    C215334  -0.513   1.557   7.951  0.2596 -0.1356  0.3656
 1090ERGO   ROH15335   1.159  16.406   5.474 -0.2362  0.1534 -0.1176
 1090ERGO    R115336   1.291  16.374   5.722 -0.1021  0.1003 -0.1934
 1090ERGO    R215337   1.340  16.585   5.893 -0.0270  0.0633 -0.1636
 1090ERGO    R315338   1.210  16.428   6.073  0.0770  0.0080 -0.1374
 1090ERGO    R415339   1.347  16.631   6.235 -0.0652  0.1280 -0.1719
 1090ERGO    R515340   1.361  16.415   6.259  0.0813  0.1431 -0.1324
 1090ERGO    C115341   1.229  16.510   6.604  0.0101  0.1135 -0.1521
 1090ERGO    C215342   1.217  16.618   6.957 -0.2033  0.1102 -0.0570
 1091ERGO   ROH15343   1.803  14.776   9.169 -0.2600 -0.0762  0.0559
 1091ERGO    R115344   1.961  14.900   8.970 -0.1554 -0.0268  0.1680
 1091ERGO    R215345   1.916  14.864   8.700  0.0809 -0.0830  0.1319
 1091ERGO    R315346   1.907  15.135   8.698 -0.0476 -0.0873  0.0939
 1091ERGO    R415347   2.037  15.064   8.445 -0.1817 -0.0639  0.0197
 1091ERGO    R515348   2.114  15.201   8.596 -0.1460 -0.0050 -0.0534
 1091ERGO    C115349   2.099  15.436   8.296 -0.4551 -0.0569 -0.0813
 1091ERGO    C215350   2.268  15.682   8.227 -0.0571  0.1178 -0.0180
 1092ERGO   ROH15351   6.894  18.139   8.939  0.1630  0.1762 -0.1623
 1092ERGO    R115352   7.029  17.964   8.762  0.2180  0.2143 -0.1587
 1092ERGO    R215353   6.897  17.780   8.603  0.2952 -0.0773  0.1024
 1092ERGO    R315354   7.034  17.903   8.403 -0.0481 -0.0458 -0.1207
 1092ERGO    R415355   6.932  17.656   8.283  0.1361 -0.2584  0.1536
 1092ERGO    R515356   7.139  17.723   8.284  0.0578  0.0002 -0.0943
 1092ERGO    C115357   7.080  17.699   7.908 -0.2788 -0.3340 -0.0261
 1092ERGO    C215358   7.072  17.771   7.487 -0.2346 -0.0870 -0.2332
 1093ERGO   ROH15359  11.626  15.491   9.225  0.0315  0.1020  0.1388
 1093ERGO    R115360  11.676  15.416   8.957  0.0679  0.0206  0.1691
 1093ERGO    R215361  11.669  15.153   8.873 -0.0106  0.0062  0.2309
 1093ERGO    R315362  11.492  15.250   8.690  0.0709  0.0278  0.1614
 1093ERGO    R415363  11.577  14.991   8.581  0.2018  0.0832  0.1183
 1093ERGO    R515364  11.583  15.183   8.479  0.2148  0.1242  0.1887
 1093ERGO    C115365  11.358  14.988   8.240  0.4019  0.1482 -0.0126
 1093ERGO    C215366  11.056  14.987   8.009  0.0143  0.2171 -0.0980
 1094ERGO   ROH15367   0.729   0.070   5.964 -0.2048 -0.1124 -0.1132
 1094ERGO    R115368   0.795  -0.067   6.203 -0.2333 -0.0888 -0.0916
 1094ERGO    R215369   0.823   0.062   6.445 -0.2228 -0.0588 -0.1093
 1094ERGO    R315370   0.641  -0.123   6.528 -0.2526 -0.0206 -0.0888
 1094ERGO    R415371   0.669   0.061   6.755  0.0199 -0.1808  0.0140
 1094ERGO    R515372   0.691  -0.156   6.759 -0.0854 -0.1976 -0.1470
 1094ERGO    C115373   0.408  -0.113   7.012  0.1332 -0.2161  0.1051
 1094ERGO    C215374   0.257  -0.144   7.280 -0.2315  0.1694 -0.1087
 1095ERGO   ROH15375   2.872   2.908   9.798 -0.0751 -0.0810 -0.0804
 1095ERGO    R115376   2.793   2.930   9.527  0.0915  0.1783 -0.1112
 1095ERGO    R215377   2.563   2.813   9.429  0.3342 -0.0423 -0.4433
 1095ERGO    R315378   2.508   3.066   9.345  0.0152  0.0038 -0.1224
 1095ERGO    R415379   2.427   2.894   9.122  0.3607  0.1905 -0.3959
 1095ERGO    R515380   2.563   3.064   9.112  0.1263  0.4021 -0.1049
 1095ERGO    C115381   2.297   3.178   8.864  0.0766  0.3693 -0.0671
 1095ERGO    C215382   2.177   3.218   8.542 -0.2986  0.3244 -0.2423
 1096ERGO   ROH15383  15.800  16.080   9.145  0.0193 -0.1909  0.0143
 1096ERGO    R115384  15.776  16.193   8.887  0.0484 -0.1516  0.0273
 1096ERGO    R215385  15.960  16.373   8.786  0.0978 -0.1806  0.0471
 1096ERGO    R315386  15.972  16.196   8.580  0.0525 -0.1639  0.0321
 1096ERGO    R415387  15.909  16.454   8.454 -0.3448 -0.2338  0.0967
 1096ERGO    R515388  15.798  16.268   8.431 -0.1800 -0.3419  0.2175
 1096ERGO    C115389  15.891  16.336   8.067 -0.6451 -0.2489  0.1114
 1096ERGO    C215390  15.899  16.445   7.838 -0.2639 -0.1859 -0.1398
 1097ERGO   ROH15391   0.522   9.207   9.357  0.0419  0.1005  0.0887
 1097ERGO    R115392   0.481   9.250   9.081  0.2029  0.1052  0.0649
 1097ERGO    R215393   0.674   9.196   8.891  0.1994 -0.2011  0.1471
 1097ERGO    R315394   0.477   9.047   8.779  0.0303  0.0498  0.1025
 1097ERGO    R415395   0.645   9.130   8.553  0.0959 -0.0220  0.1200
 1097ERGO    R515396   0.429   9.158   8.572  0.1220  0.1930  0.1549
 1097ERGO    C115397   0.442   8.952   8.251 -0.1231  0.3179  0.0623
 1097ERGO    C215398   0.556   9.012   7.992  0.0027  0.1810  0.0579
 1098ERGO   ROH15399  17.327   3.539   5.675 -0.0342 -0.4072 -0.3086
 1098ERGO    R115400  17.431   3.344   5.852  0.0604 -0.2746 -0.2163
 1098ERGO    R215401  17.694   3.342   5.934  0.0503 -0.0853 -0.1841
 1098ERGO    R315402  17.584   3.340   6.182  0.0240 -0.0509 -0.1948
 1098ERGO    R415403  17.872   3.370   6.229  0.0196 -0.0101 -0.1720
 1098ERGO    R515404  17.742   3.219   6.316  0.0257 -0.0100 -0.1565
 1098ERGO    C115405  17.872   3.385   6.634 -0.0231  0.0659 -0.1749
 1098ERGO    C215406  18.175   3.394   6.871  0.1339  0.1751 -0.1508
 1099ERGO   ROH15407   7.747  10.108   6.223 -0.0621  0.0550  0.0815
 1099ERGO    R115408   7.648  10.126   6.487 -0.0680 -0.1818  0.0970
 1099ERGO    R215409   7.698   9.932   6.678  0.3492 -0.1130  0.0616
 1099ERGO    R315410   7.790  10.144   6.822 -0.0585  0.0594  0.0821
 1099ERGO    R415411   7.757   9.930   7.019  0.6249 -0.1369  0.0165
 1099ERGO    R515412   7.673  10.131   7.030  0.1281 -0.3356  0.1735
 1099ERGO    C115413   7.878  10.128   7.352  0.4027  0.0110  0.0093
 1099ERGO    C215414   7.963   9.995   7.663  0.4076 -0.1923 -0.2205
 1100ERGO   ROH15415  12.476   1.186   9.059 -0.1021 -0.0164 -0.0220
 1100ERGO    R115416  12.564   1.275   8.805 -0.1638  0.0338 -0.0263
 1100ERGO    R215417  12.673   1.104   8.617  0.0567  0.1168  0.0228
 1100ERGO    R315418  12.480   1.208   8.457 -0.0396 -0.1308 -0.0262
 1100ERGO    R415419  12.680   1.101   8.272  0.1359  0.0996  0.0245
 1100ERGO    R515420  12.600   1.304   8.273 -0.1149  0.0046 -0.0066
 1100ERGO    C115421  12.503   1.197   7.920  0.0915 -0.1427 -0.0206
 1100ERGO    C215422  12.588   1.108   7.477 -0.1259  0.2731  0.0134
 1101ERGO   ROH15423  13.942  11.161   6.005 -0.0521  0.1112  0.0071
 1101ERGO    R115424  13.678  11.111   6.093 -0.1036 -0.0587 -0.2327
 1101ERGO    R215425  13.508  10.935   5.964  0.2483 -0.4501 -0.1805
 1101ERGO    R315426  13.488  10.825   6.211  0.0892 -0.1075 -0.0329
 1101ERGO    R415427  13.240  10.748   6.076  0.1522 -0.2531 -0.0746
 1101ERGO    R515428  13.257  10.848   6.269  0.0575  0.0130 -0.1967
 1101ERGO    C115429  13.065  10.535   6.373 -0.0530  0.1833  0.1257
 1101ERGO    C215430  12.894  10.210   6.442 -0.0178 -0.1237  0.1639
 1102ERGO   ROH15431   9.380  11.949   6.129  0.0372 -0.2602 -0.0028
 1102ERGO    R115432   9.390  12.014   6.404 -0.0035 -0.1838 -0.0191
 1102ERGO    R215433   9.216  12.194   6.521 -0.0006 -0.1285 -0.1014
 1102ERGO    R315434   9.167  11.987   6.691 -0.0579 -0.0735 -0.0501
 1102ERGO    R415435   9.248  12.208   6.865  0.2739 -0.1270 -0.1245
 1102ERGO    R515436   9.334  12.008   6.861  0.0937 -0.2077 -0.1777
 1102ERGO    C115437   9.220  12.021   7.224  0.3800 -0.0746 -0.0897
 1102ERGO    C215438   9.329  12.153   7.608 -0.0672 -0.3954 -0.0600
 1103ERGO   ROH15439   8.325   6.107   8.842  0.2739  0.2640 -0.0048
 1103ERGO    R115440   8.120   6.208   8.674  0.1618 -0.2014 -0.1655
 1103ERGO    R215441   8.121   6.467   8.578 -0.4729 -0.1045  0.0368
 1103ERGO    R315442   8.098   6.343   8.337  0.1738 -0.0130 -0.0913
 1103ERGO    R415443   7.977   6.607   8.297 -0.5004 -0.2975 -0.0460
 1103ERGO    R515444   7.885   6.414   8.254  0.0708 -0.5337 -0.3078
 1103ERGO    C115445   7.870   6.572   7.907  0.0905 -0.3240 -0.2143
 1103ERGO    C215446   7.699   6.659   7.606 -0.1191  0.2186 -0.0803
 1104ERGO   ROH15447   6.660  15.396   6.336  0.1711 -0.0526  0.0662
 1104ERGO    R115448   6.701  15.354   6.613  0.0368 -0.0878  0.0789
 1104ERGO    R215449   6.834  15.536   6.773  0.0301 -0.1553  0.1412
 1104ERGO    R315450   6.607  15.522   6.922 -0.0325 -0.0813  0.0589
 1104ERGO    R415451   6.787  15.695   7.076  0.0237 -0.1946  0.1629
 1104ERGO    R515452   6.685  15.516   7.148 -0.0958 -0.1745  0.0898
 1104ERGO    C115453   6.547  15.774   7.393 -0.0388 -0.1481  0.0983
 1104ERGO    C215454   6.361  15.915   7.547  0.3502 -0.2662  0.1785
 1105ERGO   ROH15455  10.681  11.054   9.468 -0.0450  0.2865 -0.0708
 1105ERGO    R115456  10.660  10.951   9.205 -0.0284  0.1925 -0.0350
 1105ERGO    R215457  10.578  11.105   8.991  0.1251  0.1536 -0.1191
 1105ERGO    R315458  10.812  11.019   8.881  0.1067 -0.0285 -0.0214
 1105ERGO    R415459  10.631  11.053   8.653  0.1890  0.0055 -0.0876
 1105ERGO    R515460  10.745  10.874   8.703  0.0662 -0.0505  0.0084
 1105ERGO    C115461  10.882  10.943   8.354  0.2089 -0.2518  0.0223
 1105ERGO    C215462  10.752  11.169   8.124  0.1282  0.2232  0.0768
 1106ERGO   ROH15463  11.278   1.837   5.981 -0.2242 -0.0900 -0.1197
 1106ERGO    R115464  11.198   1.871   6.250 -0.0167  0.0138 -0.0699
 1106ERGO    R215465  10.969   1.757   6.353  0.0101  0.1374  0.1236
 1106ERGO    R315466  11.140   1.657   6.538  0.0991  0.1142  0.0306
 1106ERGO    R415467  10.883   1.676   6.678  0.1094 -0.0965  0.0942
 1106ERGO    R515468  11.073   1.760   6.743  0.0834 -0.0368  0.1062
 1106ERGO    C115469  10.995   1.535   7.041  0.2508 -0.2545 -0.0103
 1106ERGO    C215470  10.756   1.631   7.373  0.0639 -0.2573 -0.3503
 1107ERGO   ROH15471  16.069  11.157   5.755 -0.3334 -0.1230  0.0384
 1107ERGO    R115472  16.045  10.944   5.940  0.0444 -0.1242  0.0953
 1107ERGO    R215473  16.264  10.812   6.044  0.2839  0.1728  0.0033
 1107ERGO    R315474  16.150  10.878   6.282  0.3257  0.0807  0.0489
 1107ERGO    R415475  16.326  10.651   6.344  0.1583 -0.0647 -0.0961
 1107ERGO    R515476  16.113  10.668   6.390  0.1798  0.0424 -0.0906
 1107ERGO    C115477  16.254  10.619   6.741  0.1243 -0.2893 -0.1111
 1107ERGO    C215478  16.470  10.774   6.921  0.1142  0.1081 -0.3085
 1108ERGO   ROH15479  15.915   1.567   7.913  0.2823  0.1717 -0.0894
 1108ERGO    R115480  15.686   1.563   7.746  0.3287 -0.0664 -0.1475
 1108ERGO    R215481  15.528   1.787   7.704  0.0637 -0.2587 -0.1135
 1108ERGO    R315482  15.577   1.731   7.443  0.1849 -0.1116 -0.1268
 1108ERGO    R415483  15.309   1.849   7.445  0.0854 -0.2769 -0.1389
 1108ERGO    R515484  15.366   1.658   7.357  0.2423 -0.2153 -0.2133
 1108ERGO    C115485  15.226   1.832   7.048  0.2116 -0.1495 -0.1662
 1108ERGO    C215486  15.126   1.876   6.656 -0.1384  0.1677  0.5199
 1109ERGO   ROH15487   0.153   4.522   9.415  0.2910  0.2490  0.0596
 1109ERGO    R115488   0.113   4.675   9.179  0.1874  0.3344  0.1327
 1109ERGO    R215489   0.263   4.900   9.121  0.4748  0.0924 -0.0647
 1109ERGO    R315490   0.311   4.767   8.888 -0.0902  0.0329 -0.1621
 1109ERGO    R415491   0.268   5.046   8.808  0.4334  0.1730 -0.0288
 1109ERGO    R515492   0.164   4.871   8.730 -0.0590  0.4105  0.0377
 1109ERGO    C115493   0.316   5.007   8.407 -0.1210  0.1642 -0.0993
 1109ERGO    C215494   0.530   4.945   8.048  0.2070 -0.1899  0.5547
 1110ERGO   ROH15495   0.150  15.272   8.754  0.0284  0.1074  0.0178
 1110ERGO    R115496   0.189  15.324   8.478  0.0974  0.0915  0.0243
 1110ERGO    R215497  -0.012  15.294   8.291  0.1569  0.0372 -0.0308
 1110ERGO    R315498   0.050  15.551   8.230  0.1252  0.0441 -0.0350
 1110ERGO    R415499  -0.031  15.432   7.975 -0.0135  0.0723 -0.0062
 1110ERGO    R515500   0.155  15.538   8.015  0.0097  0.0671 -0.0942
 1110ERGO    C115501   0.017  15.755   7.733 -0.1424  0.0991  0.0042
 1110ERGO    C215502   0.020  15.932   7.483  0.0155 -0.0803 -0.1666
 1111ERGO   ROH15503   5.876  10.987   9.387  0.0210 -0.0199 -0.0632
 1111ERGO    R115504   5.879  10.973   9.104  0.0993 -0.0762 -0.0594
 1111ERGO    R215505   5.789  11.178   8.944  0.0391 -0.1540 -0.1230
 1111ERGO    R315506   6.036  11.157   8.832  0.0779 -0.0557 -0.0588
 1111ERGO    R415507   5.851  11.177   8.604  0.1542  0.1819 -0.1070
 1111ERGO    R515508   6.000  11.021   8.637  0.1349  0.1376 -0.2090
 1111ERGO    C115509   6.120  11.156   8.301  0.2575  0.4699 -0.0374
 1111ERGO    C215510   6.199  11.259   8.054  0.0398  0.0632  0.1387
 1112ERGO   ROH15511   5.739   5.288   6.120  0.0540 -0.0372  0.1539
 1112ERGO    R115512   5.811   5.435   6.351  0.0815 -0.0978  0.1823
 1112ERGO    R215513   5.925   5.317   6.573  0.2802 -0.1249  0.0599
 1112ERGO    R315514   6.117   5.506   6.535  0.1359  0.0238  0.0506
 1112ERGO    R415515   6.182   5.384   6.793  0.2735  0.0221  0.0261
 1112ERGO    R515516   6.155   5.596   6.754  0.1086  0.0155  0.0641
 1112ERGO    C115517   6.512   5.600   6.886  0.1342  0.2473 -0.0023
 1112ERGO    C215518   6.681   5.698   7.182 -0.5641  0.0460 -0.1080
 1113ERGO   ROH15519  13.115  14.789   6.183 -0.1053  0.2636  0.0462
 1113ERGO    R115520  13.165  14.622   6.406 -0.2276 -0.1139 -0.2015
 1113ERGO    R215521  13.165  14.717   6.666  0.2614 -0.4117 -0.0917
 1113ERGO    R315522  12.983  14.519   6.705 -0.1390 -0.0689 -0.1276
 1113ERGO    R415523  13.039  14.623   6.974  0.4783 -0.5249 -0.0339
 1113ERGO    R515524  13.052  14.415   6.910 -0.0694 -0.4969 -0.3451
 1113ERGO    C115525  12.795  14.382   7.190  0.2286 -0.2690 -0.0338
 1113ERGO    C215526  12.563  14.464   7.415 -0.0175 -0.3028 -0.1992
 1114ERGO   ROH15527  14.267  13.482   9.400 -0.0449  0.3355  0.1241
 1114ERGO    R115528  14.163  13.578   9.155 -0.0115  0.2443  0.0735
 1114ERGO    R215529  14.325  13.636   8.937  0.0095  0.0651  0.0359
 1114ERGO    R315530  14.158  13.465   8.809 -0.0595  0.0586  0.1344
 1114ERGO    R415531  14.313  13.590   8.595 -0.0603 -0.0772  0.0571
 1114ERGO    R515532  14.096  13.580   8.608 -0.0592 -0.0101  0.0964
 1114ERGO    C115533  14.150  13.403   8.275 -0.1659 -0.1661  0.1620
 1114ERGO    C215534  14.180  13.523   8.021 -0.1605  0.2751  0.2836
 1115ERGO   ROH15535   4.812   7.705   5.971  0.0088  0.0713  0.0792
 1115ERGO    R115536   4.751   7.772   6.239  0.2475 -0.0306  0.1619
 1115ERGO    R215537   4.940   7.865   6.416  0.3144  0.3952 -0.1224
 1115ERGO    R315538   4.764   8.070   6.447 -0.0883  0.0326  0.1004
 1115ERGO    R415539   4.872   8.024   6.716  0.5142  0.3685 -0.0609
 1115ERGO    R515540   4.661   8.028   6.659  0.3814 -0.1135  0.3145
 1115ERGO    C115541   4.667   8.308   6.919  0.2525  0.0125  0.1839
 1115ERGO    C215542   4.804   8.599   7.211  0.1450  0.0025  0.0272
 1116ERGO   ROH15543   1.551   6.687   9.659 -0.2237 -0.1024  0.1372
 1116ERGO    R115544   1.676   6.667   9.405 -0.1071  0.0111  0.1841
 1116ERGO    R215545   1.690   6.429   9.266  0.0063  0.0600  0.1079
 1116ERGO    R315546   1.575   6.575   9.068  0.0603  0.1038  0.1088
 1116ERGO    R415547   1.632   6.315   8.944 -0.1953  0.0291  0.1538
 1116ERGO    R515548   1.693   6.511   8.870 -0.0602 -0.0416  0.0850
 1116ERGO    C115549   1.490   6.387   8.571 -0.2620  0.0522  0.1816
 1116ERGO    C215550   1.383   6.337   8.258 -0.1000 -0.2923 -0.3693
 1117ERGO   ROH15551   7.809  14.317   9.762  0.1932 -0.0748 -0.0570
 1117ERGO    R115552   7.635  14.388   9.550 -0.0083  0.0036  0.1315
 1117ERGO    R215553   7.452  14.593   9.570  0.2129  0.1846  0.2833
 1117ERGO    R315554   7.575  14.682   9.343  0.0125 -0.0213  0.0873
 1117ERGO    R415555   7.296  14.771   9.318  0.0603  0.2781  0.4408
 1117ERGO    R515556   7.409  14.654   9.172 -0.2586  0.1023  0.3159
 1117ERGO    C115557   7.319  14.957   8.959 -0.2167  0.1393  0.3485
 1117ERGO    C215558   7.187  15.038   8.706  0.0049 -0.1383  0.1569
 1118ERGO   ROH15559   9.978   2.141   9.597  0.0402 -0.1909 -0.0731
 1118ERGO    R115560   9.999   2.194   9.319 -0.0420 -0.0174 -0.0472
 1118ERGO    R215561   9.970   1.997   9.127  0.0749  0.0685 -0.1545
 1118ERGO    R315562   9.782   2.166   9.028 -0.0680 -0.0128 -0.0282
 1118ERGO    R415563   9.905   2.046   8.792 -0.1440  0.0795 -0.1124
 1118ERGO    R515564   9.883   2.258   8.832 -0.2277  0.0627 -0.0753
 1118ERGO    C115565   9.691   2.234   8.503 -0.4055  0.0096  0.0305
 1118ERGO    C215566   9.611   2.091   8.117 -0.2018 -0.0714 -0.3195
 1119ERGO   ROH15567  12.298  16.612   6.164 -0.1478  0.0892  0.0183
 1119ERGO    R115568  12.227  16.525   6.424 -0.1182 -0.1543 -0.0520
 1119ERGO    R215569  12.303  16.278   6.524  0.2162 -0.1021 -0.1527
 1119ERGO    R315570  12.403  16.428   6.727 -0.0827 -0.0485 -0.0397
 1119ERGO    R415571  12.485  16.154   6.790  0.2435  0.0360 -0.1073
 1119ERGO    R515572  12.378  16.291   6.921 -0.0024 -0.1563 -0.1080
 1119ERGO    C115573  12.686  16.223   7.136 -0.0212  0.1667  0.0252
 1119ERGO    C215574  12.831  16.373   7.474 -0.0243  0.2950  0.0931
 1120ERGO   ROH15575  12.088   5.195   6.212 -0.0889  0.0392 -0.0346
 1120ERGO    R115576  12.250   5.172   6.442 -0.1089  0.0879 -0.0158
 1120ERGO    R215577  12.196   5.308   6.676 -0.1797  0.0676 -0.0219
 1120ERGO    R315578  12.207   5.059   6.786 -0.1132  0.0701 -0.0218
 1120ERGO    R415579  12.335   5.234   6.984 -0.1431  0.1043 -0.0292
 1120ERGO    R515580  12.419   5.053   6.897 -0.1037  0.1232 -0.0341
 1120ERGO    C115581  12.426   4.957   7.266 -0.0594  0.1278 -0.0333
 1120ERGO    C215582  12.443   4.813   7.562  0.0088  0.3205 -0.0887
 1121ERGO   ROH15583   5.946  14.497   6.041  0.2160  0.2435 -0.0179
 1121ERGO    R115584   5.788  14.602   6.251  0.1365  0.2129 -0.0628
 1121ERGO    R215585   5.843  14.553   6.517 -0.0291  0.0842 -0.0542
 1121ERGO    R315586   5.839  14.825   6.535  0.0559  0.0794  0.0590
 1121ERGO    R415587   5.848  14.731   6.813  0.3571 -0.0393  0.0189
 1121ERGO    R515588   5.703  14.869   6.727  0.2852  0.0334  0.2402
 1121ERGO    C115589   5.848  15.089   7.002  0.6619 -0.1158  0.1678
 1121ERGO    C215590   5.940  14.943   7.313  0.4022 -0.3084  0.0861
 1122ERGO   ROH15591  12.406   3.597   8.919  0.1063  0.0962  0.1827
 1122ERGO    R115592  12.436   3.789   8.713  0.1715 -0.0216  0.0848
 1122ERGO    R215593  12.572   3.735   8.478 -0.1109 -0.2899 -0.0092
 1122ERGO    R315594  12.340   3.818   8.363 -0.1050 -0.0249  0.1547
 1122ERGO    R415595  12.548   3.882   8.166 -0.1784 -0.6233 -0.1684
 1122ERGO    R515596  12.399   4.019   8.248  0.1387 -0.2523 -0.1544
 1122ERGO    C115597  12.316   4.046   7.877 -0.2124 -0.5686 -0.1072
 1122ERGO    C215598  12.362   4.011   7.510  0.1037  0.0062 -0.0183
 1123ERGO   ROH15599   0.022   7.951   8.894 -0.0025  0.2234  0.0855
 1123ERGO    R115600   0.192   7.953   8.668 -0.1107  0.2584  0.0037
 1123ERGO    R215601   0.302   7.723   8.562  0.1302  0.3083  0.1419
 1123ERGO    R315602   0.189   7.813   8.332 -0.0941 -0.0196  0.1161
 1123ERGO    R415603   0.366   7.595   8.247  0.1203  0.1081  0.2191
 1123ERGO    R515604   0.364   7.799   8.170 -0.1558  0.0458  0.0409
 1123ERGO    C115605   0.297   7.606   7.848 -0.0960 -0.3163  0.2399
 1123ERGO    C215606   0.103   7.437   7.628  0.1068  0.0350  0.0706
 1124ERGO   ROH15607   4.102  16.799   6.377 -0.0698  0.0080 -0.0931
 1124ERGO    R115608   4.085  16.585   6.562  0.0795 -0.0840 -0.1829
 1124ERGO    R215609   4.304  16.490   6.700  0.1232  0.1115 -0.1096
 1124ERGO    R315610   4.148  16.536   6.917 -0.0422 -0.1449 -0.1695
 1124ERGO    R415611   4.297  16.291   6.983  0.2390  0.0240 -0.1676
 1124ERGO    R515612   4.080  16.318   6.989  0.1998 -0.2528 -0.2620
 1124ERGO    C115613   4.146  16.220   7.352  0.1512 -0.2674 -0.2577
 1124ERGO    C215614   4.483  16.038   7.452  0.0952  0.0486 -0.3253
 1125ERGO   ROH15615   4.693  10.850   9.297  0.0811  0.0730  0.1266
 1125ERGO    R115616   4.737  10.827   9.018 -0.0288  0.0301  0.1122
 1125ERGO    R215617   4.533  10.769   8.839 -0.1220  0.1170  0.1874
 1125ERGO    R315618   4.620  10.996   8.717 -0.0522  0.0656  0.1418
 1125ERGO    R415619   4.593  10.802   8.500 -0.0529  0.0171  0.1897
 1125ERGO    R515620   4.770  10.919   8.548 -0.0383 -0.0089  0.1895
 1125ERGO    C115621   4.710  11.034   8.189  0.0530 -0.0893  0.1482
 1125ERGO    C215622   4.558  10.954   7.892  0.0254  0.3440  0.0442
 1126ERGO   ROH15623   6.451  12.390   6.115  0.0172  0.0124 -0.1634
 1126ERGO    R115624   6.591  12.405   6.360 -0.0306  0.0043 -0.1345
 1126ERGO    R215625   6.496  12.291   6.593 -0.0868  0.0109 -0.1485
 1126ERGO    R315626   6.739  12.170   6.595 -0.0967 -0.0064 -0.1056
 1126ERGO    R415627   6.663  12.190   6.878 -0.0111  0.2491 -0.1066
 1126ERGO    R515628   6.849  12.261   6.788 -0.0341  0.1530 -0.2188
 1126ERGO    C115629   6.989  12.017   7.046  0.0236  0.3715 -0.0420
 1126ERGO    C215630   6.952  11.723   7.186  0.3115  0.0923  0.1073
 1127ERGO   ROH15631  14.647  11.413   6.517 -0.3072 -0.0900  0.1694
 1127ERGO    R115632  14.802  11.641   6.453 -0.1926 -0.1771  0.1320
 1127ERGO    R215633  14.712  11.837   6.279 -0.1035 -0.1507  0.1180
 1127ERGO    R315634  14.767  12.002   6.489 -0.0008 -0.1533  0.0940
 1127ERGO    R415635  14.816  12.165   6.251 -0.2659 -0.1032  0.0666
 1127ERGO    R515636  14.954  12.131   6.415 -0.1134 -0.0655 -0.0488
 1127ERGO    C115637  14.927  12.511   6.430 -0.2641 -0.0780  0.0143
 1127ERGO    C215638  15.220  12.759   6.536 -0.3337 -0.3883  0.1675
 1128ERGO   ROH15639   8.913   4.667   6.310 -0.0055 -0.0212  0.0121
 1128ERGO    R115640   8.811   4.646   6.574 -0.0583 -0.0257 -0.0088
 1128ERGO    R215641   8.548   4.700   6.637 -0.0862 -0.0910 -0.0726
 1128ERGO    R315642   8.555   4.451   6.744 -0.0440 -0.0799 -0.0485
 1128ERGO    R415643   8.331   4.584   6.879 -0.1508 -0.1461 -0.1556
 1128ERGO    R515644   8.500   4.484   6.975 -0.1553 -0.0787 -0.0739
 1128ERGO    C115645   8.212   4.281   7.121 -0.1486 -0.1678 -0.1813
 1128ERGO    C215646   7.912   4.351   7.153 -0.1524 -0.0280  0.1709
 1129ERGO   ROH15647  14.267   6.976   5.697 -0.0265  0.2359  0.0607
 1129ERGO    R115648  14.402   6.955   5.945 -0.1006  0.1492  0.0944
 1129ERGO    R215649  14.416   7.164   6.125 -0.1067  0.1044  0.1477
 1129ERGO    R315650  14.314   6.980   6.297 -0.1944  0.0856  0.0758
 1129ERGO    R415651  14.403   7.200   6.469 -0.0196 -0.0555  0.1685
 1129ERGO    R515652  14.458   6.990   6.488 -0.1521 -0.1018  0.0553
 1129ERGO    C115653  14.299   7.048   6.830 -0.0514 -0.1663  0.1132
 1129ERGO    C215654  14.184   6.872   7.139 -0.0073  0.1754  0.0024
 1130ERGO   ROH15655  14.624   6.616   9.111  0.2426 -0.1325  0.0977
 1130ERGO    R115656  14.589   6.409   8.921  0.2879 -0.1219  0.0779
 1130ERGO    R215657  14.470   6.450   8.675  0.1296 -0.1581  0.1491
 1130ERGO    R315658  14.700   6.340   8.581  0.1587  0.0179  0.0056
 1130ERGO    R415659  14.492   6.246   8.397  0.1239 -0.0556  0.0724
 1130ERGO    R515660  14.635   6.122   8.506  0.2574 -0.0020 -0.0317
 1130ERGO    C115661  14.721   6.023   8.147  0.1479  0.1694 -0.1070
 1130ERGO    C215662  14.809   6.041   7.899 -0.0532  0.0366  0.2547
 1131ERGO   ROH15663   6.276   1.570   9.846  0.0719  0.0617 -0.0353
 1131ERGO    R115664   6.169   1.658   9.599  0.1383  0.1562 -0.0308
 1131ERGO    R215665   6.313   1.814   9.422  0.3219 -0.0890 -0.1009
 1131ERGO    R315666   6.249   1.616   9.246 -0.0021 -0.0430 -0.0413
 1131ERGO    R415667   6.254   1.861   9.085  0.2211 -0.0664 -0.0804
 1131ERGO    R515668   6.091   1.717   9.098  0.0483  0.1312  0.0187
 1131ERGO    C115669   6.160   1.703   8.724 -0.1416 -0.0100 -0.0124
 1131ERGO    C215670   6.301   1.871   8.537 -0.1108  0.0769  0.0828
 1132ERGO   ROH15671  14.865  15.841   9.377  0.0941  0.0010 -0.0465
 1132ERGO    R115672  14.747  15.901   9.127  0.0232  0.0965  0.0095
 1132ERGO    R215673  14.886  16.022   8.921  0.0044  0.0444 -0.0318
 1132ERGO    R315674  14.800  15.806   8.779 -0.1729  0.1093 -0.0260
 1132ERGO    R415675  14.790  16.029   8.589  0.1081  0.0998 -0.0613
 1132ERGO    R515676  14.628  15.893   8.638 -0.0470  0.2684 -0.0885
 1132ERGO    C115677  14.654  15.830   8.263  0.0021  0.1931 -0.0729
 1132ERGO    C215678  14.515  15.863   7.975  0.2837  0.0026 -0.1042
 1133ERGO   ROH15679  12.584  15.232   9.339  0.0461 -0.0554  0.0954
 1133ERGO    R115680  12.617  15.379   9.099  0.1808 -0.0309  0.1284
 1133ERGO    R215681  12.769  15.287   8.888  0.0609 -0.1443  0.0921
 1133ERGO    R315682  12.541  15.330   8.746  0.0918  0.1375  0.1225
 1133ERGO    R415683  12.747  15.284   8.543 -0.0075 -0.2543  0.0968
 1133ERGO    R515684  12.613  15.455   8.555  0.2449 -0.0436  0.0564
 1133ERGO    C115685  12.521  15.323   8.209 -0.0182 -0.0538  0.1282
 1133ERGO    C215686  12.684  15.271   7.942 -0.0074 -0.1291  0.0172
 1134ERGO   ROH15687  12.693   7.049   5.673 -0.0315  0.0145  0.0682
 1134ERGO    R115688  12.736   6.979   5.944 -0.0346  0.0466  0.0763
 1134ERGO    R215689  12.986   6.987   6.061 -0.0112 -0.0987  0.0297
 1134ERGO    R315690  12.860   7.144   6.244  0.1301  0.0297  0.0201
 1134ERGO    R415691  13.115   7.073   6.370  0.0292 -0.2875  0.0672
 1134ERGO    R515692  12.915   7.046   6.455 -0.0269 -0.0661  0.0219
 1134ERGO    C115693  13.071   7.270   6.722  0.1854 -0.2770  0.0801
 1134ERGO    C215694  13.194   7.351   7.031  0.1407 -0.1628  0.3286
 1135ERGO   ROH15695  13.929   7.920   5.928 -0.2867  0.2480 -0.1769
 1135ERGO    R115696  13.917   8.062   6.172 -0.1800  0.1055 -0.0870
 1135ERGO    R215697  13.680   8.155   6.279 -0.1390  0.0062  0.0944
 1135ERGO    R315698  13.762   8.016   6.498  0.0010 -0.1077 -0.0279
 1135ERGO    R415699  13.537   8.180   6.593  0.1477 -0.0485  0.2325
 1135ERGO    R515700  13.737   8.171   6.679  0.2240 -0.1621  0.0529
 1135ERGO    C115701  13.531   8.063   6.981  0.4459 -0.1873  0.1980
 1135ERGO    C215702  13.225   7.934   7.201  0.4449 -0.0883 -0.4479
 1136ERGO   ROH15703  13.782  10.541   9.340 -0.1469 -0.0000 -0.0521
 1136ERGO    R115704  13.743  10.375   9.114 -0.1014 -0.0381 -0.0329
 1136ERGO    R215705  13.576  10.155   9.118 -0.1045 -0.0369 -0.0317
 1136ERGO    R315706  13.463  10.277   8.903 -0.0585 -0.0719 -0.0745
 1136ERGO    R415707  13.431   9.989   8.853 -0.2569 -0.0820  0.0796
 1136ERGO    R515708  13.521  10.135   8.718 -0.1804 -0.2088 -0.0113
 1136ERGO    C115709  13.240  10.006   8.496 -0.3026 -0.1410  0.1041
 1136ERGO    C215710  13.282   9.559   8.379  0.2091 -0.0192 -0.0849
 1137ERGO   ROH15711  15.995  11.852   9.026 -0.0823 -0.2685 -0.1223
 1137ERGO    R115712  16.027  11.751   8.763  0.0664 -0.1894 -0.1359
 1137ERGO    R215713  15.872  11.835   8.551 -0.0091 -0.3320 -0.1436
 1137ERGO    R315714  16.113  11.887   8.437 -0.0501 -0.0329 -0.1008
 1137ERGO    R415715  15.924  11.886   8.213 -0.0019 -0.2504 -0.1302
 1137ERGO    R515716  16.107  11.769   8.229  0.1352 -0.0272 -0.1060
 1137ERGO    C115717  16.181  11.964   7.909 -0.0360  0.0778 -0.0822
 1137ERGO    C215718  16.245  11.936   7.607 -0.0865 -0.0083 -0.1188
 1138ERGO   ROH15719  10.173  16.289   6.304 -0.1810 -0.2321  0.0519
 1138ERGO    R115720  10.243  16.306   6.578 -0.1583 -0.2218  0.0450
 1138ERGO    R215721  10.057  16.357   6.775 -0.1397 -0.2150  0.0562
 1138ERGO    R315722  10.157  16.129   6.885 -0.1310 -0.2093  0.0611
 1138ERGO    R415723  10.124  16.313   7.112  0.0241 -0.1373  0.0352
 1138ERGO    R515724  10.306  16.207   7.056 -0.0239 -0.1921 -0.0348
 1138ERGO    C115725  10.257  16.073   7.410  0.1274 -0.0869  0.0274
 1138ERGO    C215726  10.398  15.960   7.757 -0.4072 -0.1183 -0.0881
 1139ERGO   ROH15727  12.262   0.795   6.239 -0.1459 -0.0644 -0.0189
 1139ERGO    R115728  12.258   0.514   6.205  0.2487 -0.0661 -0.1071
 1139ERGO    R215729  12.488   0.362   6.201  0.4502  0.1979  0.3172
 1139ERGO    R315730  12.361   0.223   6.397  0.2016  0.0092  0.0304
 1139ERGO    R415731  12.575   0.045   6.308  0.4986  0.2174  0.3335
 1139ERGO    R515732  12.363  -0.004   6.321  0.5098  0.0457 -0.0676
 1139ERGO    C115733  12.507  -0.270   6.554  0.2934  0.0516  0.0738
 1139ERGO    C215734  12.641  -0.497   6.713  0.0615  0.0060 -0.2349
 1140ERGO   ROH15735  10.617   7.784   6.161  0.0458 -0.2685 -0.2259
 1140ERGO    R115736  10.592   7.616   6.387  0.0614 -0.1376 -0.1241
 1140ERGO    R215737  10.694   7.359   6.393  0.0391 -0.1490  0.0103
 1140ERGO    R315738  10.818   7.448   6.618  0.0793 -0.0267 -0.0618
 1140ERGO    R415739  10.819   7.156   6.644  0.0434 -0.0080  0.1214
 1140ERGO    R515740  10.744   7.300   6.790  0.0829  0.0922  0.0403
 1140ERGO    C115741  11.009   7.123   7.000  0.0837  0.1890  0.1184
 1140ERGO    C215742  11.260   7.033   7.183 -0.0983 -0.1934  0.0276
 1141ERGO   ROH15743   4.686   4.672   6.446  0.0268  0.0064  0.0169
 1141ERGO    R115744   4.600   4.553   6.688  0.0069  0.0072  0.0096
 1141ERGO    R215745   4.754   4.554   6.918  0.0186 -0.0565 -0.0001
 1141ERGO    R315746   4.531   4.665   7.028  0.0542 -0.0069  0.0242
 1141ERGO    R415747   4.659   4.521   7.248  0.2028  0.2102  0.0843
 1141ERGO    R515748   4.452   4.500   7.182  0.1699  0.1086  0.2120
 1141ERGO    C115749   4.394   4.605   7.544  0.3435  0.4121  0.1561
 1141ERGO    C215750   4.418   4.690   7.852 -0.2904  0.1196  0.1181
 1142ERGO   ROH15751  10.708  10.974   6.860  0.0600 -0.2246 -0.1284
 1142ERGO    R115752  10.897  10.776   6.934  0.2270 -0.0623 -0.1117
 1142ERGO    R215753  11.137  10.838   7.057  0.1249  0.1405 -0.0037
 1142ERGO    R315754  11.050  10.660   7.243  0.2239  0.0056 -0.0852
 1142ERGO    R415755  11.334  10.699   7.305  0.1490  0.3045  0.0702
 1142ERGO    R515756  11.233  10.509   7.271  0.3758  0.2002 -0.0209
 1142ERGO    C115757  11.367  10.451   7.624  0.2559  0.2734  0.0368
 1142ERGO    C215758  11.387  10.214   7.898 -0.2248 -0.1253 -0.2657
 1143ERGO   ROH15759   6.318   7.953   5.821 -0.2000  0.1107  0.0237
 1143ERGO    R115760   6.474   7.937   6.057 -0.2211 -0.0083  0.0311
 1143ERGO    R215761   6.594   8.158   6.171 -0.0157 -0.1037  0.0118
 1143ERGO    R315762   6.460   8.077   6.393 -0.1038  0.0451  0.0131
 1143ERGO    R415763   6.653   8.275   6.491  0.0851 -0.1412  0.0066
 1143ERGO    R515764   6.627   8.071   6.564 -0.1184 -0.1083  0.0196
 1143ERGO    C115765   6.562   8.267   6.885  0.0611 -0.0235  0.0048
 1143ERGO    C215766   6.640   8.613   7.059  0.1972 -0.0883  0.1063
 1144ERGO   ROH15767   6.015  12.004   9.506  0.3602  0.1416  0.1242
 1144ERGO    R115768   6.126  12.138   9.283  0.2427  0.0553  0.0120
 1144ERGO    R215769   6.281  12.009   9.094  0.1260 -0.0225 -0.0331
 1144ERGO    R315770   6.100  12.114   8.921  0.0336 -0.0715  0.0339
 1144ERGO    R415771   6.311  12.007   8.749 -0.2052 -0.3967 -0.0669
 1144ERGO    R515772   6.232  12.209   8.746 -0.0639 -0.3424 -0.1949
 1144ERGO    C115773   6.159  12.104   8.387 -0.4848 -0.6605 -0.0237
 1144ERGO    C215774   6.323  11.977   8.084  0.3083  0.1490  0.1661
 1145ERGO   ROH15775  17.961  12.550   8.889 -0.1606 -0.0587  0.0664
 1145ERGO    R115776  18.136  12.507   8.671 -0.0625 -0.0710  0.1468
 1145ERGO    R215777  18.057  12.377   8.441  0.0389 -0.0803  0.1171
 1145ERGO    R315778  18.149  12.603   8.320  0.0969 -0.0870  0.1478
 1145ERGO    R415779  18.170  12.395   8.114 -0.0228 -0.0484  0.0970
 1145ERGO    R515780  18.330  12.527   8.182  0.0401 -0.1222  0.0928
 1145ERGO    C115781  18.322  12.617   7.811 -0.0048 -0.0362  0.1141
 1145ERGO    C215782  18.426  12.558   7.432  0.0525  0.1270 -0.0152
 1146ERGO   ROH15783   6.591   3.363   6.593  0.1784  0.0093  0.1300
 1146ERGO    R115784   6.751   3.193   6.753  0.2198  0.0151  0.0978
 1146ERGO    R215785   6.771   3.223   7.027  0.2566 -0.0002  0.1027
 1146ERGO    R315786   6.695   2.962   7.029  0.2799 -0.0054  0.0910
 1146ERGO    R415787   6.774   3.019   7.306  0.1158  0.0294  0.1246
 1146ERGO    R515788   6.848   2.857   7.181  0.1999  0.0246  0.1880
 1146ERGO    C115789   6.704   2.655   7.470  0.0557  0.0418  0.1264
 1146ERGO    C215790   6.545   2.675   7.772  0.1761 -0.0537  0.0093
 1147ERGO   ROH15791   1.338  10.197   9.137 -0.0523  0.0319 -0.0281
 1147ERGO    R115792   1.392  10.134   8.866 -0.0593  0.0974 -0.0454
 1147ERGO    R215793   1.495   9.890   8.788  0.0066  0.1402 -0.1013
 1147ERGO    R315794   1.278   9.887   8.625 -0.0096  0.1072 -0.0782
 1147ERGO    R415795   1.505   9.837   8.446 -0.0485 -0.1191 -0.0648
 1147ERGO    R515796   1.353   9.992   8.423  0.0135 -0.0741 -0.1649
 1147ERGO    C115797   1.306   9.804   8.094 -0.0958 -0.3010 -0.0219
 1147ERGO    C215798   1.488   9.633   7.829 -0.0075 -0.0144  0.2426
 1148ERGO   ROH15799  15.551   6.821   8.865  0.2685 -0.2087  0.0300
 1148ERGO    R115800  15.608   6.731   8.603 -0.0493 -0.2733 -0.0204
 1148ERGO    R215801  15.410   6.680   8.417 -0.2586  0.1776  0.0671
 1148ERGO    R315802  15.554   6.853   8.264  0.0296 -0.0816  0.0340
 1148ERGO    R415803  15.394   6.700   8.072 -0.5064  0.3746  0.0867
 1148ERGO    R515804  15.610   6.727   8.068 -0.4299 -0.1335 -0.0781
 1148ERGO    C115805  15.520   6.874   7.728 -0.3803  0.2460  0.0671
 1148ERGO    C215806  15.532   6.750   7.383  0.0604 -0.0432  0.0980
 1149ERGO   ROH15807   9.084  18.972   9.213  0.0001  0.1330 -0.0535
 1149ERGO    R115808   8.995  18.910   8.952  0.0211  0.0780 -0.0470
 1149ERGO    R215809   8.864  19.094   8.792  0.1198  0.0710 -0.1292
 1149ERGO    R315810   9.060  19.031   8.614  0.1227 -0.0637 -0.0803
 1149ERGO    R415811   8.833  19.113   8.448  0.0821 -0.2776 -0.1497
 1149ERGO    R515812   8.944  18.926   8.432  0.1258 -0.2749  0.0304
 1149ERGO    C115813   9.000  19.065   8.081  0.0630 -0.6072 -0.1155
 1149ERGO    C215814   9.140  19.045   7.817  0.2041 -0.1477  0.0546
 1150ERGO   ROH15815   8.168   3.046   9.450  0.0452  0.0402  0.0813
 1150ERGO    R115816   8.154   3.006   9.170 -0.1316 -0.0419  0.1006
 1150ERGO    R215817   7.994   3.159   9.006 -0.0407  0.0807  0.1241
 1150ERGO    R315818   8.227   3.199   8.871 -0.0556 -0.2239 -0.0000
 1150ERGO    R415819   8.017   3.280   8.682 -0.0508  0.2413  0.1824
 1150ERGO    R515820   8.177   3.136   8.646 -0.3088 -0.0057 -0.0093
 1150ERGO    C115821   8.249   3.388   8.368 -0.0707  0.0488  0.0999
 1150ERGO    C215822   8.488   3.535   8.119  0.1866 -0.0056  0.0461
 1151ERGO   ROH15823  18.064  15.062   8.904  0.2606 -0.0215 -0.0104
 1151ERGO    R115824  18.157  15.117   8.642  0.2522 -0.1086 -0.0314
 1151ERGO    R215825  18.134  14.936   8.434  0.0500 -0.0925 -0.0199
 1151ERGO    R315826  18.012  15.145   8.310  0.2046  0.0112 -0.0026
 1151ERGO    R415827  18.123  14.983   8.092 -0.0369 -0.1445 -0.0248
 1151ERGO    R515828  18.155  15.196   8.125  0.1888 -0.1638 -0.0698
 1151ERGO    C115829  18.002  15.205   7.776  0.0579 -0.0774 -0.0115
 1151ERGO    C215830  17.934  15.231   7.543 -0.2901  0.1477 -0.1288
 1152ERGO   ROH15831   3.784  11.534   9.299 -0.4729  0.1088  0.0368
 1152ERGO    R115832   3.929  11.566   9.059 -0.1923 -0.0543  0.1781
 1152ERGO    R215833   3.870  11.425   8.829 -0.1297  0.0147  0.1133
 1152ERGO    R315834   3.857  11.673   8.718  0.2646  0.0371  0.1046
 1152ERGO    R415835   3.907  11.492   8.492 -0.1420 -0.0622  0.0968
 1152ERGO    R515836   4.023  11.669   8.546  0.1921 -0.2623  0.0404
 1152ERGO    C115837   3.916  11.764   8.192  0.2210 -0.0861  0.0791
 1152ERGO    C215838   3.915  11.806   7.895 -0.1872 -0.0487 -0.1425
 1153ERGO   ROH15839   5.302  14.377   6.030 -0.3581  0.0472  0.0006
 1153ERGO    R115840   5.257  14.514   6.273 -0.2875  0.0408  0.0175
 1153ERGO    R215841   5.204  14.383   6.511 -0.1326  0.0317  0.0480
 1153ERGO    R315842   5.415  14.530   6.601 -0.1368  0.1030 -0.0562
 1153ERGO    R415843   5.285  14.429   6.844 -0.0837  0.1945  0.0142
 1153ERGO    R515844   5.332  14.637   6.799 -0.1196  0.1823 -0.0906
 1153ERGO    C115845   5.529  14.594   7.122 -0.0591  0.3564 -0.1032
 1153ERGO    C215846   5.542  14.484   7.461 -0.3296 -0.2338 -0.1686
 1154ERGO   ROH15847  13.193   4.629   6.101 -0.3023  0.0352  0.1323
 1154ERGO    R115848  13.039   4.420   6.212 -0.2210  0.0135  0.2088
 1154ERGO    R215849  13.117   4.281   6.438 -0.0679 -0.0098  0.1560
 1154ERGO    R315850  12.872   4.354   6.529 -0.0142 -0.0193  0.3081
 1154ERGO    R415851  12.929   4.100   6.665  0.0458 -0.0043  0.2549
 1154ERGO    R515852  12.752   4.147   6.547 -0.0123 -0.0016  0.3724
 1154ERGO    C115853  12.589   4.063   6.882  0.1627 -0.0100  0.4553
 1154ERGO    C215854  12.444   3.862   7.061 -0.2455  0.1716 -0.0202
 1155ERGO   ROH15855   8.817  10.425   9.219  0.1732  0.0909 -0.1123
 1155ERGO    R115856   8.932  10.423   8.960  0.1028  0.1706 -0.1444
 1155ERGO    R215857   8.840  10.259   8.757  0.1548  0.1117 -0.1201
 1155ERGO    R315858   8.820  10.493   8.621 -0.0387  0.1013 -0.1127
 1155ERGO    R415859   8.871  10.290   8.415  0.2199  0.1605 -0.1104
 1155ERGO    R515860   8.983  10.474   8.446  0.0302  0.2723 -0.0685
 1155ERGO    C115861   8.869  10.528   8.087  0.0760  0.1791 -0.0977
 1155ERGO    C215862   8.924  10.571   7.791 -0.1343  0.1534  0.2805
 1156ERGO   ROH15863   9.677   5.299   9.022  0.2197 -0.1968  0.0764
 1156ERGO    R115864   9.847   5.200   8.819  0.1305  0.0486 -0.1216
 1156ERGO    R215865   9.829   4.941   8.722  0.4442 -0.0047 -0.0304
 1156ERGO    R315866   9.807   5.067   8.482 -0.0796 -0.0952 -0.0439
 1156ERGO    R415867   9.869   4.789   8.414  0.3365 -0.0205 -0.0385
 1156ERGO    R515868   9.976   4.966   8.346 -0.0549  0.1656 -0.2230
 1156ERGO    C115869   9.873   4.819   8.010 -0.2179 -0.1147 -0.0559
 1156ERGO    C215870   9.966   4.742   7.644 -0.0245 -0.3756  0.1846
 1157ERGO   ROH15871   7.703   4.239   9.030 -0.1897  0.1214 -0.1129
 1157ERGO    R115872   7.720   4.060   8.812  0.0058  0.1645 -0.1355
 1157ERGO    R215873   7.499   3.931   8.707  0.1393 -0.0531 -0.1628
 1157ERGO    R315874   7.586   4.041   8.474  0.0385  0.0699 -0.1430
 1157ERGO    R415875   7.367   3.865   8.394  0.1867 -0.0966 -0.1734
 1157ERGO    R515876   7.569   3.864   8.314  0.1831  0.0910 -0.1803
 1157ERGO    C115877   7.372   3.929   7.994  0.1196 -0.0065 -0.1608
 1157ERGO    C215878   7.206   3.915   7.673 -0.0794  0.0526  0.1798
 1158ERGO   ROH15879   3.543   4.335   9.646 -0.1305 -0.0618 -0.1692
 1158ERGO    R115880   3.700   4.359   9.411 -0.0091  0.0228 -0.0819
 1158ERGO    R215881   3.960   4.266   9.395 -0.0754 -0.1837 -0.0536
 1158ERGO    R315882   3.865   4.133   9.179 -0.1025  0.0930 -0.2166
 1158ERGO    R415883   4.146   4.184   9.116  0.0203 -0.2644  0.0344
 1158ERGO    R515884   3.975   4.235   8.992  0.1858  0.0616 -0.0662
 1158ERGO    C115885   4.165   4.010   8.751  0.0506 -0.0515 -0.0673
 1158ERGO    C215886   4.305   3.876   8.616  0.0607  0.0740  0.1732
 1159ERGO   ROH15887  12.646   6.193   6.179 -0.0288 -0.0600  0.0163
 1159ERGO    R115888  12.380   6.264   6.242 -0.0617 -0.1545 -0.0144
 1159ERGO    R215889  12.171   6.083   6.229  0.0490 -0.3062  0.2404
 1159ERGO    R315890  12.130   6.162   6.486  0.0537 -0.0268  0.1587
 1159ERGO    R415891  11.863   6.162   6.365  0.0555 -0.1281  0.1553
 1159ERGO    R515892  11.957   6.327   6.471  0.0712 -0.0233 -0.0195
 1159ERGO    C115893  11.645   6.281   6.686  0.0637  0.2380  0.0290
 1159ERGO    C215894  11.445   6.305   7.029  0.0087  0.0006 -0.3101
 1160ERGO   ROH15895  13.507   5.362   9.238 -0.2009 -0.1270  0.0383
 1160ERGO    R115896  13.470   5.267   8.974 -0.2131 -0.0662  0.0185
 1160ERGO    R215897  13.287   5.380   8.799 -0.0530  0.1252 -0.0237
 1160ERGO    R315898  13.505   5.401   8.637  0.0158 -0.0671  0.0394
 1160ERGO    R415899  13.281   5.348   8.455  0.0135  0.1219 -0.0252
 1160ERGO    R515900  13.468   5.237   8.467 -0.0818 -0.0436  0.0329
 1160ERGO    C115901  13.482   5.349   8.103  0.1166 -0.0605  0.0332
 1160ERGO    C215902  13.385   5.310   7.764 -0.0846 -0.1516 -0.2158
 1161ERGO   ROH15903   3.653  14.056   9.272  0.2015 -0.0604  0.0039
 1161ERGO    R115904   3.652  14.184   9.020  0.0892 -0.0686 -0.0009
 1161ERGO    R215905   3.817  14.398   8.961 -0.0341  0.0194 -0.0374
 1161ERGO    R315906   3.891  14.241   8.751  0.0135  0.0503 -0.0435
 1161ERGO    R415907   3.816  14.497   8.630 -0.1838 -0.0101 -0.0461
 1161ERGO    R515908   3.739  14.300   8.576 -0.0696 -0.0638 -0.0093
 1161ERGO    C115909   3.884  14.408   8.240 -0.2264  0.0018 -0.0566
 1161ERGO    C215910   3.889  14.550   7.890  0.2626 -0.1900 -0.0795
 1162ERGO   ROH15911   3.985  17.754   9.421 -0.0540 -0.0144  0.0618
 1162ERGO    R115912   3.841  17.765   9.178  0.1603 -0.1493 -0.0743
 1162ERGO    R215913   3.810  17.999   9.034 -0.1079 -0.1267  0.0213
 1162ERGO    R315914   3.913  17.849   8.832  0.3557  0.1510  0.0336
 1162ERGO    R415915   3.776  18.072   8.698 -0.1451 -0.1421  0.0208
 1162ERGO    R515916   3.745  17.859   8.660  0.3913 -0.2270 -0.0356
 1162ERGO    C115917   3.852  17.973   8.312  0.2683  0.1095  0.0320
 1162ERGO    C215918   3.994  18.064   8.012 -0.1762 -0.2876  0.1795
 1163ERGO   ROH15919  17.751   4.765   5.834  0.0587  0.0051  0.0154
 1163ERGO    R115920  17.816   4.763   6.109 -0.2122  0.2675  0.0833
 1163ERGO    R215921  17.638   4.840   6.305 -0.6635 -0.2466 -0.1262
 1163ERGO    R315922  17.695   4.595   6.409  0.0002 -0.0620 -0.0038
 1163ERGO    R415923  17.567   4.742   6.629 -0.7855 -0.3657 -0.1848
 1163ERGO    R515924  17.761   4.641   6.635 -0.4272  0.2396  0.0867
 1163ERGO    C115925  17.581   4.456   6.915 -0.2336 -0.2616 -0.1039
 1163ERGO    C215926  17.311   4.297   7.158  0.1634  0.1019 -0.1568
 1164ERGO   ROH15927  10.344  14.830   6.420 -0.0414  0.0864 -0.0072
 1164ERGO    R115928  10.127  14.707   6.554  0.0971 -0.1218  0.0323
 1164ERGO    R215929  10.159  14.491   6.723  0.3738  0.0769  0.2485
 1164ERGO    R315930  10.027  14.650   6.899  0.0729  0.0510  0.0538
 1164ERGO    R415931  10.088  14.406   7.050  0.0800  0.1527  0.2067
 1164ERGO    R515932   9.892  14.498   7.026  0.0409  0.0082 -0.0355
 1164ERGO    C115933   9.923  14.505   7.406 -0.3736  0.1725 -0.0004
 1164ERGO    C215934   9.793  14.342   7.640  0.1669  0.1821  0.1814
 1165ERGO   ROH15935  11.801   7.986   5.832  0.2708 -0.0741  0.0174
 1165ERGO    R115936  11.818   7.898   6.101  0.0975 -0.0691  0.0306
 1165ERGO    R215937  11.847   8.072   6.313  0.0513 -0.0707  0.0392
 1165ERGO    R315938  11.626   7.945   6.407 -0.0462  0.0152 -0.0715
 1165ERGO    R415939  11.705   8.126   6.623 -0.1080  0.0088 -0.0466
 1165ERGO    R515940  11.671   7.912   6.640 -0.1910  0.0233 -0.0426
 1165ERGO    C115941  11.414   8.039   6.892 -0.2924  0.1356 -0.2004
 1165ERGO    C215942  11.349   8.250   7.293 -0.3391  0.1560 -0.2312
 1166ERGO   ROH15943   1.406  10.475   5.698  0.2541  0.0728  0.0249
 1166ERGO    R115944   1.561  10.484   5.935  0.0992  0.1286  0.1266
 1166ERGO    R215945   1.460  10.414   6.182 -0.0377  0.0972  0.0645
 1166ERGO    R315946   1.674  10.246   6.186  0.0168  0.1693  0.2020
 1166ERGO    R415947   1.599  10.277   6.468 -0.2503  0.0459  0.1450
 1166ERGO    R515948   1.797  10.311   6.382 -0.1824  0.1430  0.3367
 1166ERGO    C115949   1.881  10.041   6.638 -0.3228  0.0839  0.3209
 1166ERGO    C215950   1.908   9.823   6.767  0.0124  0.0743 -0.1951
 1167ERGO   ROH15951   2.389   3.056   6.660 -0.1028  0.0326  0.0980
 1167ERGO    R115952   2.283   3.237   6.850 -0.0685  0.0480  0.1028
 1167ERGO    R215953   2.293   3.190   7.122 -0.1408  0.0050  0.0993
 1167ERGO    R315954   2.412   3.434   7.128 -0.0437 -0.0431  0.1556
 1167ERGO    R415955   2.285   3.406   7.391 -0.2841  0.0621  0.0500
 1167ERGO    R515956   2.259   3.571   7.251 -0.0931  0.0455 -0.0047
 1167ERGO    C115957   2.392   3.762   7.554 -0.2764  0.0502  0.0742
 1167ERGO    C215958   2.664   3.934   7.738  0.0751  0.0330 -0.1098
 1168ERGO   ROH15959  15.050   0.521   9.322 -0.0755 -0.1167  0.0164
 1168ERGO    R115960  15.004   0.467   9.048 -0.3617 -0.0748  0.0547
 1168ERGO    R215961  14.790   0.573   8.909 -0.0892  0.5721  0.1114
 1168ERGO    R315962  14.985   0.659   8.739  0.1385 -0.1087 -0.0099
 1168ERGO    R415963  14.767   0.570   8.564 -0.3090  0.5883  0.1232
 1168ERGO    R515964  14.976   0.506   8.555 -0.4970 -0.1366  0.0127
 1168ERGO    C115965  14.936   0.649   8.204 -0.2231 -0.0415  0.0161
 1168ERGO    C215966  14.958   0.681   7.955 -0.0421  0.0433  0.3121
 1169ERGO   ROH15967  15.632   7.615   5.841  0.0027 -0.0524 -0.0986
 1169ERGO    R115968  15.754   7.723   6.073 -0.0001  0.0516 -0.1452
 1169ERGO    R215969  15.626   7.731   6.318 -0.0032  0.1637 -0.1517
 1169ERGO    R315970  15.850   7.601   6.402 -0.0057  0.2005 -0.0872
 1169ERGO    R415971  15.727   7.704   6.647 -0.0487  0.2619 -0.1295
 1169ERGO    R515972  15.932   7.736   6.582 -0.0398  0.2577 -0.1117
 1169ERGO    C115973  15.995   7.567   6.918 -0.0776  0.3537 -0.0559
 1169ERGO    C215974  16.167   7.520   7.154  0.1468  0.1757 -0.2410
 1170ERGO   ROH15975  18.820   5.961   6.104  0.1111  0.0258 -0.0378
 1170ERGO    R115976  18.861   6.131   6.327  0.0422  0.0014 -0.0062
 1170ERGO    R215977  18.694   6.132   6.547 -0.0263 -0.0218 -0.0584
 1170ERGO    R315978  18.925   6.089   6.683 -0.0690 -0.0373  0.0094
 1170ERGO    R415979  18.777   6.283   6.846 -0.0364  0.0913 -0.1118
 1170ERGO    R515980  18.982   6.303   6.773 -0.0140 -0.0135 -0.0803
 1170ERGO    C115981  19.043   6.330   7.149 -0.0821  0.1427 -0.0792
 1170ERGO    C215982  19.159   6.435   7.360 -0.1814  0.1799 -0.0696
 1171ERGO   ROH15983   5.572   7.453   5.822 -0.1557  0.1592 -0.1730
 1171ERGO    R115984   5.758   7.425   6.033  0.0056 -0.0354 -0.3305
 1171ERGO    R215985   6.003   7.554   6.033 -0.0127  0.0510 -0.3494
 1171ERGO    R315986   5.918   7.645   6.275  0.0967 -0.2606 -0.1932
 1171ERGO    R415987   6.211   7.655   6.290  0.0626 -0.1007 -0.3539
 1171ERGO    R515988   6.077   7.557   6.431  0.2275 -0.3204 -0.3850
 1171ERGO    C115989   6.253   7.800   6.666  0.2091 -0.4816 -0.2099
 1171ERGO    C215990   6.231   7.913   7.091  0.0764 -0.1120 -0.3160
 1172ERGO   ROH15991  18.397  11.496   5.896  0.1802  0.0110  0.1598
 1172ERGO    R115992  18.252  11.451   6.135  0.0866 -0.0657  0.0911
 1172ERGO    R215993  18.373  11.452   6.384 -0.0206 -0.0720  0.1486
 1172ERGO    R315994  18.181  11.637   6.440 -0.0943 -0.1308  0.0884
 1172ERGO    R415995  18.254  11.524   6.700 -0.1141 -0.0727  0.1131
 1172ERGO    R515996  18.053  11.538   6.617 -0.0983 -0.1498  0.0710
 1172ERGO    C115997  18.006  11.739   6.937 -0.2377 -0.1283  0.0359
 1172ERGO    C215998  18.114  12.040   7.168 -0.2173 -0.0645 -0.0132
 1173ERGO   ROH15999  18.379  13.677   7.350  0.1053  0.1124 -0.0884
 1173ERGO    R116000  18.479  13.416   7.305  0.0151  0.0593  0.0087
 1173ERGO    R216001  18.611  13.346   7.072 -0.1968 -0.1329 -0.0612
 1173ERGO    R316002  18.805  13.265   7.245 -0.0642 -0.0425 -0.1671
 1173ERGO    R416003  18.871  13.132   6.993 -0.1839 -0.0762 -0.1726
 1173ERGO    R516004  18.846  13.037   7.187 -0.0337 -0.0405 -0.1399
 1173ERGO    C116005  19.205  12.933   7.109 -0.0519  0.0418 -0.3368
 1173ERGO    C216006  19.441  12.682   6.962 -0.2885 -0.0458  0.6248
 1174ERGO   ROH16007  10.543  13.348   6.250 -0.0422  0.0556 -0.0018
 1174ERGO    R116008  10.749  13.442   6.419 -0.0853 -0.0225  0.0949
 1174ERGO    R216009  10.791  13.711   6.469  0.0030 -0.0368  0.1016
 1174ERGO    R316010  10.771  13.633   6.729 -0.1572 -0.0167  0.0964
 1174ERGO    R416011  10.887  13.901   6.741 -0.0851 -0.0505  0.1428
 1174ERGO    R516012  10.967  13.721   6.833 -0.1862 -0.0688  0.1959
 1174ERGO    C116013  10.925  13.938   7.143 -0.2869 -0.0396  0.1620
 1174ERGO    C216014  10.797  13.952   7.399  0.3091 -0.0747  0.1038
 1175ERGO   ROH16015  15.281  17.739   9.438 -0.0993 -0.2260 -0.1410
 1175ERGO    R116016  15.399  17.844   9.203 -0.0611 -0.0855 -0.0620
 1175ERGO    R216017  15.607  17.717   9.072  0.0951  0.0884 -0.0012
 1175ERGO    R316018  15.441  17.736   8.858  0.1739  0.0220 -0.0673
 1175ERGO    R416019  15.710  17.757   8.745  0.2019  0.0482  0.0283
 1175ERGO    R516020  15.546  17.897   8.715  0.1934  0.0106 -0.0578
 1175ERGO    C116021  15.614  17.798   8.353  0.3381 -0.0375 -0.0166
 1175ERGO    C216022  15.685  17.832   8.055  0.0195 -0.3968  0.2586
 1176ERGO   ROH16023  17.251   9.569   9.070  0.0989  0.1609  0.0220
 1176ERGO    R116024  17.147   9.451   8.834  0.1143 -0.0628  0.1246
 1176ERGO    R216025  17.041   9.600   8.627 -0.3757 -0.2780  0.2051
 1176ERGO    R316026  17.221   9.461   8.478 -0.2268  0.0667  0.0539
 1176ERGO    R416027  17.041   9.583   8.282 -0.6785 -0.3286  0.2047
 1176ERGO    R516028  17.093   9.372   8.297 -0.2265 -0.2282  0.1937
 1176ERGO    C116029  17.211   9.443   7.941 -0.7152 -0.0345  0.0626
 1176ERGO    C216030  17.166   9.483   7.611  0.1721  0.0007 -0.1616
 1177ERGO   ROH16031   9.119   7.817   9.468  0.2323 -0.1326  0.1189
 1177ERGO    R116032   9.134   7.722   9.202 -0.0633 -0.0861  0.0810
 1177ERGO    R216033   8.926   7.748   9.023 -0.1578  0.2298  0.2161
 1177ERGO    R316034   9.115   7.866   8.868 -0.0980  0.0317  0.1363
 1177ERGO    R416035   8.935   7.733   8.678 -0.1099 -0.0438  0.2272
 1177ERGO    R516036   9.152   7.710   8.690 -0.1307 -0.1151  0.2666
 1177ERGO    C116037   9.118   7.836   8.331 -0.0258 -0.3892  0.1588
 1177ERGO    C216038   9.220   7.811   7.975  0.4559  0.0469  0.0404
 1178ERGO   ROH16039  12.919   9.728   9.361 -0.0401  0.2106  0.0294
 1178ERGO    R116040  12.707   9.688   9.178  0.0440  0.0972 -0.0453
 1178ERGO    R216041  12.468   9.826   9.195 -0.0642 -0.0768 -0.0872
 1178ERGO    R316042  12.524   9.889   8.937 -0.0260  0.0210 -0.0551
 1178ERGO    R416043  12.235   9.845   8.940 -0.0601  0.2668 -0.0703
 1178ERGO    R516044  12.379   9.749   8.808 -0.1505  0.2192 -0.1296
 1178ERGO    C116045  12.153   9.915   8.549 -0.0217  0.5588 -0.0304
 1178ERGO    C216046  12.149  10.201   8.284  0.1155  0.3450  0.0113
 1179ERGO   ROH16047   1.487  11.161   5.818 -0.0394 -0.3271 -0.0010
 1179ERGO    R116048   1.428  10.948   5.995  0.1367 -0.3099  0.0816
 1179ERGO    R216049   1.617  10.840   6.166  0.2015 -0.0152  0.2090
 1179ERGO    R316050   1.430  10.895   6.356  0.0654 -0.1282  0.1087
 1179ERGO    R416051   1.632  10.734   6.495  0.2760  0.3007  0.3092
 1179ERGO    R516052   1.418  10.695   6.487  0.3353 -0.0326  0.2842
 1179ERGO    C116053   1.465  10.725   6.864  0.1916  0.3787  0.2734
 1179ERGO    C216054   1.507  10.886   7.192  0.1455 -0.1316 -0.0748
 1180ERGO   ROH16055  17.826  13.362   5.527  0.0551  0.0436 -0.0554
 1180ERGO    R116056  18.007  13.343   5.744 -0.0510  0.1677  0.0471
 1180ERGO    R216057  17.928  13.375   6.007 -0.2447 -0.0076  0.0170
 1180ERGO    R316058  18.046  13.132   6.038  0.0008  0.1080 -0.0036
 1180ERGO    R416059  17.928  13.192   6.300 -0.3433 -0.1792 -0.0898
 1180ERGO    R516060  18.135  13.138   6.260 -0.2382  0.0820  0.0937
 1180ERGO    C116061  18.039  12.858   6.500 -0.1701 -0.1705 -0.1712
 1180ERGO    C216062  17.985  12.853   6.825 -0.1939  0.2810 -0.1054
 1181ERGO   ROH16063  12.315  15.786   6.089 -0.0471  0.3054  0.1886
 1181ERGO    R116064  12.294  15.661   6.343 -0.0350  0.2397  0.1563
 1181ERGO    R216065  12.515  15.576   6.485 -0.0316  0.2139  0.1249
 1181ERGO    R316066  12.408  15.731   6.682 -0.0306  0.1545  0.1741
 1181ERGO    R416067  12.660  15.627   6.795  0.0005  0.1498  0.1218
 1181ERGO    R516068  12.461  15.613   6.884  0.0061  0.1046  0.1405
 1181ERGO    C116069  12.644  15.802   7.160  0.0201  0.0566  0.1661
 1181ERGO    C216070  12.663  15.895   7.547  0.1230 -0.0886  0.0490
 1182ERGO   ROH16071  11.930  10.946   5.741  0.0502 -0.2612 -0.0499
 1182ERGO    R116072  11.885  10.887   6.014 -0.0065  0.0546  0.0114
 1182ERGO    R216073  12.060  10.736   6.165 -0.1677  0.0085  0.1508
 1182ERGO    R316074  12.054  10.952   6.330  0.0739  0.1790 -0.0556
 1182ERGO    R416075  12.247  10.770   6.453 -0.0900  0.0955  0.0913
 1182ERGO    R516076  12.074  10.860   6.550  0.0104  0.3671  0.0332
 1182ERGO    C116077  12.351  10.992   6.776  0.1818  0.3062 -0.1371
 1182ERGO    C216078  12.665  11.128   6.946  0.0775  0.0012 -0.0014
 1183ERGO   ROH16079   3.289  19.002   9.552  0.0561  0.1436  0.0061
 1183ERGO    R116080   3.152  19.174   9.374  0.0308  0.0383 -0.0766
 1183ERGO    R216081   3.271  19.282   9.150  0.0156 -0.0491 -0.1247
 1183ERGO    R316082   3.058  19.171   9.023  0.0340 -0.1409 -0.0773
 1183ERGO    R416083   3.209  19.305   8.811 -0.0367 -0.1234 -0.1210
 1183ERGO    R516084   2.998  19.332   8.856 -0.0414 -0.1856 -0.0957
 1183ERGO    C116085   2.973  19.215   8.494 -0.0500 -0.2528 -0.0744
 1183ERGO    C216086   2.940  19.129   8.202 -0.0631 -0.0615  0.0346
 1184ERGO   ROH16087   0.568  12.066   8.963 -0.0747 -0.1775 -0.0357
 1184ERGO    R116088   0.593  11.871   8.759 -0.1115 -0.1567 -0.0603
 1184ERGO    R216089   0.375  11.742   8.649 -0.1389 -0.0884 -0.0913
 1184ERGO    R316090   0.480  11.832   8.415 -0.1017 -0.0812 -0.0717
 1184ERGO    R416091   0.306  11.609   8.338  0.0085 -0.1536 -0.0971
 1184ERGO    R516092   0.516  11.634   8.286  0.0129 -0.0822 -0.0358
 1184ERGO    C116093   0.364  11.616   7.937  0.1291 -0.1848 -0.0822
 1184ERGO    C216094   0.241  11.604   7.610 -0.0226  0.1591 -0.0514
 1185ERGO   ROH16095   6.751   6.874   9.573 -0.0370  0.1851 -0.1050
 1185ERGO    R116096   6.690   6.847   9.298  0.1142  0.1642 -0.1392
 1185ERGO    R216097   6.885   6.821   9.103  0.2212 -0.2220  0.0016
 1185ERGO    R316098   6.744   6.598   9.038 -0.0829 -0.0365  0.0107
 1185ERGO    R416099   6.866   6.684   8.786  0.1639 -0.3045  0.0419
 1185ERGO    R516100   6.655   6.644   8.821  0.0883  0.0220 -0.0443
 1185ERGO    C116101   6.723   6.395   8.541 -0.1551 -0.1786  0.0740
 1185ERGO    C216102   6.924   6.374   8.350 -0.0216  0.2113 -0.2783
 1186ERGO   ROH16103   4.185   7.576   6.271  0.1999 -0.0626 -0.1053
 1186ERGO    R116104   3.948   7.444   6.353  0.0762  0.3026  0.1528
 1186ERGO    R216105   3.921   7.169   6.344 -0.4911  0.3552 -0.1954
 1186ERGO    R316106   3.856   7.200   6.607  0.0731  0.1286 -0.0133
 1186ERGO    R416107   3.773   6.927   6.543 -0.5614  0.3568 -0.2445
 1186ERGO    R516108   3.649   7.082   6.632 -0.1103  0.4801  0.2140
 1186ERGO    C116109   3.626   6.815   6.904 -0.0727  0.1451 -0.1020
 1186ERGO    C216110   3.567   6.593   7.209  0.2270 -0.3939  0.4614
 1187ERGO   ROH16111   3.419   2.415   6.257  0.1356 -0.0947 -0.0071
 1187ERGO    R116112   3.522   2.266   6.475 -0.0201 -0.1091  0.0578
 1187ERGO    R216113   3.717   2.365   6.644  0.0818 -0.2366  0.0174
 1187ERGO    R316114   3.536   2.303   6.837  0.0119  0.0325  0.0424
 1187ERGO    R416115   3.772   2.396   6.984  0.0414  0.0149  0.0032
 1187ERGO    R516116   3.667   2.207   7.013 -0.0757  0.1008  0.1450
 1187ERGO    C116117   3.633   2.356   7.363 -0.0478  0.4139  0.0183
 1187ERGO    C216118   3.727   2.449   7.704  0.3851 -0.1157  0.0135
 1188ERGO   ROH16119  10.843   4.441   9.052  0.2360  0.1538  0.1559
 1188ERGO    R116120  10.909   4.558   8.803  0.0745  0.1982  0.1333
 1188ERGO    R216121  11.067   4.429   8.616  0.2259  0.3643  0.1480
 1188ERGO    R316122  10.856   4.479   8.451  0.1508  0.0733  0.1480
 1188ERGO    R416123  11.077   4.412   8.270  0.2496  0.3697  0.1483
 1188ERGO    R516124  10.952   4.591   8.263  0.0005  0.2049  0.1451
 1188ERGO    C116125  10.885   4.449   7.916  0.1931  0.0997  0.1484
 1188ERGO    C216126  10.780   4.339   7.626 -0.1985  0.2542 -0.0785
 1189ERGO   ROH16127  13.978  12.912   5.908 -0.3068  0.0264 -0.0077
 1189ERGO    R116128  14.044  12.769   6.143 -0.1249  0.0043 -0.0695
 1189ERGO    R216129  13.942  12.835   6.391  0.1736  0.0700  0.0460
 1189ERGO    R316130  13.865  12.575   6.393  0.0409  0.1103  0.1317
 1189ERGO    R416131  13.836  12.662   6.671  0.0408  0.2158  0.0860
 1189ERGO    R516132  13.947  12.489   6.601 -0.0402  0.1384  0.1696
 1189ERGO    C116133  13.701  12.317   6.836 -0.1612  0.3382  0.1898
 1189ERGO    C216134  13.635  12.304   7.108 -0.2221  0.4163  0.0342
 1190ERGO   ROH16135  12.556  17.590   9.237  0.0148 -0.3591  0.0981
 1190ERGO    R116136  12.496  17.418   9.020 -0.1998 -0.1665  0.0013
 1190ERGO    R216137  12.371  17.507   8.791  0.1148  0.1726 -0.0484
 1190ERGO    R316138  12.586  17.396   8.668 -0.0254 -0.2210  0.0480
 1190ERGO    R416139  12.375  17.392   8.465  0.0774  0.2758 -0.0858
 1190ERGO    R516140  12.494  17.222   8.532 -0.2987  0.0051 -0.0674
 1190ERGO    C116141  12.580  17.220   8.160 -0.0759 -0.0337 -0.0171
 1190ERGO    C216142  12.562  17.319   7.763  0.0291  0.1552  0.1429
 1191ERGO   ROH16143  11.078   5.590   9.265  0.0140  0.1948  0.0860
 1191ERGO    R116144  11.022   5.774   9.057 -0.1551  0.1395  0.0836
 1191ERGO    R216145  11.211   5.851   8.871 -0.2230  0.3233  0.0981
 1191ERGO    R316146  11.023   5.769   8.694 -0.1334  0.1432  0.0821
 1191ERGO    R416147  11.220   5.911   8.531 -0.0132 -0.0636  0.0282
 1191ERGO    R516148  11.006   5.948   8.537 -0.0182 -0.0261 -0.1363
 1191ERGO    C116149  11.048   5.869   8.166  0.1932 -0.4581 -0.0275
 1191ERGO    C216150  10.937   5.909   7.750 -0.0544 -0.1658 -0.3337
 1192ERGO   ROH16151   1.873   5.134   6.530 -0.0015  0.2303 -0.1178
 1192ERGO    R116152   2.055   5.232   6.724 -0.0322  0.1697 -0.0577
 1192ERGO    R216153   1.982   5.274   6.988 -0.0621  0.0454 -0.0454
 1192ERGO    R316154   2.195   5.113   7.038 -0.0460  0.0512 -0.0957
 1192ERGO    R416155   2.147   5.254   7.290 -0.0412 -0.0069 -0.0605
 1192ERGO    R516156   2.336   5.243   7.182 -0.0471  0.0319 -0.0763
 1192ERGO    C116157   2.444   5.091   7.514 -0.0138 -0.0320 -0.1165
 1192ERGO    C216158   2.490   4.882   7.716 -0.0919 -0.1337 -0.0099
 1193ERGO   ROH16159  14.734   2.354   9.382  0.3598 -0.0413 -0.2202
 1193ERGO    R116160  14.613   2.414   9.133  0.1709  0.1760 -0.0796
 1193ERGO    R216161  14.655   2.653   9.001  0.3035  0.1747 -0.0395
 1193ERGO    R316162  14.725   2.489   8.795 -0.0862  0.1599 -0.1710
 1193ERGO    R416163  14.625   2.733   8.666  0.1507  0.3624  0.0165
 1193ERGO    R516164  14.558   2.528   8.628 -0.1676  0.4683 -0.0249
 1193ERGO    C116165  14.674   2.626   8.278 -0.3040  0.4578 -0.0744
 1193ERGO    C216166  14.672   2.612   7.872  0.1076  0.0691  0.1713
 1194ERGO   ROH16167   9.131  14.996   6.559 -0.0018 -0.1077  0.0203
 1194ERGO    R116168   9.033  15.090   6.807  0.0498 -0.2409  0.0924
 1194ERGO    R216169   9.179  15.073   7.041  0.1838 -0.1800  0.0157
 1194ERGO    R316170   9.131  15.341   7.052 -0.0205 -0.2190  0.0978
 1194ERGO    R416171   9.154  15.258   7.332  0.2043 -0.2577  0.0666
 1194ERGO    R516172   8.989  15.367   7.243  0.0668 -0.3691  0.1842
 1194ERGO    C116173   9.095  15.616   7.513  0.0245 -0.3396  0.1733
 1194ERGO    C216174   8.947  15.656   7.835  0.0655 -0.1572  0.2047
 1195ERGO   ROH16175   8.693   0.870   9.194 -0.2494  0.0693  0.0241
 1195ERGO    R116176   8.696   0.944   8.921 -0.2596 -0.0029  0.0036
 1195ERGO    R216177   8.924   1.034   8.794 -0.3046  0.1423  0.0182
 1195ERGO    R316178   8.867   0.834   8.619 -0.1183  0.0464  0.0656
 1195ERGO    R416179   8.941   1.060   8.449 -0.2148  0.0351  0.0146
 1195ERGO    R516180   8.758   0.943   8.436 -0.1322 -0.0884 -0.0050
 1195ERGO    C116181   8.897   0.887   8.085  0.0123 -0.1174  0.0571
 1195ERGO    C216182   8.869   0.655   7.728 -0.0036  0.0871  0.0948
 1196ERGO   ROH16183   5.146   2.943   9.880  0.0292 -0.0360  0.2158
 1196ERGO    R116184   5.174   3.057   9.622 -0.0603 -0.0764  0.1875
 1196ERGO    R216185   5.419   3.079   9.496 -0.0734  0.0994  0.1879
 1196ERGO    R316186   5.292   2.946   9.296  0.0430 -0.0612  0.2200
 1196ERGO    R416187   5.514   3.084   9.164  0.0124 -0.0292  0.2101
 1196ERGO    R516188   5.303   3.094   9.109  0.0244 -0.1541  0.1468
 1196ERGO    C116189   5.450   2.960   8.783  0.1716 -0.2549  0.2533
 1196ERGO    C216190   5.486   2.858   8.373 -0.0241  0.1922  0.2237
 1197ERGO   ROH16191   1.019   8.350   9.443  0.0325  0.0778 -0.1300
 1197ERGO    R116192   0.914   8.172   9.250 -0.1584  0.1085 -0.0570
 1197ERGO    R216193   0.660   8.202   9.143 -0.0730  0.4364 -0.1925
 1197ERGO    R316194   0.794   8.196   8.907  0.0357  0.0698 -0.1271
 1197ERGO    R416195   0.515   8.150   8.833  0.0113  0.4060 -0.2266
 1197ERGO    R516196   0.685   8.026   8.780 -0.1371  0.1273 -0.0516
 1197ERGO    C116197   0.557   8.115   8.432  0.1623  0.0442 -0.1852
 1197ERGO    C216198   0.334   8.249   8.342 -0.0817  0.0190  0.0793
 1198ERGO   ROH16199  15.337  11.060   9.083 -0.3831 -0.0258 -0.0821
 1198ERGO    R116200  15.233  11.234   8.887 -0.2361  0.1098 -0.0419
 1198ERGO    R216201  15.355  11.473   8.819  0.0101 -0.0138 -0.0429
 1198ERGO    R316202  15.344  11.370   8.568 -0.1553  0.0228 -0.0512
 1198ERGO    R416203  15.492  11.621   8.538  0.0534 -0.0998 -0.0671
 1198ERGO    R516204  15.315  11.561   8.426 -0.0339  0.0647 -0.0205
 1198ERGO    C116205  15.561  11.610   8.139 -0.0767 -0.1154 -0.0892
 1198ERGO    C216206  15.868  11.493   7.843 -0.4692 -0.1439  0.0905
 1199ERGO   ROH16207  18.691  17.390   9.062  0.0591  0.4473 -0.0089
 1199ERGO    R116208  18.579  17.394   8.802  0.2064  0.0243 -0.0868
 1199ERGO    R216209  18.509  17.628   8.674 -0.4937 -0.2090 -0.1724
 1199ERGO    R316210  18.669  17.531   8.477 -0.0225  0.2727 -0.0484
 1199ERGO    R416211  18.438  17.645   8.336 -0.3573 -0.5528 -0.2216
 1199ERGO    R516212  18.517  17.442   8.315  0.3629 -0.3118 -0.1199
 1199ERGO    C116213  18.548  17.564   7.954  0.1646 -0.3008 -0.1339
 1199ERGO    C216214  18.364  17.743   7.688 -0.0911 -0.0624  0.3453
 1200ERGO   ROH16215   7.255  10.336   9.515 -0.3864 -0.2159 -0.0820
 1200ERGO    R116216   7.376  10.429   9.277 -0.2126 -0.1623  0.0242
 1200ERGO    R216217   7.447  10.261   9.069 -0.0989 -0.1147  0.0142
 1200ERGO    R316218   7.295  10.432   8.922  0.0194 -0.0466 -0.0278
 1200ERGO    R416219   7.416  10.251   8.725 -0.1054 -0.1571  0.0167
 1200ERGO    R516220   7.424  10.469   8.723  0.0393 -0.1706 -0.0309
 1200ERGO    C116221   7.256  10.405   8.386  0.0019 -0.1177 -0.0214
 1200ERGO    C216222   7.218  10.407   8.091 -0.1499  0.1120 -0.1180
 1201ERGO   ROH16223  12.863  12.742   9.469  0.1433  0.3947 -0.0367
 1201ERGO    R116224  12.774  12.697   9.204  0.1883  0.0998 -0.0047
 1201ERGO    R216225  12.648  12.893   9.055  0.0326 -0.1271 -0.1727
 1201ERGO    R316226  12.844  12.835   8.875  0.0858 -0.1167 -0.1194
 1201ERGO    R416227  12.659  13.010   8.730  0.1685 -0.0382 -0.1376
 1201ERGO    R516228  12.728  12.813   8.666  0.1526 -0.0370 -0.1674
 1201ERGO    C116229  12.849  13.023   8.372  0.2977  0.0231 -0.0673
 1201ERGO    C216230  13.050  13.074   8.163  0.2308 -0.1293  0.2055
 1202ERGO   ROH16231   3.695   1.044   9.617  0.0218 -0.0378  0.0562
 1202ERGO    R116232   3.602   1.095   9.355 -0.0975 -0.2344  0.0592
 1202ERGO    R216233   3.690   1.310   9.206 -0.4576 -0.1215  0.0085
 1202ERGO    R316234   3.748   1.118   9.022 -0.1777 -0.0659  0.0331
 1202ERGO    R416235   3.622   1.333   8.867 -0.1807 -0.1181 -0.0498
 1202ERGO    R516236   3.563   1.123   8.870 -0.0550 -0.1601 -0.1279
 1202ERGO    C116237   3.637   1.166   8.498  0.2434 -0.0638 -0.0607
 1202ERGO    C216238   3.726   1.276   8.179  0.0961 -0.0825 -0.0291
 1203ERGO   ROH16239  16.182  16.138   5.879 -0.0657 -0.1511  0.0634
 1203ERGO    R116240  16.251  15.980   6.104 -0.1391 -0.1661  0.0757
 1203ERGO    R216241  16.376  16.085   6.326  0.0152 -0.2272  0.0211
 1203ERGO    R316242  16.166  15.972   6.457 -0.0491 -0.0198  0.1007
 1203ERGO    R416243  16.375  16.003   6.662 -0.0504  0.0322  0.0864
 1203ERGO    R516244  16.268  15.819   6.612 -0.1390  0.0478  0.2254
 1203ERGO    C116245  16.177  15.850   6.981 -0.1488  0.3780  0.1991
 1203ERGO    C216246  16.169  15.909   7.249 -0.0347 -0.4949  0.2077
 1204ERGO   ROH16247  15.064  18.282   6.167  0.0839  0.1177  0.0350
 1204ERGO    R116248  14.935  18.306   6.417  0.2032  0.0036  0.1111
 1204ERGO    R216249  15.071  18.367   6.650  0.2791  0.1908  0.0298
 1204ERGO    R316250  14.888  18.567   6.666  0.0603 -0.0116  0.0982
 1204ERGO    R416251  15.005  18.552   6.935  0.1875  0.1398  0.0402
 1204ERGO    R516252  14.793  18.544   6.885  0.1792 -0.0998  0.1348
 1204ERGO    C116253  14.796  18.847   7.116 -0.0712 -0.0800  0.1105
 1204ERGO    C216254  14.676  19.117   7.209  0.4093 -0.1267  0.0001
 1205ERGO   ROH16255  10.779   3.349   5.960  0.1600 -0.0166 -0.0687
 1205ERGO    R116256  10.824   3.192   6.190  0.0822  0.1130  0.0364
 1205ERGO    R216257  10.944   3.293   6.418 -0.1382  0.2824  0.0775
 1205ERGO    R316258  10.720   3.197   6.539 -0.1718  0.2123 -0.0377
 1205ERGO    R416259  10.894   3.280   6.760 -0.0594 -0.2741  0.0786
 1205ERGO    R516260  10.801   3.085   6.734 -0.1906 -0.1815 -0.2423
 1205ERGO    C116261  10.654   3.183   7.072 -0.0450 -0.6639 -0.0290
 1205ERGO    C216262  10.553   3.413   7.378  0.1553  0.0448 -0.1593
 1206ERGO   ROH16263  19.044   4.455   6.318  0.3227  0.1012 -0.2657
 1206ERGO    R116264  18.906   4.695   6.376  0.3639  0.1129 -0.2170
 1206ERGO    R216265  18.760   4.730   6.607  0.2203  0.0236 -0.2931
 1206ERGO    R316266  18.917   4.950   6.635  0.2765 -0.0426 -0.0574
 1206ERGO    R416267  18.662   5.023   6.763  0.1719  0.0035 -0.2852
 1206ERGO    R516268  18.766   5.134   6.606  0.3714  0.0234 -0.1441
 1206ERGO    C116269  18.752   5.400   6.879  0.1962 -0.0704 -0.0594
 1206ERGO    C216270  18.658   5.672   6.949  0.0780 -0.1280 -0.0790
 1207ERGO   ROH16271  17.085   1.824   5.724 -0.0537  0.0932  0.0335
 1207ERGO    R116272  17.264   1.768   5.935 -0.0865  0.1006  0.0643
 1207ERGO    R216273  17.198   1.806   6.201 -0.1500  0.0545  0.0591
 1207ERGO    R316274  17.272   1.545   6.223 -0.1070  0.0655  0.0363
 1207ERGO    R416275  17.276   1.647   6.498  0.0212  0.0739  0.0249
 1207ERGO    R516276  17.438   1.545   6.395 -0.0213  0.0902 -0.0501
 1207ERGO    C116277  17.391   1.309   6.691  0.1614  0.0956 -0.0164
 1207ERGO    C216278  17.326   1.113   7.039 -0.2721 -0.2688 -0.2343
 1208ERGO   ROH16279   5.427  10.399   6.317  0.2314  0.1308  0.1360
 1208ERGO    R116280   5.302  10.496   6.552  0.0459  0.0486  0.0736
 1208ERGO    R216281   5.295  10.352   6.786  0.0116  0.0380  0.0665
 1208ERGO    R316282   5.404  10.577   6.892 -0.1834  0.1052  0.1305
 1208ERGO    R416283   5.292  10.433   7.122  0.0556 -0.1228  0.1068
 1208ERGO    R516284   5.252  10.641   7.066 -0.1838 -0.1358  0.2205
 1208ERGO    C116285   5.394  10.692   7.417 -0.1017 -0.1536  0.1903
 1208ERGO    C216286   5.457  10.695   7.742 -0.0584  0.0876  0.2096
 1209ERGO   ROH16287   3.754  18.265   6.186  0.1348 -0.0482  0.0191
 1209ERGO    R116288   3.511  18.297   6.326  0.1246 -0.0469  0.0001
 1209ERGO    R216289   3.337  18.088   6.373  0.1544 -0.0580  0.0457
 1209ERGO    R316290   3.362  18.167   6.632  0.1287  0.0113  0.0278
 1209ERGO    R416291   3.167  17.948   6.640  0.2901 -0.1380  0.0924
 1209ERGO    R516292   3.141  18.149   6.721  0.1498 -0.1385  0.0577
 1209ERGO    C116293   3.091  17.941   7.038  0.3450 -0.1195  0.1029
 1209ERGO    C216294   2.820  17.849   7.442  0.0350  0.0366 -0.1924
 1210ERGO   ROH16295   1.871  17.006   9.006  0.0193 -0.0531 -0.0752
 1210ERGO    R116296   1.855  17.094   8.738 -0.0199  0.0911 -0.0251
 1210ERGO    R216297   1.641  17.241   8.642 -0.0251  0.1514  0.0901
 1210ERGO    R316298   1.836  17.414   8.566 -0.0312  0.1848  0.1454
 1210ERGO    R416299   1.629  17.438   8.359 -0.1341  0.3970  0.2610
 1210ERGO    R516300   1.841  17.396   8.327 -0.1521  0.3858  0.1223
 1210ERGO    C116301   1.804  17.716   8.122 -0.2032  0.5715  0.4125
 1210ERGO    C216302   1.910  17.974   7.970 -0.3003  0.5292 -0.0360
 1211ERGO   ROH16303  13.297   4.096   9.404 -0.0002 -0.1907 -0.0317
 1211ERGO    R116304  13.185   4.087   9.144  0.0564 -0.1612 -0.0572
 1211ERGO    R216305  13.138   4.315   8.994  0.0257 -0.1401 -0.0132
 1211ERGO    R316306  13.287   4.184   8.809  0.0991 -0.0554 -0.0147
 1211ERGO    R416307  13.149   4.394   8.658  0.0756 -0.0471  0.0101
 1211ERGO    R516308  13.150   4.181   8.613  0.1389 -0.0383 -0.0453
 1211ERGO    C116309  13.296   4.317   8.288  0.1736  0.0866  0.0223
 1211ERGO    C216310  13.170   4.432   7.942 -0.1486 -0.0567 -0.0530
 1212ERGO   ROH16311  16.198   5.969   9.199 -0.0698  0.0043 -0.2244
 1212ERGO    R116312  16.310   6.016   8.943 -0.0906  0.0904 -0.2174
 1212ERGO    R216313  16.255   5.857   8.725  0.0914  0.0137 -0.2037
 1212ERGO    R316314  16.186   6.093   8.610 -0.1323 -0.0671 -0.2411
 1212ERGO    R416315  16.258   5.918   8.385  0.3101  0.0288 -0.2004
 1212ERGO    R516316  16.339   6.117   8.427  0.0080  0.1473 -0.1081
 1212ERGO    C116317  16.195   6.176   8.079  0.2276 -0.0384 -0.2336
 1212ERGO    C216318  16.100   6.103   7.777 -0.0839 -0.0008  0.1682
 1213ERGO   ROH16319   4.043   9.407   6.178 -0.1726 -0.2538 -0.1116
 1213ERGO    R116320   3.955   9.303   6.426  0.0911 -0.0888  0.0581
 1213ERGO    R216321   3.971   9.446   6.662 -0.1166  0.2737 -0.1306
 1213ERGO    R316322   3.705   9.389   6.676 -0.0132 -0.2164 -0.0047
 1213ERGO    R416323   3.767   9.515   6.933 -0.1949  0.1962 -0.1704
 1213ERGO    R516324   3.670   9.322   6.903  0.1627 -0.0236  0.0750
 1213ERGO    C116325   3.400   9.502   7.103 -0.1434 -0.3091 -0.0754
 1213ERGO    C216326   3.275   9.362   7.496  0.1015  0.1503 -0.0430
 1214ERGO   ROH16327   1.156   1.884   6.367  0.0056  0.0636 -0.0455
 1214ERGO    R116328   0.989   2.025   6.547 -0.0330  0.0972 -0.1082
 1214ERGO    R216329   1.058   2.070   6.810 -0.1011  0.1267 -0.0999
 1214ERGO    R316330   1.011   2.330   6.745 -0.0706  0.1227 -0.1397
 1214ERGO    R416331   1.042   2.331   7.036 -0.1743  0.1356 -0.1150
 1214ERGO    R516332   0.874   2.412   6.923 -0.1371  0.1336 -0.1878
 1214ERGO    C116333   0.989   2.727   7.107 -0.1882  0.1369 -0.1613
 1214ERGO    C216334   0.927   2.934   7.400 -0.0718 -0.1045 -0.0189
 1215ERGO   ROH16335  11.985   3.533   5.843 -0.0585  0.1646 -0.0244
 1215ERGO    R116336  11.963   3.620   6.111 -0.1897  0.1062 -0.0162
 1215ERGO    R216337  11.788   3.504   6.291 -0.0733 -0.1227 -0.0507
 1215ERGO    R316338  12.013   3.475   6.441 -0.0531  0.1237 -0.0276
 1215ERGO    R416339  11.805   3.555   6.633 -0.1781 -0.1348 -0.0430
 1215ERGO    R516340  11.999   3.651   6.604 -0.2807  0.0969 -0.0112
 1215ERGO    C116341  12.026   3.557   6.972 -0.2203  0.0896 -0.0168
 1215ERGO    C216342  11.892   3.370   7.236 -0.0940 -0.3565  0.0499
 1216ERGO   ROH16343  13.117  17.465   5.875  0.1078  0.1095  0.3409
 1216ERGO    R116344  13.075  17.447   6.154  0.0112  0.0016  0.3226
 1216ERGO    R216345  12.919  17.627   6.293  0.1495  0.0957  0.3814
 1216ERGO    R316346  12.790  17.403   6.377 -0.1014  0.1740  0.2095
 1216ERGO    R416347  12.759  17.594   6.598  0.1858 -0.0064  0.3875
 1216ERGO    R516348  12.838  17.391   6.611 -0.0609 -0.1090  0.1808
 1216ERGO    C116349  12.545  17.363   6.853 -0.0288  0.0078  0.2296
 1216ERGO    C216350  12.277  17.555   6.970  0.1666 -0.1276  0.0657
 1217ERGO   ROH16351  17.224  13.584   8.858 -0.0736  0.0545  0.0355
 1217ERGO    R116352  17.177  13.692   8.600 -0.0534  0.1065  0.0537
 1217ERGO    R216353  17.375  13.817   8.453 -0.0052  0.0094  0.0355
 1217ERGO    R316354  17.304  13.636   8.263 -0.1378  0.0682  0.0281
 1217ERGO    R416355  17.388  13.873   8.112  0.1080 -0.0123  0.0356
 1217ERGO    R516356  17.199  13.767   8.093  0.0130  0.1609  0.0046
 1217ERGO    C116357  17.328  13.735   7.736  0.0495  0.0301  0.0287
 1217ERGO    C216358  17.457  13.524   7.330  0.0217  0.2322 -0.1500
 1218ERGO   ROH16359  15.069   8.163   9.239 -0.0232  0.2078 -0.0675
 1218ERGO    R116360  15.015   7.924   9.097 -0.0247  0.1626  0.0091
 1218ERGO    R216361  14.764   7.862   8.999 -0.0048  0.1720 -0.0420
 1218ERGO    R316362  14.899   7.834   8.764  0.0592  0.0531  0.0077
 1218ERGO    R416363  14.705   7.613   8.767 -0.0743  0.1611 -0.0128
 1218ERGO    R516364  14.921   7.597   8.737 -0.0691  0.0316  0.0618
 1218ERGO    C116365  14.797   7.442   8.411 -0.0548  0.0431  0.0506
 1218ERGO    C216366  14.672   7.372   8.141 -0.0108 -0.2130  0.1662
 1219ERGO   ROH16367   5.634   3.268   6.248 -0.1140  0.0855 -0.0174
 1219ERGO    R116368   5.746   3.283   6.507 -0.0348 -0.0627 -0.0432
 1219ERGO    R216369   5.610   3.390   6.722  0.1067 -0.0036  0.0118
 1219ERGO    R316370   5.669   3.150   6.837 -0.0530 -0.0757 -0.0511
 1219ERGO    R416371   5.631   3.334   7.063  0.2443 -0.0550 -0.0036
 1219ERGO    R516372   5.805   3.207   7.026  0.1106 -0.2184 -0.1182
 1219ERGO    C116373   5.699   3.077   7.369  0.1745 -0.1526 -0.0716
 1219ERGO    C216374   5.880   3.175   7.648  0.2218  0.2721  0.2844
 1220ERGO   ROH16375   7.195  18.434   9.137 -0.1338  0.0554  0.0213
 1220ERGO    R116376   7.265  18.661   8.982 -0.1288  0.1339  0.1382
 1220ERGO    R216377   7.513  18.781   8.998 -0.0508 -0.0171  0.0398
 1220ERGO    R316378   7.514  18.742   8.729 -0.2782  0.1874  0.0056
 1220ERGO    R416379   7.655  18.996   8.768  0.0402  0.0051  0.1159
 1220ERGO    R516380   7.484  18.961   8.638 -0.0939  0.2995  0.1987
 1220ERGO    C116381   7.739  19.085   8.382 -0.1203  0.2099  0.1279
 1220ERGO    C216382   7.866  19.080   8.021  0.0020 -0.0306 -0.0208
 1221ERGO   ROH16383   0.576  10.616   8.811 -0.1153 -0.0957 -0.0849
 1221ERGO    R116384   0.743  10.620   8.583 -0.0007 -0.0898 -0.0013
 1221ERGO    R216385   0.696  10.464   8.360  0.0975 -0.0669 -0.0385
 1221ERGO    R316386   0.708  10.702   8.230  0.1821 -0.0566 -0.0133
 1221ERGO    R416387   0.720  10.500   8.017 -0.2284 -0.0403 -0.0612
 1221ERGO    R516388   0.861  10.664   8.049 -0.0397 -0.1741 -0.1817
 1221ERGO    C116389   0.744  10.746   7.695 -0.3387 -0.0153 -0.0506
 1221ERGO    C216390   0.841  10.831   7.464  0.0538  0.0264  0.2589
 1222ERGO   ROH16391  10.954   4.335   5.867  0.3171  0.2093 -0.0195
 1222ERGO    R116392  10.992   4.377   6.144  0.2010  0.0468  0.0220
 1222ERGO    R216393  10.827   4.265   6.335  0.1306 -0.0784 -0.1126
 1222ERGO    R316394  11.061   4.171   6.436  0.0954 -0.1224 -0.0702
 1222ERGO    R416395  10.904   4.249   6.671  0.1808  0.1871 -0.1090
 1222ERGO    R516396  11.107   4.314   6.623  0.2119  0.0262 -0.2082
 1222ERGO    C116397  11.169   4.151   6.962  0.1770  0.3004 -0.0671
 1222ERGO    C216398  11.096   4.066   7.341 -0.1016  0.1273 -0.1930
 1223ERGO   ROH16399  12.829   8.486   9.074  0.2007  0.0534 -0.0380
 1223ERGO    R116400  12.684   8.417   8.841  0.1595 -0.0717  0.0236
 1223ERGO    R216401  12.626   8.600   8.641 -0.1163 -0.1099  0.0628
 1223ERGO    R316402  12.746   8.415   8.482 -0.0038  0.0207 -0.0059
 1223ERGO    R416403  12.540   8.536   8.313 -0.1271 -0.0934  0.0626
 1223ERGO    R516404  12.567   8.324   8.352  0.0421 -0.0831  0.0040
 1223ERGO    C116405  12.602   8.326   7.972 -0.0277  0.0390 -0.0020
 1223ERGO    C216406  12.772   8.316   7.634  0.3451  0.1534  0.0879
 1224ERGO   ROH16407   7.039   7.175   5.729 -0.0080 -0.0635  0.1235
 1224ERGO    R116408   7.019   7.199   6.011  0.0400  0.0880  0.1144
 1224ERGO    R216409   7.220   7.119   6.182 -0.0693 -0.1449  0.1371
 1224ERGO    R316410   7.199   7.374   6.275  0.3184 -0.0660  0.0306
 1224ERGO    R416411   7.261   7.212   6.512 -0.1342 -0.1017  0.1336
 1224ERGO    R516412   7.093   7.350   6.489  0.1212  0.1952 -0.0323
 1224ERGO    C116413   7.265   7.506   6.792  0.1919 -0.0024  0.0316
 1224ERGO    C216414   7.287   7.626   7.119 -0.0939  0.1718  0.2594
 1225ERGO   ROH16415   7.362   6.014   9.240 -0.4361 -0.0725 -0.0230
 1225ERGO    R116416   7.393   5.774   9.094  0.1233  0.1045 -0.2212
 1225ERGO    R216417   7.181   5.646   8.971  0.3004 -0.5607  0.1252
 1225ERGO    R316418   7.339   5.664   8.751 -0.1667  0.1359 -0.1892
 1225ERGO    R416419   7.123   5.484   8.671  0.2120 -0.4928  0.1049
 1225ERGO    R516420   7.337   5.445   8.656  0.3422  0.1852 -0.3548
 1225ERGO    C116421   7.239   5.408   8.290 -0.2779  0.2007 -0.2022
 1225ERGO    C216422   7.123   5.311   7.877 -0.0472 -0.0107 -0.1417
 1226ERGO   ROH16423   1.147  13.511   7.344 -0.0030  0.2415 -0.2104
 1226ERGO    R116424   1.268  13.259   7.298 -0.0041  0.2490 -0.2607
 1226ERGO    R216425   1.246  13.048   7.476  0.1743  0.2761 -0.1940
 1226ERGO    R316426   1.155  12.915   7.257  0.0055  0.2278 -0.0954
 1226ERGO    R416427   1.306  12.715   7.409  0.0990  0.2590 -0.1745
 1226ERGO    R516428   1.334  12.767   7.199 -0.0550  0.2054 -0.2003
 1226ERGO    C116429   1.255  12.395   7.165 -0.1034  0.2038 -0.0705
 1226ERGO    C216430   1.296  12.021   7.246  0.0751 -0.1365 -0.0143
 1227ERGO   ROH16431   4.466   8.798   9.498 -0.0779 -0.2458  0.0620
 1227ERGO    R116432   4.492   8.899   9.235 -0.0662 -0.2378  0.0677
 1227ERGO    R216433   4.729   8.888   9.095 -0.0359 -0.1423  0.1192
 1227ERGO    R316434   4.576   8.766   8.907  0.0543 -0.2052  0.0835
 1227ERGO    R416435   4.787   8.901   8.754 -0.1008  0.0836  0.1139
 1227ERGO    R516436   4.571   8.920   8.724 -0.1291 -0.1152  0.1589
 1227ERGO    C116437   4.676   8.794   8.380 -0.0540  0.1561  0.0772
 1227ERGO    C216438   4.908   8.838   8.104  0.1256 -0.2042  0.0217
 1228ERGO   ROH16439  12.040  18.590   9.516 -0.0436  0.0956 -0.1302
 1228ERGO    R116440  12.064  18.614   9.235 -0.0609 -0.0230 -0.1423
 1228ERGO    R216441  12.293  18.542   9.098 -0.0259  0.0352 -0.1095
 1228ERGO    R316442  12.119  18.390   8.954  0.0547 -0.1250 -0.0409
 1228ERGO    R416443  12.358  18.411   8.785 -0.0321  0.1280 -0.1495
 1228ERGO    R516444  12.153  18.460   8.727 -0.1133 -0.0671 -0.0530
 1228ERGO    C116445  12.233  18.193   8.467  0.0399  0.0315 -0.1085
 1228ERGO    C216446  12.232  17.875   8.391  0.1064 -0.1246 -0.3930
 1229ERGO   ROH16447  10.823  12.444   9.475 -0.0680  0.1350  0.0109
 1229ERGO    R116448  10.850  12.522   9.205 -0.1564 -0.0053 -0.0396
 1229ERGO    R216449  11.092  12.518   9.072 -0.1739  0.0641 -0.0719
 1229ERGO    R316450  10.955  12.366   8.893 -0.1093 -0.1233  0.0344
 1229ERGO    R416451  11.176  12.480   8.739 -0.2722  0.0313 -0.0934
 1229ERGO    R516452  10.964  12.491   8.689 -0.3058 -0.1796 -0.0127
 1229ERGO    C116453  11.096  12.316   8.377 -0.2688 -0.1638 -0.0063
 1229ERGO    C216454  11.207  12.288   7.964 -0.4083  0.1771 -0.1518
 1230ERGO   ROH16455   0.027  10.659   6.223 -0.0534 -0.1118 -0.1570
 1230ERGO    R116456   0.167  10.509   6.418 -0.1249  0.0836  0.0476
 1230ERGO    R216457   0.404  10.378   6.363 -0.1736 -0.0792  0.2297
 1230ERGO    R316458   0.494  10.522   6.576 -0.1306  0.1600  0.0555
 1230ERGO    R416459   0.591  10.249   6.624  0.1419  0.2713  0.1868
 1230ERGO    R516460   0.474  10.372   6.762  0.1398  0.2756  0.1863
 1230ERGO    C116461   0.784  10.309   6.976  0.3660  0.6999 -0.0016
 1230ERGO    C216462   1.081  10.497   7.187 -0.0933 -0.1379  0.0095
 1231ERGO   ROH16463  14.567  12.107   9.141 -0.2423 -0.0477 -0.1037
 1231ERGO    R116464  14.559  12.229   8.885 -0.1509 -0.0113 -0.0898
 1231ERGO    R216465  14.784  12.256   8.726 -0.0983 -0.0157 -0.0198
 1231ERGO    R316466  14.629  12.129   8.543 -0.0591  0.0267 -0.0822
 1231ERGO    R416467  14.855  12.233   8.388 -0.0258  0.0533 -0.0094
 1231ERGO    R516468  14.643  12.266   8.347 -0.0138  0.0658 -0.0497
 1231ERGO    C116469  14.750  12.101   8.020  0.0533  0.1333 -0.0618
 1231ERGO    C216470  14.910  12.114   7.790 -0.2423 -0.0172 -0.0007
 1232ERGO   ROH16471   6.909   8.131   9.530  0.3748  0.1353 -0.1227
 1232ERGO    R116472   7.018   8.034   9.287  0.2710 -0.0043 -0.1147
 1232ERGO    R216473   6.950   7.789   9.181  0.0669  0.0245 -0.0519
 1232ERGO    R316474   6.892   7.937   8.960  0.1558  0.0207 -0.0782
 1232ERGO    R416475   6.924   7.663   8.860  0.0680 -0.0045 -0.0406
 1232ERGO    R516476   7.027   7.841   8.787  0.1464 -0.0512 -0.0464
 1232ERGO    C116477   6.854   7.728   8.466  0.1519 -0.0250 -0.0588
 1232ERGO    C216478   6.847   7.496   8.279 -0.0749  0.2289 -0.0269
 1233ERGO   ROH16479  18.477  13.661   9.230 -0.0418 -0.2331 -0.0738
 1233ERGO    R116480  18.569  13.771   8.986  0.1138 -0.1071  0.0386
 1233ERGO    R216481  18.838  13.795   8.925  0.1565 -0.1785  0.1730
 1233ERGO    R316482  18.766  13.657   8.702  0.1921 -0.0029  0.0524
 1233ERGO    R416483  18.946  13.868   8.605  0.1555  0.1028  0.2347
 1233ERGO    R516484  18.745  13.825   8.533  0.1717  0.1299  0.1902
 1233ERGO    C116485  18.941  13.781   8.209  0.1884  0.4312  0.1575
 1233ERGO    C216486  19.141  13.651   8.019  0.2323 -0.0026 -0.0838
 1234ERGO   ROH16487   8.976   4.358   9.236 -0.0402  0.1746  0.1762
 1234ERGO    R116488   8.990   4.320   8.956 -0.1193  0.0710  0.1861
 1234ERGO    R216489   8.786   4.393   8.786 -0.1185  0.1158  0.2056
 1234ERGO    R316490   8.984   4.531   8.660 -0.0751 -0.0271  0.1145
 1234ERGO    R416491   8.800   4.450   8.445 -0.3079  0.2228  0.2140
 1234ERGO    R516492   9.015   4.413   8.453 -0.3339  0.0141  0.0481
 1234ERGO    C116493   8.993   4.612   8.128 -0.3774  0.1508  0.1334
 1234ERGO    C216494   8.818   4.766   7.842  0.0653 -0.0384 -0.3125
 1235ERGO   ROH16495   7.511   3.557   6.375  0.0252 -0.0721 -0.1444
 1235ERGO    R116496   7.622   3.530   6.634  0.0942  0.0727 -0.1579
 1235ERGO    R216497   7.543   3.333   6.811 -0.0127  0.2974  0.0559
 1235ERGO    R316498   7.808   3.277   6.817 -0.0565  0.0798  0.0055
 1235ERGO    R416499   7.701   3.148   7.057 -0.0831  0.2948  0.0994
 1235ERGO    R516500   7.868   3.288   7.048  0.0273  0.1504 -0.0232
 1235ERGO    C116501   8.043   2.988   7.205 -0.1652  0.0890  0.0774
 1235ERGO    C216502   8.383   2.848   7.370  0.2286 -0.1772  0.0394
 1236ERGO   ROH16503   9.210  13.540   6.108 -0.0651 -0.0629 -0.0990
 1236ERGO    R116504   9.117  13.533   6.376 -0.1990 -0.0521 -0.1463
 1236ERGO    R216505   8.978  13.319   6.480  0.0970 -0.2145 -0.1010
 1236ERGO    R316506   9.172  13.327   6.670 -0.0188  0.2126  0.0140
 1236ERGO    R416507   8.940  13.211   6.806  0.1675 -0.4830 -0.1774
 1236ERGO    R516508   9.056  13.384   6.871 -0.3124 -0.1830 -0.0213
 1236ERGO    C116509   9.100  13.156   7.174  0.0997 -0.2386 -0.1139
 1236ERGO    C216510   9.208  12.803   7.415 -0.2826  0.0523 -0.4680
 1237ERGO   ROH16511   5.955  16.810   9.226  0.1864 -0.0181  0.0780
 1237ERGO    R116512   6.122  16.911   9.022  0.0879  0.1010  0.0576
 1237ERGO    R216513   6.180  16.769   8.793  0.1944  0.1258  0.0769
 1237ERGO    R316514   6.088  16.992   8.668  0.0017  0.0349  0.0484
 1237ERGO    R416515   6.189  16.822   8.451  0.0377  0.0281  0.0553
 1237ERGO    R516516   6.244  17.030   8.491 -0.0797  0.0831 -0.0214
 1237ERGO    C116517   6.108  17.063   8.136 -0.2344 -0.1139  0.0158
 1237ERGO    C216518   6.058  17.341   7.851  0.1270 -0.0677  0.0946
 1238ERGO   ROH16519   1.311   3.482   6.428  0.1303 -0.2435  0.1757
 1238ERGO    R116520   1.420   3.387   6.671  0.2682 -0.2183  0.1238
 1238ERGO    R216521   1.688   3.410   6.734  0.2494  0.0448  0.0899
 1238ERGO    R316522   1.592   3.530   6.958  0.1590 -0.1423  0.1545
 1238ERGO    R416523   1.847   3.412   7.040  0.2778  0.0229  0.0759
 1238ERGO    R516524   1.654   3.382   7.136  0.2995 -0.1876  0.0775
 1238ERGO    C116525   1.850   3.525   7.429  0.2094 -0.1655  0.1284
 1238ERGO    C216526   1.842   3.714   7.732  0.1347 -0.2697 -0.0751
 1239ERGO   ROH16527  11.971   1.185   6.205 -0.2684  0.1932  0.0988
 1239ERGO    R116528  11.883   1.107   6.462 -0.0654  0.0512  0.1267
 1239ERGO    R216529  12.010   0.910   6.609  0.1670  0.1037 -0.0017
 1239ERGO    R316530  12.022   1.104   6.799  0.1257  0.0572  0.0499
 1239ERGO    R416531  12.034   0.853   6.949  0.3808  0.0156 -0.0296
 1239ERGO    R516532  11.894   1.017   6.982  0.2783 -0.0905  0.0906
 1239ERGO    C116533  12.060   1.002   7.325  0.4663 -0.0794  0.0026
 1239ERGO    C216534  12.126   0.833   7.651  0.2997  0.0691 -0.4082
 1240ERGO   ROH16535  16.270   8.199   8.990 -0.1163 -0.0254  0.1496
 1240ERGO    R116536  16.221   8.180   8.712  0.0070  0.0611  0.1210
 1240ERGO    R216537  15.990   8.068   8.609  0.1476 -0.1015 -0.0184
 1240ERGO    R316538  15.971   8.306   8.479 -0.0205 -0.0547  0.0858
 1240ERGO    R416539  15.746   8.148   8.377  0.1601 -0.2254 -0.0751
 1240ERGO    R516540  15.899   8.247   8.258  0.1199 -0.0252  0.0283
 1240ERGO    C116541  15.588   8.417   8.119  0.0097 -0.2537 -0.0103
 1240ERGO    C216542  15.285   8.552   8.051 -0.0470 -0.1683 -0.1104
 1241ERGO   ROH16543  16.753  16.497   9.185  0.2569 -0.1313 -0.0594
 1241ERGO    R116544  16.668  16.331   8.973  0.0083 -0.0077 -0.0607
 1241ERGO    R216545  16.454  16.395   8.810  0.0464  0.2686 -0.0090
 1241ERGO    R316546  16.636  16.358   8.611 -0.0378  0.0710 -0.0507
 1241ERGO    R416547  16.384  16.411   8.472 -0.0143  0.3383  0.0073
 1241ERGO    R516548  16.515  16.240   8.441 -0.2031  0.1966 -0.0213
 1241ERGO    C116549  16.514  16.386   8.089 -0.1285  0.1934 -0.0224
 1241ERGO    C216550  16.378  16.460   7.817 -0.2145  0.0935  0.0111
 1242ERGO   ROH16551   4.045  13.202   9.469  0.0177 -0.1749  0.0561
 1242ERGO    R116552   4.007  13.124   9.200  0.1572 -0.0270 -0.0083
 1242ERGO    R216553   3.756  13.089   9.088  0.2136 -0.2699 -0.0665
 1242ERGO    R316554   3.850  13.264   8.903  0.0161 -0.0082  0.0749
 1242ERGO    R416555   3.660  13.098   8.757  0.3429 -0.2330 -0.1037
 1242ERGO    R516556   3.867  13.137   8.702  0.3099  0.1314  0.0057
 1242ERGO    C116557   3.692  13.268   8.390  0.2327  0.0341  0.0074
 1242ERGO    C216558   3.575  13.366   8.033 -0.2517 -0.0816 -0.1267
 1243ERGO   ROH16559  15.639  14.049   9.535 -0.0804 -0.0957  0.1600
 1243ERGO    R116560  15.691  13.889   9.307  0.0703 -0.1994  0.2645
 1243ERGO    R216561  15.643  13.616   9.301 -0.2448 -0.1490  0.2501
 1243ERGO    R316562  15.497  13.679   9.081  0.1495 -0.0116  0.0185
 1243ERGO    R416563  15.674  13.464   8.993 -0.0712 -0.3397  0.3588
 1243ERGO    R516564  15.650  13.659   8.899  0.3670 -0.3425  0.2305
 1243ERGO    C116565  15.554  13.434   8.607  0.4001 -0.3220  0.2047
 1243ERGO    C216566  15.501  13.288   8.317 -0.2127  0.0120  0.0783
 1244ERGO   ROH16567  10.047   3.525   9.350 -0.3633 -0.0476 -0.1481
 1244ERGO    R116568  10.184   3.395   9.139 -0.2882 -0.0599 -0.0909
 1244ERGO    R216569  10.054   3.255   8.940 -0.2309  0.1043 -0.2428
 1244ERGO    R316570  10.195   3.419   8.776  0.0084  0.0704 -0.0771
 1244ERGO    R416571  10.160   3.171   8.623 -0.4106  0.2848 -0.3543
 1244ERGO    R516572  10.349   3.272   8.665 -0.2361 -0.0573 -0.2605
 1244ERGO    C116573  10.355   3.275   8.283 -0.2905  0.3582 -0.2636
 1244ERGO    C216574  10.563   3.244   7.934  0.0758 -0.0730  0.0709
 1245ERGO   ROH16575  17.125  14.478   9.205  0.1642  0.0005  0.0689
 1245ERGO    R116576  17.028  14.644   8.997  0.1524 -0.0026  0.0712
 1245ERGO    R216577  17.157  14.668   8.754  0.0880 -0.0807  0.0263
 1245ERGO    R316578  16.913  14.599   8.655  0.0366 -0.0238  0.1132
 1245ERGO    R416579  17.064  14.693   8.422  0.0207 -0.1999  0.0359
 1245ERGO    R516580  16.869  14.764   8.487  0.0673 -0.0865  0.0459
 1245ERGO    C116581  16.782  14.643   8.135 -0.0668 -0.2159  0.1230
 1245ERGO    C216582  16.701  14.697   7.870 -0.0784 -0.2389  0.2045
 1246ERGO   ROH16583  16.535   2.663   9.219 -0.0123  0.1751 -0.0041
 1246ERGO    R116584  16.623   2.660   8.950 -0.0443  0.1927 -0.0148
 1246ERGO    R216585  16.693   2.427   8.819 -0.0284  0.2052 -0.0277
 1246ERGO    R316586  16.511   2.515   8.636 -0.0620  0.1842 -0.0046
 1246ERGO    R416587  16.699   2.349   8.482 -0.0044  0.2868 -0.0466
 1246ERGO    R516588  16.641   2.555   8.439 -0.0784  0.2772  0.0030
 1246ERGO    C116589  16.533   2.385   8.115 -0.0220  0.3146 -0.0359
 1246ERGO    C216590  16.267   2.259   7.863  0.2390  0.3528  0.2212
 1247ERGO   ROH16591   4.890  18.595   9.778 -0.0118  0.2327  0.0518
 1247ERGO    R116592   4.789  18.555   9.516  0.0402  0.1773  0.0394
 1247ERGO    R216593   4.526  18.608   9.448  0.0555  0.1821 -0.0301
 1247ERGO    R316594   4.641  18.762   9.256  0.1117  0.1275 -0.0399
 1247ERGO    R416595   4.382  18.685   9.144 -0.0071  0.4010  0.0530
 1247ERGO    R516596   4.577  18.658   9.050 -0.0753  0.2454 -0.0399
 1247ERGO    C116597   4.406  18.874   8.786  0.0091  0.4772  0.0923
 1247ERGO    C216598   4.365  18.924   8.412  0.0297 -0.0515 -0.1505
 1248ERGO   ROH16599   4.310   1.302   6.360  0.0226 -0.1196 -0.0427
 1248ERGO    R116600   4.470   1.364   6.586 -0.0923  0.0073  0.0064
 1248ERGO    R216601   4.383   1.533   6.787 -0.2825 -0.0461 -0.0197
 1248ERGO    R316602   4.446   1.322   6.946 -0.1774 -0.0003 -0.0019
 1248ERGO    R416603   4.482   1.558   7.117 -0.0663  0.0324 -0.0896
 1248ERGO    R516604   4.629   1.401   7.080 -0.0943  0.0286 -0.1409
 1248ERGO    C116605   4.598   1.375   7.459  0.1584  0.1210 -0.1136
 1248ERGO    C216606   4.652   1.598   7.740  0.0563  0.0535 -0.2110
 1249ERGO   ROH16607  13.999  11.784   9.214  0.2287  0.0411  0.0670
 1249ERGO    R116608  13.935  11.620   8.992  0.1029  0.0486  0.0979
 1249ERGO    R216609  13.687  11.625   8.870  0.0742  0.1389  0.1652
 1249ERGO    R316610  13.835  11.671   8.646  0.0308  0.0584  0.1193
 1249ERGO    R416611  13.561  11.631   8.548  0.0339 -0.1440  0.1727
 1249ERGO    R516612  13.739  11.525   8.482  0.0823 -0.1047  0.2280
 1249ERGO    C116613  13.625  11.678   8.151 -0.0303 -0.3844  0.1340
 1249ERGO    C216614  13.545  11.714   7.800 -0.1253  0.4987 -0.2321
 1250ERGO   ROH16615   4.662  17.214   9.139  0.2409 -0.1532  0.0541
 1250ERGO    R116616   4.719  17.220   8.862  0.0505 -0.1462  0.0129
 1250ERGO    R216617   4.533  17.151   8.670 -0.1128 -0.0546  0.1314
 1250ERGO    R316618   4.594  17.396   8.570 -0.0875 -0.0661  0.1206
 1250ERGO    R416619   4.503  17.241   8.338  0.0404 -0.1057  0.1036
 1250ERGO    R516620   4.691  17.350   8.356  0.0189 -0.0873  0.1759
 1250ERGO    C116621   4.543  17.524   8.050  0.1534 -0.1460  0.0773
 1250ERGO    C216622   4.316  17.674   7.847 -0.0387  0.2594  0.0895
 1251ERGO   ROH16623   8.608   4.890   6.014  0.0085 -0.0044 -0.0201
 1251ERGO    R116624   8.543   4.951   6.283  0.1209 -0.0134  0.0100
 1251ERGO    R216625   8.605   5.194   6.399 -0.0151  0.0635 -0.0718
 1251ERGO    R316626   8.339   5.198   6.455  0.0126 -0.1570  0.0892
 1251ERGO    R416627   8.470   5.254   6.712  0.1177  0.2222 -0.0435
 1251ERGO    R516628   8.322   5.099   6.672  0.2501  0.0313  0.1975
 1251ERGO    C116629   8.141   5.293   6.946  0.2211  0.1077  0.1242
 1251ERGO    C216630   8.006   5.357   7.335  0.0904  0.0296  0.0427
 1252ERGO   ROH16631   8.652   1.329   5.698 -0.2618 -0.1903  0.0082
 1252ERGO    R116632   8.644   1.333   5.981 -0.2993 -0.1116  0.0056
 1252ERGO    R216633   8.458   1.189   6.127 -0.0878 -0.3642  0.0258
 1252ERGO    R316634   8.679   1.090   6.249  0.0611  0.0257  0.0909
 1252ERGO    R416635   8.472   1.082   6.455 -0.0005 -0.3256  0.0354
 1252ERGO    R516636   8.668   1.175   6.472 -0.1558  0.0238  0.0875
 1252ERGO    C116637   8.688   0.927   6.761  0.1900  0.0628  0.1021
 1252ERGO    C216638   8.544   0.664   6.964  0.2238 -0.3271  0.0694
 1253ERGO   ROH16639   3.461  15.562   9.472 -0.1478  0.2388  0.0760
 1253ERGO    R116640   3.543  15.638   9.212 -0.0403  0.0598  0.0563
 1253ERGO    R216641   3.680  15.466   9.043 -0.2717 -0.1744  0.1011
 1253ERGO    R316642   3.478  15.527   8.871 -0.1904  0.0592  0.0846
 1253ERGO    R416643   3.690  15.418   8.701 -0.2550 -0.0767  0.0876
 1253ERGO    R516644   3.589  15.609   8.676 -0.0821  0.0232  0.1297
 1253ERGO    C116645   3.507  15.447   8.341 -0.1691  0.1993  0.0642
 1253ERGO    C216646   3.665  15.349   8.126 -0.0597 -0.0816 -0.0518
 1254ERGO   ROH16647  10.793   5.201   5.946 -0.1173 -0.1122  0.1088
 1254ERGO    R116648  10.872   5.208   6.218 -0.0857 -0.1863  0.1007
 1254ERGO    R216649  10.978   5.435   6.336  0.1727 -0.3002  0.0781
 1254ERGO    R316650  10.777   5.395   6.515  0.1468 -0.0681  0.1047
 1254ERGO    R416651  10.990   5.526   6.669  0.2202 -0.0491  0.0109
 1254ERGO    R516652  10.889   5.339   6.719  0.1240  0.0290  0.1513
 1254ERGO    C116653  10.808   5.541   7.031  0.2234  0.3150 -0.0032
 1254ERGO    C216654  10.850   5.767   7.247 -0.0935 -0.0140  0.1663
 1255ERGO   ROH16655  17.347   3.461   9.369 -0.0321  0.2200  0.1746
 1255ERGO    R116656  17.219   3.443   9.117 -0.0260 -0.0061  0.1853
 1255ERGO    R216657  17.217   3.651   8.936 -0.2827 -0.0581  0.1245
 1255ERGO    R316658  17.318   3.463   8.768 -0.0671  0.0101  0.1739
 1255ERGO    R416659  17.230   3.681   8.592 -0.3712 -0.1491  0.1135
 1255ERGO    R516660  17.173   3.471   8.577 -0.1097 -0.2321  0.1907
 1255ERGO    C116661  17.331   3.521   8.233 -0.2204 -0.1380  0.1535
 1255ERGO    C216662  17.248   3.650   7.921 -0.2478 -0.0880  0.1406
 1256ERGO   ROH16663   6.690  12.878   9.679 -0.1261  0.0319  0.0541
 1256ERGO    R116664   6.767  12.978   9.426 -0.0127  0.0628  0.1009
 1256ERGO    R216665   6.715  13.238   9.347 -0.0287  0.0501  0.0894
 1256ERGO    R316666   6.983  13.243   9.301 -0.0043  0.1187  0.2268
 1256ERGO    R416667   6.871  13.449   9.122 -0.0333 -0.1998 -0.1536
 1256ERGO    R516668   7.000  13.282   9.064  0.0919 -0.2293  0.1658
 1256ERGO    C116669   7.213  13.576   8.947 -0.0131 -0.2810 -0.1660
 1256ERGO    C216670   7.187  13.858   8.849  0.5094 -0.3074  0.0051
 1257ERGO   ROH16671   0.940   4.931   6.378  0.1299  0.0296  0.0503
 1257ERGO    R116672   0.733   4.913   6.571  0.0795  0.0895  0.0025
 1257ERGO    R216673   0.761   4.769   6.806  0.0029  0.1261  0.0346
 1257ERGO    R316674   0.689   5.004   6.921  0.0047  0.1555 -0.0241
 1257ERGO    R416675   0.651   4.805   7.131  0.0088  0.2100  0.0275
 1257ERGO    R516676   0.503   4.949   7.061  0.0076  0.1915 -0.0063
 1257ERGO    C116677   0.520   5.047   7.429  0.0139  0.2864 -0.0316
 1257ERGO    C216678   0.354   5.223   7.726  0.1295 -0.5037 -0.3413
 1258ERGO   ROH16679  12.941  13.668   9.410 -0.0920  0.1371 -0.0897
 1258ERGO    R116680  12.953  13.851   9.195  0.2955  0.3041  0.0635
 1258ERGO    R216681  13.191  13.935   9.083  0.4878 -0.3969 -0.1060
 1258ERGO    R316682  13.075  13.850   8.852 -0.0635  0.1786 -0.0681
 1258ERGO    R416683  13.288  14.032   8.766  0.5385 -0.5136 -0.1267
 1258ERGO    R516684  13.078  14.043   8.710  0.4949  0.2942  0.0772
 1258ERGO    C116685  13.236  14.009   8.364  0.0506 -0.0413 -0.1033
 1258ERGO    C216686  13.220  14.207   8.091 -0.0548 -0.1420 -0.1261
 1259ERGO   ROH16687   8.863   8.168   9.083  0.1741  0.0191  0.0038
 1259ERGO    R116688   8.761   8.135   8.821  0.0459 -0.0243  0.0583
 1259ERGO    R216689   8.743   8.343   8.640 -0.0172 -0.0600  0.0228
 1259ERGO    R316690   8.886   8.175   8.481 -0.1108 -0.1081 -0.0103
 1259ERGO    R416691   8.779   8.378   8.299  0.2037  0.1338  0.0639
 1259ERGO    R516692   8.758   8.162   8.279 -0.0190  0.1654 -0.0908
 1259ERGO    C116693   8.934   8.241   7.950  0.2444  0.2014  0.0567
 1259ERGO    C216694   9.002   8.180   7.689  0.1629 -0.1310  0.1830
 1260ERGO   ROH16695  17.872   2.764   9.313 -0.1696 -0.0962 -0.0154
 1260ERGO    R116696  18.002   2.821   9.067 -0.0891 -0.0890  0.0292
 1260ERGO    R216697  18.157   2.635   8.935 -0.2306 -0.1561 -0.0342
 1260ERGO    R316698  17.991   2.691   8.727 -0.1511  0.0817 -0.0365
 1260ERGO    R416699  18.204   2.526   8.610 -0.3281 -0.1602 -0.0479
 1260ERGO    R516700  18.139   2.722   8.541 -0.0904 -0.0610 -0.0190
 1260ERGO    C116701  18.076   2.516   8.226 -0.3103  0.0608 -0.0580
 1260ERGO    C216702  17.963   2.277   7.989  0.1281  0.3422  0.0924
 1261ERGO   ROH16703   9.285  17.915   6.074  0.1922  0.0646 -0.1309
 1261ERGO    R116704   9.222  18.021   6.329  0.1605  0.1434 -0.1708
 1261ERGO    R216705   9.091  17.874   6.524  0.0971  0.2151 -0.1538
 1261ERGO    R316706   9.305  17.944   6.675  0.0829  0.2199 -0.1364
 1261ERGO    R416707   9.096  17.882   6.869  0.1766 -0.0924 -0.1451
 1261ERGO    R516708   9.212  18.065   6.859  0.0498 -0.0090 -0.0042
 1261ERGO    C116709   9.300  17.953   7.212  0.2095 -0.2668 -0.1236
 1261ERGO    C216710   9.487  17.767   7.476  0.0906  0.1505  0.1214
 1262ERGO   ROH16711   9.114  10.873   5.880 -0.0910 -0.1818  0.0558
 1262ERGO    R116712   9.143  10.772   6.143  0.0032 -0.0730  0.0882
 1262ERGO    R216713   9.251  10.522   6.195 -0.1209 -0.1171  0.1432
 1262ERGO    R316714   9.419  10.664   6.355  0.0652 -0.1414 -0.0268
 1262ERGO    R416715   9.387  10.408   6.491 -0.0953 -0.0140  0.1716
 1262ERGO    R516716   9.354  10.605   6.577  0.1065  0.0755  0.0434
 1262ERGO    C116717   9.623  10.475   6.814  0.0943  0.0232  0.0285
 1262ERGO    C216718   9.758  10.607   7.033  0.3192 -0.1540 -0.1332
 1263ERGO   ROH16719   0.216   1.454   6.349 -0.1175  0.0645  0.1187
 1263ERGO    R116720   0.104   1.411   6.605 -0.1181  0.0395  0.1140
 1263ERGO    R216721   0.257   1.339   6.824 -0.1258 -0.0315  0.0952
 1263ERGO    R316722   0.140   1.556   6.937 -0.0788 -0.0289  0.1400
 1263ERGO    R416723   0.292   1.431   7.155  0.1132  0.0459  0.0509
 1263ERGO    R516724   0.080   1.483   7.157  0.1042  0.0069  0.2036
 1263ERGO    C116725   0.202   1.689   7.454  0.2965  0.0935  0.0672
 1263ERGO    C216726   0.290   1.724   7.792 -0.1224  0.0344 -0.1855
 1264ERGO   ROH16727  16.795   4.481   5.648 -0.0066  0.1430  0.0149
 1264ERGO    R116728  16.701   4.344   5.877 -0.0425 -0.0211 -0.0953
 1264ERGO    R216729  16.696   4.068   5.894  0.1566 -0.0364 -0.2089
 1264ERGO    R316730  16.838   4.112   6.122 -0.0120 -0.0143 -0.1072
 1264ERGO    R416731  16.721   3.846   6.158  0.0336 -0.0437 -0.2038
 1264ERGO    R516732  16.705   4.015   6.295 -0.1043 -0.0584 -0.2049
 1264ERGO    C116733  16.869   3.758   6.525 -0.1961 -0.0273 -0.1055
 1264ERGO    C216734  16.993   3.537   6.774 -0.0732 -0.0325 -0.1730
 1265ERGO   ROH16735  17.419  18.179   9.125 -0.3333  0.1159 -0.1240
 1265ERGO    R116736  17.561  18.114   8.889 -0.1824  0.1057 -0.0314
 1265ERGO    R216737  17.438  18.007   8.666 -0.0270  0.0242 -0.0771
 1265ERGO    R316738  17.555  18.218   8.540 -0.0155  0.0291 -0.0587
 1265ERGO    R416739  17.377  18.100   8.339 -0.0997  0.1102 -0.0393
 1265ERGO    R516740  17.590  18.141   8.316 -0.0939  0.0704 -0.0875
 1265ERGO    C116741  17.451  18.352   8.031 -0.1312  0.1649 -0.0001
 1265ERGO    C216742  17.277  18.422   7.721 -0.2398  0.1001  0.3941
 1266ERGO   ROH16743  13.650  15.983   9.568 -0.1020  0.0007 -0.0583
 1266ERGO    R116744  13.553  15.960   9.304  0.0243  0.0529 -0.1106
 1266ERGO    R216745  13.669  16.091   9.090  0.1008  0.1321 -0.0245
 1266ERGO    R316746  13.680  15.841   8.984  0.1956  0.1607 -0.0825
 1266ERGO    R416747  13.571  16.008   8.769 -0.0737  0.1232  0.0299
 1266ERGO    R516748  13.483  15.825   8.848  0.1101  0.0493  0.0568
 1266ERGO    C116749  13.525  15.725   8.483 -0.0863  0.1450  0.0070
 1266ERGO    C216750  13.525  15.796   8.051  0.1853  0.1819  0.0656
 1267ERGO   ROH16751   0.048  15.705   5.884 -0.1802  0.0364  0.0908
 1267ERGO    R116752   0.014  15.559   6.123 -0.2224  0.1145  0.1324
 1267ERGO    R216753   0.222  15.510   6.298 -0.1841 -0.0971  0.0265
 1267ERGO    R316754   0.053  15.622   6.480  0.0416  0.1285  0.1038
 1267ERGO    R416755   0.263  15.495   6.641 -0.1326 -0.3053  0.0131
 1267ERGO    R516756   0.047  15.465   6.660 -0.1910  0.0585  0.0425
 1267ERGO    C116757   0.128  15.592   7.011  0.1092 -0.2148  0.0779
 1267ERGO    C216758   0.279  15.539   7.348  0.1638 -0.0161  0.1406
 1268ERGO   ROH16759   9.523  14.171   9.558 -0.1153 -0.0659 -0.2227
 1268ERGO    R116760   9.500  14.187   9.277 -0.0651  0.1830 -0.2148
 1268ERGO    R216761   9.603  14.398   9.131  0.2394  0.1602 -0.0403
 1268ERGO    R316762   9.727  14.199   8.992 -0.0148  0.0914 -0.1792
 1268ERGO    R416763   9.635  14.387   8.787 -0.0394  0.1995 -0.0696
 1268ERGO    R516764   9.594  14.172   8.795 -0.1925  0.2260 -0.0807
 1268ERGO    C116765   9.769  14.194   8.456 -0.4404  0.1576 -0.2170
 1268ERGO    C216766   9.944  14.421   8.131 -0.0389  0.3752 -0.3130
 1269ERGO   ROH16767   2.815   4.895   6.341 -0.1889 -0.3790  0.1908
 1269ERGO    R116768   2.935   4.884   6.598 -0.0228 -0.1023  0.1282
 1269ERGO    R216769   3.117   4.689   6.668 -0.0923 -0.1106  0.2636
 1269ERGO    R316770   3.272   4.902   6.733  0.0817 -0.1107 -0.1201
 1269ERGO    R416771   3.366   4.686   6.908 -0.0681  0.0935  0.2434
 1269ERGO    R516772   3.301   4.885   6.970  0.0899  0.2638 -0.0822
 1269ERGO    C116773   3.657   4.885   7.108  0.1093  0.2122 -0.1285
 1269ERGO    C216774   3.945   4.844   7.399 -0.1129  0.2753 -0.0104
 1270ERGO   ROH16775  13.316  14.784   9.568  0.5237  0.0916  0.1190
 1270ERGO    R116776  13.484  14.906   9.376  0.0759  0.1981 -0.2195
 1270ERGO    R216777  13.702  14.777   9.267  0.3411  0.5651 -0.1177
 1270ERGO    R316778  13.582  14.842   9.031  0.0031 -0.1709 -0.1782
 1270ERGO    R416779  13.857  14.767   8.957  0.2400  0.5577 -0.1704
 1270ERGO    R516780  13.754  14.952   8.906 -0.3801  0.1865 -0.4267
 1270ERGO    C116781  13.834  14.821   8.557 -0.1360 -0.1377 -0.2580
 1270ERGO    C216782  14.039  14.605   8.368  0.4644 -0.1749 -0.3333
 1271ERGO   ROH16783   2.522   4.737   9.620 -0.1406 -0.0219 -0.2966
 1271ERGO    R116784   2.572   4.612   9.370  0.3575 -0.0197 -0.2087
 1271ERGO    R216785   2.408   4.649   9.149  0.2335 -0.7509 -0.2669
 1271ERGO    R316786   2.642   4.721   9.030  0.0233  0.0309 -0.2645
 1271ERGO    R416787   2.458   4.678   8.808  0.0914 -0.3031 -0.2566
 1271ERGO    R516788   2.653   4.587   8.833  0.3723  0.2279 -0.3853
 1271ERGO    C116789   2.706   4.762   8.499 -0.1886  0.6916 -0.2483
 1271ERGO    C216790   2.774   4.791   8.179  0.1124 -0.1891 -0.1897
 1272ERGO   ROH16791   6.139  13.158   6.417 -0.2433  0.0154 -0.0744
 1272ERGO    R116792   6.202  13.093   6.685 -0.0748  0.1949 -0.0673
 1272ERGO    R216793   6.140  13.259   6.898 -0.2257  0.1965 -0.1076
 1272ERGO    R316794   6.018  13.036   6.994  0.0904  0.0697  0.0086
 1272ERGO    R416795   6.007  13.227   7.215 -0.1536  0.1606 -0.0818
 1272ERGO    R516796   6.086  13.024   7.223  0.1280  0.2714  0.0075
 1272ERGO    C116797   5.816  12.999   7.490  0.1852  0.0205  0.0423
 1272ERGO    C216798   5.653  12.818   7.756  0.0805  0.1088  0.2436
 1273ERGO   ROH16799  14.534   9.478   6.020 -0.4897 -0.1888 -0.1772
 1273ERGO    R116800  14.436   9.325   6.238 -0.4764 -0.1290 -0.1307
 1273ERGO    R216801  14.518   9.368   6.498 -0.1556 -0.3236 -0.2013
 1273ERGO    R316802  14.251   9.391   6.544 -0.0856  0.0174  0.0839
 1273ERGO    R416803  14.359   9.279   6.792  0.0308 -0.2904 -0.0881
 1273ERGO    R516804  14.196   9.197   6.673 -0.2123  0.0032  0.0196
 1273ERGO    C116805  14.017   9.248   7.006  0.2051  0.0490  0.2455
 1273ERGO    C216806  13.899   9.356   7.330  0.0197  0.1030 -0.0045
 1274ERGO   ROH16807  14.297  15.431   5.939  0.1404 -0.1414 -0.0016
 1274ERGO    R116808  14.263  15.381   6.215  0.3725 -0.2645  0.0089
 1274ERGO    R216809  14.473  15.314   6.382  0.6187  0.2017 -0.0866
 1274ERGO    R316810  14.384  15.526   6.527  0.1741 -0.0135 -0.0288
 1274ERGO    R416811  14.551  15.374   6.713  0.2460  0.1382  0.0173
 1274ERGO    R516812  14.345  15.437   6.745  0.1234 -0.1946 -0.1138
 1274ERGO    C116813  14.513  15.609   7.041 -0.3884 -0.1008  0.1320
 1274ERGO    C216814  14.675  15.774   7.356  0.0699 -0.1036  0.2301
 1275ERGO   ROH16815   2.672   3.297   9.708  0.2997 -0.1216  0.0663
 1275ERGO    R116816   2.874   3.421   9.553  0.3822 -0.1406  0.1554
 1275ERGO    R216817   3.127   3.313   9.524  0.2285 -0.4476 -0.1635
 1275ERGO    R316818   3.070   3.337   9.259  0.0950  0.0622 -0.0984
 1275ERGO    R416819   3.363   3.334   9.272  0.0932 -0.1963 -0.2715
 1275ERGO    R516820   3.239   3.484   9.175  0.1584  0.0746  0.0604
 1275ERGO    C116821   3.447   3.369   8.876 -0.1108  0.4287 -0.2732
 1275ERGO    C216822   3.593   3.213   8.476  0.0350  0.1081 -0.1422
 1276ERGO   ROH16823   9.215   2.184   5.956 -0.2412 -0.2105  0.0300
 1276ERGO    R116824   9.049   2.060   6.149 -0.2331 -0.1529  0.0743
 1276ERGO    R216825   9.150   1.909   6.357 -0.2242 -0.0809  0.1223
 1276ERGO    R316826   9.003   2.079   6.510 -0.2272 -0.0360  0.0696
 1276ERGO    R416827   9.092   1.870   6.695 -0.3173 -0.0410  0.1112
 1276ERGO    R516828   8.887   1.935   6.663 -0.2964  0.0003  0.0529
 1276ERGO    C116829   8.920   2.007   7.036 -0.3745  0.0244  0.0552
 1276ERGO    C216830   9.061   2.145   7.359 -0.2218 -0.2312 -0.2690
 1277ERGO   ROH16831  17.552  16.085   5.628 -0.1315 -0.2036 -0.1614
 1277ERGO    R116832  17.707  16.069   5.864 -0.1939  0.0296 -0.1014
 1277ERGO    R216833  17.822  15.833   5.949 -0.2729  0.0959  0.2044
 1277ERGO    R316834  18.050  15.982   5.949 -0.2389  0.0381  0.0839
 1277ERGO    R416835  18.050  15.846   6.209 -0.1375  0.0623  0.0883
 1277ERGO    R516836  18.070  16.060   6.175 -0.1032  0.0485  0.0652
 1277ERGO    C116837  18.396  15.993   6.360 -0.0266 -0.0116 -0.0924
 1277ERGO    C216838  18.450  16.005   6.717  0.3644 -0.0876  0.1241
 1278ERGO   ROH16839   5.612  18.238   5.951  0.0681  0.0554  0.0290
 1278ERGO    R116840   5.565  18.176   6.223 -0.1236  0.0618 -0.0013
 1278ERGO    R216841   5.771  18.142   6.405 -0.2362 -0.2806  0.0660
 1278ERGO    R316842   5.634  18.330   6.545 -0.0124 -0.1078  0.0586
 1278ERGO    R416843   5.782  18.180   6.748 -0.1028 -0.2099  0.0548
 1278ERGO    R516844   5.567  18.219   6.746 -0.0693  0.0033  0.1043
 1278ERGO    C116845   5.660  18.379   7.080  0.1851 -0.0067  0.0413
 1278ERGO    C216846   5.528  18.495   7.415 -0.0215 -0.1743 -0.0181
 1279ERGO   ROH16847   3.413  12.928   5.653  0.0454  0.0106  0.0063
 1279ERGO    R116848   3.409  13.110   5.870 -0.2522  0.0998 -0.0688
 1279ERGO    R216849   3.186  13.150   6.026 -0.2681 -0.3562  0.0392
 1279ERGO    R316850   3.357  13.091   6.229 -0.0051  0.1209 -0.0296
 1279ERGO    R416851   3.107  13.169   6.362 -0.1068 -0.3541  0.0776
 1279ERGO    R516852   3.305  13.253   6.399 -0.2564  0.1041 -0.0854
 1279ERGO    C116853   3.222  13.126   6.749  0.2339  0.0952  0.0354
 1279ERGO    C216854   2.960  13.144   7.049  0.1430  0.1599  0.2296
 1280ERGO   ROH16855   9.710   6.374   9.414 -0.0057  0.0659  0.1352
 1280ERGO    R116856   9.773   6.458   9.151 -0.0336  0.0130  0.1125
 1280ERGO    R216857   9.807   6.280   8.942 -0.1191 -0.0224  0.1343
 1280ERGO    R316858   9.619   6.435   8.822 -0.0998  0.0090  0.1420
 1280ERGO    R416859   9.762   6.306   8.601 -0.0449  0.0714  0.1305
 1280ERGO    R516860   9.728   6.520   8.626 -0.0560  0.0683  0.1872
 1280ERGO    C116861   9.558   6.466   8.289  0.0165  0.1555  0.1354
 1280ERGO    C216862   9.351   6.366   7.983 -0.2534  0.1232 -0.0592
 1281ERGO   ROH16863   3.999   4.492   8.681  0.1417 -0.0287  0.2356
 1281ERGO    R116864   4.104   4.726   8.560  0.2692 -0.0316  0.3377
 1281ERGO    R216865   4.368   4.804   8.590  0.4045 -0.3655  0.1089
 1281ERGO    R316866   4.365   4.804   8.319  0.0808 -0.1095  0.1060
 1281ERGO    R416867   4.611   4.947   8.390  0.2536 -0.3325 -0.0529
 1281ERGO    R516868   4.453   5.018   8.258  0.1397 -0.1097  0.2006
 1281ERGO    C116869   4.750   5.030   8.019 -0.1381 -0.0730 -0.1497
 1281ERGO    C216870   4.928   5.086   7.726  0.2804  0.1958 -0.1810
 1282ERGO   ROH16871  13.722   7.308   8.879  0.2288  0.1473  0.0807
 1282ERGO    R116872  13.618   7.416   8.639  0.0329 -0.0163  0.0903
 1282ERGO    R216873  13.745   7.386   8.396  0.0238  0.1288  0.0681
 1282ERGO    R316874  13.504   7.285   8.318  0.1389 -0.2043  0.1272
 1282ERGO    R416875  13.640   7.361   8.068 -0.1267  0.2460  0.1062
 1282ERGO    R516876  13.440   7.424   8.133 -0.2007 -0.1396  0.2840
 1282ERGO    C116877  13.353   7.252   7.804 -0.1065  0.0016  0.1840
 1282ERGO    C216878  13.512   7.081   7.534 -0.3248 -0.0151  0.2840
 1283ERGO   ROH16879   3.804   7.987   6.135 -0.0204 -0.0294 -0.1009
 1283ERGO    R116880   3.615   8.098   6.314  0.0172 -0.0378 -0.0562
 1283ERGO    R216881   3.679   8.171   6.572  0.0755 -0.0321 -0.0740
 1283ERGO    R316882   3.574   8.410   6.497  0.0436 -0.0380 -0.0489
 1283ERGO    R416883   3.577   8.418   6.791  0.0023 -0.0888 -0.0437
 1283ERGO    R516884   3.405   8.454   6.661  0.0123 -0.0973 -0.0627
 1283ERGO    C116885   3.419   8.786   6.848 -0.0702 -0.1273 -0.0023
 1283ERGO    C216886   3.463   8.957   7.166 -0.2644 -0.1226  0.0984
 1284ERGO   ROH16887   0.225  13.962   5.614  0.1277 -0.0116 -0.0170
 1284ERGO    R116888   0.182  13.856   5.873 -0.0650 -0.1064 -0.0847
 1284ERGO    R216889   0.224  14.003   6.104  0.2218 -0.3311  0.0193
 1284ERGO    R316890  -0.032  13.932   6.157  0.0802  0.1148 -0.0338
 1284ERGO    R416891   0.082  13.992   6.419  0.1859 -0.2580  0.0043
 1284ERGO    R516892  -0.020  13.809   6.362 -0.1572 -0.0355 -0.1096
 1284ERGO    C116893  -0.242  13.919   6.652  0.0320  0.2033 -0.0542
 1284ERGO    C216894  -0.576  13.839   6.917  0.0284  0.2817 -0.0418
 1285ERGO   ROH16895  15.457   3.070   5.786 -0.0021  0.1045 -0.2216
 1285ERGO    R116896  15.575   3.069   6.043 -0.1809  0.0960 -0.1383
 1285ERGO    R216897  15.784   3.237   6.112 -0.1348 -0.0053 -0.0326
 1285ERGO    R316898  15.618   3.307   6.316 -0.2376  0.1339 -0.1617
 1285ERGO    R416899  15.885   3.308   6.435 -0.2923  0.2144 -0.0289
 1285ERGO    R516900  15.711   3.199   6.508 -0.3303  0.2628 -0.0408
 1285ERGO    C116901  15.788   3.414   6.814 -0.4805  0.4729 -0.1479
 1285ERGO    C216902  15.790   3.666   6.967 -0.2015 -0.1070 -0.2943
 1286W        W16903  10.490   3.140   3.513  0.2974  0.2230  0.0332
 1287W        W16904  14.228  17.387   2.724 -0.2008  0.1065 -0.0506
 1288W        W16905   5.308  11.167  14.757  0.0235 -0.0550  0.1463
 1289W        W16906   6.425  13.073  12.120 -0.2136  0.0862 -0.1466
 1290W        W16907  11.272   9.664  12.566 -0.1591  0.2629  0.0493
 1291W        W16908  10.355   6.810   3.736 -0.1234  0.2508 -0.1820
 1292W        W16909   7.251   8.757   3.596  0.1994  0.3435  0.2337
 1293W        W16910   7.425  13.877   1.206 -0.1274 -0.3170  0.3281
 1294W        W16911  18.986  14.850   2.784 -0.1237 -0.1037  0.0033
 1295W        W16912   0.553  12.343  12.483  0.5844  0.0024 -0.3619
 1296W        W16913   4.179   5.074   0.364  0.2417 -0.0654  0.1764
 1297W        W16914  12.707   7.034   4.699  0.3500 -0.2882 -0.0877
 1298W        W16915  12.828  14.082   5.527 -0.0942  0.0635 -0.0008
 1299W        W16916  14.093  16.768  10.806 -0.0059 -0.1040  0.0274
 1300W        W16917  12.174   9.132   2.680  0.3058  0.2104  0.1632
 1301W        W16918   7.005  13.829   3.783  0.2213 -0.1666  0.1499
 1302W        W16919   5.145  10.826  11.657  0.2165  0.1842 -0.1324
 1303W        W16920  14.215  11.585   0.534  0.2348 -0.1727  0.1796
 1304W        W16921   8.451   3.760   5.114  0.2896  0.0023 -0.3663
 1305W        W16922   1.670   8.031  14.602 -0.2857  0.0048 -0.0856
 1306W        W16923  15.860  18.238   2.520  0.1097  0.1530 -0.0578
 1307W        W16924  12.338   3.747   2.598  0.2384  0.2011 -0.0537
 1308W        W16925  15.739   5.887  14.367  0.0674 -0.2216  0.4035
 1309W        W16926   2.503  10.027   0.078  0.2496  0.1078  0.1111
 1310W        W16927  18.751   5.038  10.300 -0.1010 -0.0357  0.1613
 1311W        W16928  17.656   5.248  14.890  0.1051 -0.2353  0.2708
 1312W        W16929   6.884   4.516  12.094  0.1515 -0.0982 -0.4320
 1313W        W16930  14.472   5.496  14.321 -0.1829  0.1282  0.1493
 1314W        W16931  12.321   1.529  10.948 -0.0996 -0.4498  0.0092
 1315W        W16932  10.083   2.999   0.001 -0.1516 -0.0172 -0.1325
 1316W        W16933   6.148  13.446  13.347  0.2451  0.0450  0.2051
 1317W        W16934  10.797   4.872   1.803 -0.1550 -0.0348  0.1399
 1318W        W16935   7.749   7.075   1.641 -0.1479  0.2644 -0.3389
 1319W        W16936   1.669  18.318   2.659  0.0047  0.1598 -0.1804
 1320W        W16937  12.104   7.811   1.471 -0.1045  0.0947 -0.3172
 1321W        W16938  12.418  18.838   2.759  0.1376  0.3370  0.2933
 1322W        W16939  17.382   8.392   0.846  0.1832 -0.0793  0.0708
 1323W        W16940   1.132  17.662   1.101 -0.1648 -0.3983  0.3804
 1324W        W16941   3.511  13.085   0.010 -0.3499 -0.1730 -0.1012
 1325W        W16942   9.454   9.271   5.448  0.0684  0.1782 -0.1182
 1326W        W16943   9.244  16.884   1.970  0.0950  0.1801 -0.0528
 1327W        W16944   2.482   9.661   1.189 -0.3771 -0.1835  0.0861
 1328W        W16945  10.171  14.129  11.833  0.1227 -0.0374 -0.1743
 1329W        W16946  12.762   0.174   0.572 -0.0346 -0.0277  0.4174
 1330W        W16947  16.581   3.915  12.490  0.0939  0.0137 -0.3362
 1331W        W16948  12.697  14.695  11.947 -0.0466  0.0604  0.1939
 1332W        W16949   5.708  18.546  15.205  0.3514 -0.0520  0.1869
 1333W        W16950   5.896   6.026  10.651  0.3500  0.2343  0.2697
 1334W        W16951   3.960  16.286   2.617  0.0715  0.1612  0.0988
 1335W        W16952   7.748   4.851   4.842 -0.1862 -0.1906 -0.0783
 1336W        W16953  17.762   2.500   3.533 -0.0662  0.1362 -0.0123
 1337W        W16954   6.548  15.753   1.807 -0.4254 -0.0662 -0.0366
 1338W        W16955  15.467  18.779  10.323  0.2704  0.1157  0.3036
 1339W        W16956  18.410   7.947   3.625 -0.0249 -0.1632  0.0825
 1340W        W16957   0.592  18.858  10.536  0.1088  0.0948 -0.1420
 1341W        W16958  16.627  11.196   4.235 -0.1662 -0.1503 -0.4279
 1342W        W16959  17.176   4.465   3.838  0.3409  0.0712 -0.4150
 1343W        W16960  12.979   5.106   2.680 -0.2046  0.0916  0.2062
 1344W        W16961   5.888  13.393   1.793 -0.2790  0.1226  0.0834
 1345W        W16962  11.265   9.734   3.221  0.0405 -0.0103  0.1211
 1346W        W16963   9.321  14.609  11.941 -0.2524  0.3989 -0.1956
 1347W        W16964   1.320   6.125  14.808  0.0085  0.0525 -0.1909
 1348W        W16965  18.524  11.697  12.648 -0.4412  0.2635 -0.3187
 1349W        W16966  10.464   9.307   3.514 -0.1338  0.1444  0.0906
 1350W        W16967   9.139  15.298   1.780  0.0777  0.0375 -0.0948
 1351W        W16968  14.352  12.353   4.570  0.0381  0.0169  0.3571
 1352W        W16969   7.460   3.494  14.406 -0.0375 -0.2369  0.1550
 1353W        W16970  10.397   9.132  11.861  0.2129  0.1273 -0.1129
 1354W        W16971   1.827   5.089   0.535 -0.3182 -0.0556  0.2373
 1355W        W16972   1.432   1.912  14.146  0.3105  0.0647  0.5241
 1356W        W16973   2.114  10.183  14.244  0.0361 -0.1392 -0.0445
 1357W        W16974  17.650   9.061  11.532 -0.4211  0.4301 -0.2069
 1358W        W16975  10.946   0.010   2.664  0.1435 -0.1555 -0.2304
 1359W        W16976  18.720  12.500   1.217  0.0111 -0.0977 -0.2669
 1360W        W16977   6.404  15.688   0.258 -0.2459  0.0257 -0.0100
 1361W        W16978   4.246  11.184  11.029 -0.2248 -0.2486  0.2469
 1362W        W16979  18.876   5.468  10.493  0.1703  0.0935 -0.0501
 1363W        W16980   9.204  12.483   1.206 -0.0166  0.2140  0.0395
 1364W        W16981  14.162  13.643  13.318 -0.1437  0.2194  0.0953
 1365W        W16982  18.407  14.924   2.382 -0.1235  0.2186 -0.5636
 1366W        W16983  15.860   5.651   2.500 -0.2122  0.1268  0.1654
 1367W        W16984  11.579   0.578  10.932  0.0582 -0.0363 -0.0334
 1368W        W16985   1.588  14.144   1.900 -0.3434  0.2176  0.0992
 1369W        W16986  11.374   6.751   1.722 -0.1592 -0.0423  0.0689
 1370W        W16987   3.035  11.075  14.939 -0.0087  0.3745 -0.0937
 1371W        W16988   0.564   7.041  14.484 -0.0749  0.1073 -0.1707
 1372W        W16989   9.310  14.543   2.610  0.0914 -0.1426  0.1620
 1373W        W16990   4.396   8.787   4.542 -0.2001  0.0060 -0.2712
 1374W        W16991   3.482  16.315  14.404 -0.1308  0.1348  0.1856
 1375W        W16992  18.151   6.813  13.696  0.0554 -0.0542 -0.0474
 1376W        W16993  17.158  13.317  14.845  0.0768 -0.2797  0.0373
 1377W        W16994  15.754  15.957  13.413  0.0791  0.0911  0.1081
 1378W        W16995  17.879  18.118   1.240 -0.1051  0.1915 -0.0166
 1379W        W16996  12.671   1.969   1.592  0.3199 -0.1312 -0.3045
 1380W        W16997  19.075   9.260   3.368 -0.2080 -0.2097 -0.3579
 1381W        W16998   6.474   0.461   3.768 -0.0003 -0.1231 -0.0083
 1382W        W16999   5.037   0.168  12.701 -0.1491  0.0574 -0.0981
 1383W        W17000  12.665  10.994   9.816  0.0352  0.1912 -0.0503
 1384W        W17001   8.906   9.588  13.586  0.0056 -0.0389  0.0233
 1385W        W17002  11.494  14.591   5.642 -0.3052  0.3566 -0.1719
 1386W        W17003  13.657   9.068  10.914 -0.0099  0.0490  0.1116
 1387W        W17004  11.298   3.441  12.847  0.0330 -0.1078 -0.1256
 1388W        W17005   1.106  11.211  11.767 -0.1860 -0.1338  0.1075
 1389W        W17006   2.246   7.029  14.153 -0.2720  0.2122 -0.1156
 1390W        W17007   0.578   8.652   0.775  0.1316  0.0597 -0.2645
 1391W        W17008  13.706  18.989   2.965  0.0438 -0.0455  0.0595
 1392W        W17009   5.248   0.242   3.272 -0.0440 -0.0758 -0.2560
 1393W        W17010   4.857  14.978   0.430  0.1932  0.4047  0.2138
 1394W        W17011   1.208  16.054   1.516  0.0293 -0.1886  0.2520
 1395W        W17012   6.254  10.165   3.577  0.3072 -0.0122  0.1023
 1396W        W17013  11.022  18.123   2.663 -0.0841 -0.0401 -0.0014
 1397W        W17014   0.634  18.119   4.508  0.1171  0.1497 -0.1225
 1398W        W17015   7.971  15.116  14.049 -0.0082 -0.0273  0.1123
 1399W        W17016  11.574  11.956  12.274 -0.1144  0.0701 -0.0143
 1400W        W17017   5.644  13.527  14.370 -0.3020 -0.4155 -0.1443
 1401W        W17018  14.171   6.491   3.617  0.0497  0.1112 -0.0975
 1402W        W17019  12.742   9.019   3.915  0.0842 -0.0772  0.0544
 1403W        W17020   5.548   2.247   1.590  0.1522 -0.3449  0.1489
 1404W        W17021   4.129   5.592   1.417  0.0888  0.1443  0.1705
 1405W        W17022   7.283  18.569  12.618 -0.0932  0.1229 -0.1815
 1406W        W17023   6.971  18.311   2.417 -0.1284 -0.1298  0.0028
 1407W        W17024  14.018   1.619  13.437 -0.0752 -0.2561  0.1345
 1408W        W17025  13.602  18.139   3.470 -0.0525  0.0146 -0.0516
 1409W        W17026   4.965  16.636   9.908 -0.1865  0.1749 -0.1904
 1410W        W17027  11.742   3.309  11.918  0.0826 -0.3009 -0.4128
 1411W        W17028   5.779   1.603  15.121 -0.1644  0.0500 -0.3674
 1412W        W17029   4.188   3.093   3.038  0.1074 -0.0343 -0.3160
 1413W        W17030   1.662   7.513  12.292  0.0521 -0.0069 -0.0849
 1414W        W17031  12.131   1.004  12.096  0.1752  0.1396  0.2118
 1415W        W17032  14.356   9.637   0.497 -0.1912 -0.0363  0.0801
 1416W        W17033   2.392  19.072  14.996  0.0439 -0.1428 -0.2841
 1417W        W17034  14.894   2.632   3.169 -0.1556 -0.0640  0.0192
 1418W        W17035   8.990  10.457  12.066 -0.0105  0.5551 -0.3870
 1419W        W17036   4.248  11.063   0.623  0.1615 -0.3923 -0.0052
 1420W        W17037  13.261  10.537  10.631  0.2209  0.3887  0.1719
 1421W        W17038  17.392   6.274   2.138  0.1022 -0.0875 -0.1402
 1422W        W17039  15.657  16.182   1.991  0.1163  0.0940  0.2439
 1423W        W17040  11.669   5.222  11.873  0.1574  0.1024 -0.1450
 1424W        W17041   3.393   6.764  13.617  0.0787 -0.3600  0.1758
 1425W        W17042   6.407   5.419  14.100  0.2617  0.1132  0.0640
 1426W        W17043   5.757   8.800   3.543  0.4289 -0.1598  0.0056
 1427W        W17044  18.916  12.747  12.856  0.0384 -0.0499 -0.5218
 1428W        W17045   8.321   3.250  13.109  0.4134 -0.3668  0.1797
 1429W        W17046   8.472   5.115   3.667 -0.3746 -0.1905  0.1090
 1430W        W17047   9.110   1.701  10.083 -0.1369 -0.1517 -0.3044
 1431W        W17048  17.918   6.219   3.807 -0.3802 -0.1542  0.0325
 1432W        W17049  15.160   1.441  10.588  0.3411  0.0636  0.1939
 1433W        W17050   4.759   7.419  15.093 -0.1803  0.2355  0.1079
 1434W        W17051  15.979  18.822  13.498  0.0902  0.0583  0.5583
 1435W        W17052   9.680  15.699  11.549 -0.0090  0.2280  0.0755
 1436W        W17053   8.037  17.786   0.290 -0.0961 -0.2258 -0.1180
 1437W        W17054   9.202  13.865  11.010 -0.2381 -0.3854 -0.0365
 1438W        W17055  17.688  15.178  12.629 -0.1105 -0.3289  0.0482
 1439W        W17056  12.936  12.530   4.206 -0.0834 -0.1288 -0.2948
 1440W        W17057  14.606   9.103   3.227  0.0399  0.0098  0.2624
 1441W        W17058   5.165   4.543   5.721  0.1015 -0.0966 -0.2075
 1442W        W17059   3.417  17.511  12.079  0.0250  0.1561  0.1315
 1443W        W17060   2.232   7.671   3.620 -0.1102 -0.1222 -0.2813
 1444W        W17061   9.517  13.911   5.788  0.1525  0.1196 -0.0118
 1445W        W17062  12.505   9.099   1.759  0.3050  0.0506 -0.0328
 1446W        W17063  18.776   9.523  15.091 -0.1332 -0.2346 -0.1584
 1447W        W17064  11.563  12.703   4.233 -0.0236  0.0372 -0.1265
 1448W        W17065  15.257   6.346   2.668 -0.0642  0.3354 -0.1341
 1449W        W17066   6.680   3.228   5.146 -0.2517  0.0974 -0.0497
 1450W        W17067  10.291   3.693   9.797  0.0402  0.1271  0.0096
 1451W        W17068  15.806  17.917   4.896 -0.0162 -0.0023 -0.0918
 1452W        W17069  10.594  18.931  14.631 -0.1221  0.2371 -0.0811
 1453W        W17070  15.723   7.575  11.931 -0.0202 -0.0582 -0.2190
 1454W        W17071   9.876   2.773   1.023  0.1053 -0.0430  0.0766
 1455W        W17072   9.487   0.056   0.568  0.1156 -0.2391 -0.1482
 1456W        W17073   2.150   8.869   9.655  0.0637 -0.0621 -0.1570
 1457W        W17074  10.629   0.991   1.098  0.0592  0.0096 -0.0830
 1458W        W17075  10.981  13.782  12.495  0.2120  0.4694  0.1810
 1459W        W17076   1.962   8.424  10.521 -0.1888  0.1446  0.0951
 1460W        W17077   6.234   0.195  13.733 -0.2345  0.0164  0.4348
 1461W        W17078   9.246  16.587   2.381  0.2578 -0.2022  0.4511
 1462W        W17079  14.535  14.125   4.097  0.0030  0.0491 -0.2528
 1463W        W17080   1.391   7.280   2.945 -0.0131  0.1208  0.2715
 1464W        W17081  18.378   9.481  13.009  0.1008  0.3143  0.1980
 1465W        W17082   9.956  10.642  12.264  0.1247 -0.0098 -0.0753
 1466W        W17083   0.895   4.053   3.443  0.3136  0.1243  0.3251
 1467W        W17084  14.819  14.772   0.271 -0.4413  0.0547  0.4452
 1468W        W17085  15.478   1.907   0.306  0.1147  0.0386  0.0304
 1469W        W17086  11.418  14.686  11.621 -0.0451 -0.2463 -0.3347
 1470W        W17087  10.183   4.337   2.297  0.0039 -0.4864 -0.1234
 1471W        W17088  18.222  15.965  13.245 -0.0967 -0.1363  0.1179
 1472W        W17089  11.258   9.844   1.823  0.0570 -0.1316  0.0199
 1473W        W17090  16.022  17.163  12.082  0.1092 -0.0307  0.2471
 1474W        W17091  11.344   8.505   0.894 -0.3248 -0.1492  0.0250
 1475W        W17092   4.663   8.350   1.902  0.3469 -0.1414  0.0282
 1476W        W17093   6.065   3.482   4.372  0.1675  0.1895  0.0047
 1477W        W17094   8.837   7.406  11.387  0.0038 -0.0123 -0.1381
 1478W        W17095   8.060   7.983   2.115  0.3034 -0.2157  0.0938
 1479W        W17096  10.073   0.694  10.479 -0.0972 -0.2635 -0.3616
 1480W        W17097   9.428  14.249  11.248 -0.1959  0.2067  0.0401
 1481W        W17098   2.513  12.434  13.573 -0.1900  0.0165  0.0047
 1482W        W17099   1.374   6.124   2.721  0.1053  0.0393  0.1803
 1483W        W17100  17.457   3.874   1.948 -0.1139 -0.1852 -0.0594
 1484W        W17101   0.089  17.267  10.152  0.1453  0.2981 -0.0759
 1485W        W17102  14.066  18.101   0.612  0.1810 -0.0359 -0.1741
 1486W        W17103  12.943  17.902   0.600 -0.1554  0.2343 -0.0348
 1487W        W17104   9.779  11.265  11.465 -0.1634  0.2976  0.0820
 1488W        W17105   8.673   0.630   3.584  0.0278  0.2574 -0.4783
 1489W        W17106  13.897  13.228  14.145 -0.4993 -0.1670  0.0568
 1490W        W17107   7.133   1.322   4.758 -0.1665 -0.0481  0.0361
 1491W        W17108  14.776  17.293  14.081 -0.3126 -0.1108  0.3062
 1492W        W17109   3.894   2.438   6.220  0.0231 -0.1157  0.0693
 1493W        W17110  17.221   9.253  12.194 -0.1941 -0.2251  0.0831
 1494W        W17111  14.234   3.598   3.936 -0.0047 -0.2316  0.2830
 1495W        W17112  13.027  15.447   1.519  0.0216 -0.1524  0.3786
 1496W        W17113   7.755  13.819  11.020 -0.0063  0.2351  0.4170
 1497W        W17114   9.307  18.530   2.861  0.1637  0.1196  0.4129
 1498W        W17115  17.937   5.927  12.341  0.2087  0.0372 -0.3095
 1499W        W17116  15.970   9.073  10.803  0.0934  0.1714  0.2738
 1500W        W17117  14.567   3.509   5.704 -0.3073  0.2796  0.2470
 1501W        W17118  17.233  11.685  13.764  0.1169  0.1045  0.0362
 1502W        W17119  16.830   5.724   0.480  0.0569 -0.3631  0.0448
 1503W        W17120   6.459   7.649   3.747  0.0938  0.1485 -0.0863
 1504W        W17121   4.046   6.402   3.846 -0.5319 -0.1478 -0.0144
 1505W        W17122   4.451  10.209   2.427 -0.1864 -0.0421  0.2303
 1506W        W17123   4.077   4.966  10.891 -0.1102 -0.0474 -0.2447
 1507W        W17124  10.148  12.963   4.211 -0.1238  0.4860 -0.0368
 1508W        W17125  12.082   1.410  13.411  0.2086  0.0441 -0.1191
 1509W        W17126   9.684   1.880  14.371 -0.0575 -0.1127  0.0109
 1510W        W17127   0.125   4.285  12.494 -0.1769  0.2693 -0.0775
 1511W        W17128  12.118  18.871  11.891 -0.1545  0.1443 -0.1870
 1512W        W17129  14.606  17.961   2.189  0.5644 -0.0650  0.1290
 1513W        W17130   7.051  15.974  13.896 -0.2226 -0.2184 -0.0455
 1514W        W17131   5.414  10.362   3.746 -0.0332 -0.0396  0.1699
 1515W        W17132   6.264   3.069  14.513  0.0454 -0.1279  0.0664
 1516W        W17133   7.601  12.396   3.351 -0.3821  0.1272  0.0105
 1517W        W17134  16.248   7.786  12.291  0.1640  0.0213 -0.1184
 1518W        W17135  18.343  13.130  13.929  0.3102  0.1801 -0.0466
 1519W        W17136  16.958   2.240  13.980  0.1553 -0.0658  0.0537
 1520W        W17137  15.054  16.459   3.501  0.1122  0.1429 -0.0723
 1521W        W17138   7.568  16.869  10.891 -0.0332 -0.0596 -0.3127
 1522W        W17139   9.718   8.722   1.293 -0.1482  0.2070  0.1378
 1523W        W17140   7.373   0.455   1.493  0.0813  0.2023  0.1303
 1524W        W17141  16.920  12.924   2.229  0.0362 -0.2921 -0.0129
 1525W        W17142   0.735   6.270  13.182 -0.2003 -0.1797 -0.0084
 1526W        W17143  16.891   4.844  10.655 -0.0709 -0.5068  0.4518
 1527W        W17144  12.328   6.678  12.401 -0.2103 -0.2124  0.1876
 1528W        W17145   5.487   5.293   5.099 -0.2864  0.2963 -0.0927
 1529W        W17146   5.688   9.024   4.937  0.0109 -0.1184 -0.0266
 1530W        W17147  18.383  14.864  10.909  0.1068  0.1364  0.3553
 1531W        W17148  10.715  13.980  13.603 -0.5396  0.0043 -0.4198
 1532W        W17149  17.256   3.917   2.499  0.1023  0.0774 -0.2254
 1533W        W17150  11.238  12.353  14.154  0.1045 -0.3894 -0.2156
 1534W        W17151   3.334   8.208   1.223  0.1361 -0.0928  0.2260
 1535W        W17152   8.207  16.054   0.215  0.2720  0.1587  0.0570
 1536W        W17153   7.551  17.384  13.450  0.1667  0.2752 -0.0222
 1537W        W17154   0.913   4.396   5.413  0.1162  0.1359 -0.1384
 1538W        W17155  16.096  12.130  12.832 -0.0210 -0.0143  0.2635
 1539W        W17156   9.686   5.881   5.044  0.1831 -0.1792  0.2023
 1540W        W17157   9.549   4.670   2.876  0.3088 -0.3878  0.2806
 1541W        W17158   4.682  14.234   5.268 -0.2081  0.1642 -0.2375
 1542W        W17159   6.575  18.801   2.727 -0.0799 -0.2294  0.1970
 1543W        W17160  11.065  11.484  13.865  0.1560 -0.1084  0.2089
 1544W        W17161  15.329   3.755   9.964 -0.0658  0.3455 -0.0301
 1545W        W17162  15.331   0.890   2.840  0.1265  0.2252  0.0959
 1546W        W17163   0.697   1.011  11.047  0.7322 -0.3598  0.0902
 1547W        W17164  13.281   1.702  15.182 -0.0459  0.0723  0.1390
 1548W        W17165  11.920   4.457   3.612  0.0442  0.1882  0.0034
 1549W        W17166  15.030   6.927  15.193  0.0399  0.1979 -0.0089
 1550W        W17167  16.866   9.241   0.560 -0.4245 -0.0583 -0.0702
 1551W        W17168   1.183  16.424   1.097  0.0068 -0.1416  0.0784
 1552W        W17169   7.965  15.502   5.294 -0.2845 -0.2685 -0.0554
 1553W        W17170   8.638  11.660   3.634  0.2713  0.0076 -0.0498
 1554W        W17171  14.901  16.697  11.946 -0.1050 -0.1154  0.0395
 1555W        W17172   0.701  13.818   2.183  0.0073  0.3481 -0.1172
 1556W        W17173   9.239   6.354  15.223 -0.0002 -0.1942  0.1597
 1557W        W17174   3.324   4.524   0.849 -0.0671 -0.1624 -0.0862
 1558W        W17175  10.611   1.996   0.241  0.1702  0.0638  0.1195
 1559W        W17176  12.282  11.533  11.598  0.0726 -0.0787  0.0772
 1560W        W17177   7.114   2.572   4.467  0.2271  0.5336  0.3333
 1561W        W17178  18.486  12.653  14.919 -0.1391 -0.0819  0.0349
 1562W        W17179   4.015   9.218  13.002  0.0549 -0.0133  0.0094
 1563W        W17180   0.644   1.765  13.863 -0.3139 -0.1998 -0.0812
 1564W        W17181   7.790  10.804  12.038  0.1298  0.2482  0.0568
 1565W        W17182   7.508  10.348   4.678  0.1734  0.1792  0.1114
 1566W        W17183   3.395   1.109  14.413 -0.1507 -0.0043  0.2015
 1567W        W17184  19.059  13.093  15.188  0.2307  0.1980 -0.2574
 1568W        W17185   5.335   4.239   1.724  0.1850  0.1704 -0.0847
 1569W        W17186   7.680  14.054   2.636  0.2086 -0.1968  0.2263
 1570W        W17187   3.631  13.621   2.716  0.1254 -0.0124  0.2348
 1571W        W17188   4.654   8.586  10.691 -0.1510 -0.3374 -0.0216
 1572W        W17189  18.091  11.321   2.198 -0.1583 -0.1136  0.1759
 1573W        W17190   8.425  12.926   2.449 -0.0627 -0.2446  0.0163
 1574W        W17191  13.993   5.269   1.329 -0.0868  0.0495  0.0460
 1575W        W17192  11.600   9.815  11.931  0.0020  0.1450  0.0280
 1576W        W17193   1.665   7.560  10.898 -0.1973  0.0069 -0.1094
 1577W        W17194   3.110  12.599  11.102  0.1471  0.0498 -0.3380
 1578W        W17195   7.537  13.223   4.541 -0.3236  0.0703  0.4163
 1579W        W17196  18.101   1.235  12.072 -0.1155  0.1223 -0.1298
 1580W        W17197  15.808   2.048  10.153  0.1704 -0.1640  0.0665
 1581W        W17198   5.530   7.534   5.354  0.1616  0.0796 -0.3260
 1582W        W17199   4.272  17.696   2.056  0.0649  0.2511 -0.2708
 1583W        W17200   8.247  17.345   5.905  0.0526  0.2078 -0.0106
 1584W        W17201  17.885   5.501   3.884  0.0501 -0.0376 -0.0465
 1585W        W17202   3.576  10.095  13.874 -0.0188 -0.0473  0.0041
 1586W        W17203   6.616  12.782   4.861 -0.0219  0.1344 -0.1046
 1587W        W17204   1.003   3.153  15.117 -0.1428  0.0872  0.0488
 1588W        W17205  16.290  14.027  10.779 -0.1971  0.1565 -0.0991
 1589W        W17206  11.747  13.640   4.057  0.0735  0.0903  0.1008
 1590W        W17207  16.544   8.526  11.183 -0.0400 -0.1223  0.0413
 1591W        W17208   3.574  15.396  14.244  0.2466 -0.2323 -0.0309
 1592W        W17209   3.867  11.312   0.422  0.1402  0.0510  0.1884
 1593W        W17210  10.137   6.173   4.692  0.1873 -0.0011 -0.0935
 1594W        W17211   7.047  17.811   2.255  0.1638  0.2921 -0.1900
 1595W        W17212   1.462   4.066  11.998 -0.0234 -0.0798 -0.0596
 1596W        W17213  13.601   1.800  11.511  0.1326  0.3038  0.0796
 1597W        W17214  11.810  11.161  14.360 -0.2615 -0.0518  0.1780
 1598W        W17215  13.688   7.947   4.454 -0.1479 -0.1382 -0.4834
 1599W        W17216   6.600   9.342   5.223 -0.1402 -0.0921 -0.0262
 1600W        W17217  18.278   2.276  12.608 -0.1027 -0.2045  0.1220
 1601W        W17218  18.436  12.812  13.553  0.2865 -0.0896  0.3668
 1602W        W17219   9.143   3.564  14.369  0.1598 -0.0890  0.0093
 1603W        W17220   5.259  11.647   5.070 -0.1431 -0.2459 -0.0595
 1604W        W17221   0.566   9.827  13.478 -0.0902  0.0809 -0.0472
 1605W        W17222   2.256   9.210   4.398 -0.2572 -0.1076  0.2201
 1606W        W17223  18.899   5.397  11.055 -0.1062 -0.2745  0.0635
 1607W        W17224   8.134   8.204  15.201 -0.1294  0.2138 -0.1289
 1608W        W17225  16.667  10.053   0.688  0.1305 -0.3864 -0.0108
 1609W        W17226   0.627  15.342   0.826  0.5530  0.1128 -0.0816
 1610W        W17227   0.806   8.574  13.277  0.2781  0.0367 -0.2816
 1611W        W17228   8.037   5.052   5.211 -0.0486 -0.1166 -0.2620
 1612W        W17229  12.138   2.142   3.698 -0.2090 -0.0534 -0.0985
 1613W        W17230   9.916  11.101   1.117  0.1806 -0.0034  0.0147
 1614W        W17231   6.967  18.442  11.497  0.2208 -0.0450  0.3002
 1615W        W17232   7.770   9.877  11.987  0.3402  0.1023  0.2677
 1616W        W17233   9.899   6.300   3.244  0.0565  0.0048 -0.2938
 1617W        W17234   9.283   0.504  11.750  0.2107  0.0033 -0.2024
 1618W        W17235   1.603   2.564   4.795  0.0553 -0.0455  0.1619
 1619W        W17236  14.147  15.441   1.890  0.0965  0.2925  0.2131
 1620W        W17237  12.312   5.639   3.881  0.0869  0.2076  0.0571
 1621W        W17238   8.490   6.173   2.999 -0.2979  0.1478 -0.0118
 1622W        W17239  12.067   8.701  13.215  0.2953 -0.0959  0.1743
 1623W        W17240   7.621  11.576   1.840  0.0796 -0.0193  0.1569
 1624W        W17241  14.799   2.011  10.335  0.1658 -0.0415 -0.2729
 1625W        W17242  12.752  17.225  15.191 -0.1057 -0.0155 -0.1056
 1626W        W17243  17.309  14.167   1.621 -0.1146 -0.1689  0.2449
 1627W        W17244   0.750  11.116  13.805  0.3569 -0.1862 -0.2947
 1628W        W17245   3.825  11.712   2.974  0.0754  0.1748  0.1574
 1629W        W17246   9.196   5.865   4.851 -0.1337 -0.1450 -0.0124
 1630W        W17247  15.768  14.424   1.406  0.0060 -0.1038 -0.0032
 1631W        W17248  13.950   7.225  10.969 -0.1681 -0.2066 -0.2614
 1632W        W17249   9.655   1.633  13.426 -0.0529  0.0212  0.2093
 1633W        W17250   1.410   7.036  13.774  0.2394  0.2381 -0.0155
 1634W        W17251   5.073  16.363  12.849 -0.1616 -0.0044  0.2907
 1635W        W17252  14.751  16.605   0.645 -0.2675 -0.2490  0.1178
 1636W        W17253   0.302  13.454   2.998 -0.0055 -0.1244 -0.3272
 1637W        W17254   5.745  13.382   2.694 -0.0204  0.4165  0.2019
 1638W        W17255   4.442   8.747  14.317 -0.0212  0.1831  0.0333
 1639W        W17256  12.824  17.892   5.407 -0.0025  0.5427  0.2007
 1640W        W17257  15.855   0.890  10.903  0.1009  0.0878  0.2569
 1641W        W17258   8.466   1.386  11.012 -0.0378 -0.1268 -0.2300
 1642W        W17259  10.282   7.943  12.846  0.0704  0.3415 -0.0767
 1643W        W17260  10.870   5.787  15.081  0.1410  0.1748 -0.0872
 1644W        W17261  13.403  15.106  12.765 -0.1518 -0.1637 -0.2658
 1645W        W17262  10.343   7.352   5.108  0.0596 -0.2006  0.0396
 1646W        W17263  11.350  14.503  15.076  0.2109  0.1941  0.0275
 1647W        W17264   4.745  18.111   0.275  0.0814  0.0098 -0.1385
 1648W        W17265  11.079   5.830  12.460 -0.2499  0.1081  0.1718
 1649W        W17266   8.156  16.037   4.466  0.5391 -0.1555 -0.2359
 1650W        W17267  18.297   5.854  13.625  0.2890 -0.1994  0.1955
 1651W        W17268   8.062   0.475   0.185  0.0994  0.1271  0.0400
 1652W        W17269  12.393  11.300   3.262  0.0019  0.1176  0.0293
 1653W        W17270  14.681  11.740   3.960 -0.1460  0.0776  0.2659
 1654W        W17271   3.955   2.186   0.346 -0.0057 -0.1216 -0.1257
 1655W        W17272  18.676  11.921  12.251 -0.3786  0.0017  0.3324
 1656W        W17273  13.451  11.548  13.283 -0.1279 -0.1432 -0.0661
 1657W        W17274   0.836   2.379  14.603  0.3178  0.1202  0.0586
 1658W        W17275   1.461  12.245   2.452 -0.3390 -0.1526  0.0886
 1659W        W17276   5.795   7.615  11.518 -0.1285  0.2662 -0.1042
 1660W        W17277  18.949   7.993   3.810  0.0696  0.0561  0.1046
 1661W        W17278   5.463  17.800   2.691 -0.0392 -0.0857 -0.2913
 1662W        W17279   2.685   2.941   2.366  0.3379  0.0458  0.0881
 1663W        W17280  18.844   2.889  10.727  0.1064  0.1107  0.1187
 1664W        W17281  17.598  18.304   3.537 -0.3062 -0.2090  0.1795
 1665W        W17282   8.271   4.044   4.689 -0.0215  0.0154 -0.2542
 1666W        W17283   1.939  13.985   4.859 -0.0706 -0.1685  0.1559
 1667W        W17284  13.084   7.833   0.070 -0.1028  0.0240  0.0536
 1668W        W17285  12.886   2.385   1.237  0.0722 -0.2160  0.1347
 1669W        W17286  11.291   9.445   0.895 -0.1204  0.0912 -0.1111
 1670W        W17287   3.332  17.451   3.768 -0.0420 -0.2419  0.0134
 1671W        W17288   8.918   7.823  10.696  0.2170  0.0012  0.1154
 1672W        W17289   9.359  16.017   4.296  0.2020  0.1321 -0.0194
 1673W        W17290  13.344   9.972   4.710  0.4087  0.0443  0.4550
 1674W        W17291   5.361   4.331  14.438 -0.2108  0.2103  0.0777
 1675W        W17292   3.698  13.079   4.300  0.1469 -0.3917 -0.0869
 1676W        W17293   2.050   2.712   4.570 -0.0081 -0.0243 -0.2204
 1677W        W17294  15.427   6.716   0.166  0.0077  0.0539  0.1222
 1678W        W17295  15.870  11.890   9.834  0.1054  0.1163 -0.1363
 1679W        W17296  18.239  19.072  15.238 -0.3220  0.1274 -0.1606
 1680W        W17297   6.057   8.002  12.217 -0.1384 -0.1989  0.0140
 1681W        W17298  12.944   1.328  14.391  0.1573 -0.0367 -0.1177
 1682W        W17299   6.535   0.620  11.966 -0.0639  0.1068 -0.1950
 1683W        W17300   4.790  10.983  10.171 -0.1305  0.0586 -0.1116
 1684W        W17301   8.895  18.654   3.143 -0.0233 -0.0535  0.4179
 1685W        W17302  15.979  11.650   0.832 -0.2422 -0.1649  0.3060
 1686W        W17303   5.672   2.137  10.813 -0.3997 -0.1278  0.0620
 1687W        W17304   6.124  18.995  13.052 -0.1779  0.0786 -0.0144
 1688W        W17305   6.423   3.568   0.492  0.1851 -0.2223 -0.3756
 1689W        W17306  12.337  14.675   4.925  0.3122 -0.0529 -0.0790
 1690W        W17307   8.223   6.757  12.067 -0.2525  0.0434 -0.1641
 1691W        W17308   5.557  16.608  12.239 -0.3704  0.1808 -0.1039
 1692W        W17309  13.433  11.935   0.819 -0.3895 -0.3867 -0.1535
 1693W        W17310  16.756  14.755  13.535  0.4787  0.1586  0.0389
 1694W        W17311   1.941   7.888  12.307 -0.3838  0.1517 -0.0939
 1695W        W17312   9.821   6.521  13.720  0.0198  0.0828 -0.1234
 1696W        W17313  18.671   4.368  13.455 -0.4464  0.1283 -0.0124
 1697W        W17314  12.421   8.634   5.389  0.0347 -0.1158  0.0447
 1698W        W17315  14.071  13.564   2.363 -0.1560  0.1277  0.1922
 1699W        W17316   1.607  18.146   4.356  0.1929  0.1231 -0.0264
 1700W        W17317  13.482  10.689   0.234  0.0414  0.1421  0.0674
 1701W        W17318  17.146  11.926  12.300  0.0489  0.0956  0.2830
 1702W        W17319  12.075  14.230   3.338  0.2465  0.0113  0.0139
 1703W        W17320  10.095   2.932  10.438 -0.1622  0.0188  0.0941
 1704W        W17321  10.158  18.204   1.744  0.4034 -0.3542  0.0007
 1705W        W17322   1.459   3.220   2.478 -0.1824  0.3419 -0.2710
 1706W        W17323   9.160  12.848  11.137  0.1151  0.1789  0.0838
 1707W        W17324   3.010   9.082  13.071 -0.0800  0.0492  0.0277
 1708W        W17325   5.598   5.621   3.906 -0.1090  0.1296 -0.0845
 1709W        W17326   0.637  11.357  11.306  0.0123  0.2913 -0.1380
 1710W        W17327   2.084  12.107   1.387 -0.1577 -0.0728  0.3042
 1711W        W17328   9.814   7.230   1.355 -0.2873 -0.0596 -0.1172
 1712W        W17329   5.394   2.564   0.639  0.0003  0.2756  0.0174
 1713W        W17330   8.608   6.952   0.299  0.1204  0.1575 -0.0386
 1714W        W17331   2.000   0.280  12.998 -0.2005 -0.5042 -0.1524
 1715W        W17332  18.236   7.906  10.520  0.0757 -0.0648 -0.0313
 1716W        W17333   9.923   5.396  12.845 -0.1953  0.2170  0.0667
 1717W        W17334   5.240   9.952  11.925  0.0738 -0.2812  0.1969
 1718W        W17335   6.520   6.293   5.727  0.0724 -0.1004 -0.2777
 1719W        W17336   6.060  13.742   3.515 -0.3965 -0.0805 -0.3029
 1720W        W17337   3.769  11.771  10.555  0.0861  0.1117 -0.0631
 1721W        W17338  17.274  11.452   4.890  0.1003  0.0255  0.0748
 1722W        W17339  14.399  10.526   4.196  0.0539  0.0776  0.0034
 1723W        W17340   8.795   8.752   2.069  0.0245 -0.1471 -0.3706
 1724W        W17341  17.062  13.200   1.804 -0.0236  0.2438  0.4479
 1725W        W17342  14.481   3.029   3.262 -0.1536 -0.2259  0.1250
 1726W        W17343  14.014  12.458   3.779  0.1474 -0.3400 -0.3552
 1727W        W17344   0.909   1.426   1.309  0.0477 -0.1483  0.1356
 1728W        W17345   6.308  11.825   4.487 -0.1217  0.2689  0.2228
 1729W        W17346  16.687  12.485  11.542 -0.0575 -0.2524 -0.3092
 1730W        W17347   0.962   3.480   4.192 -0.0712 -0.4192  0.0357
 1731W        W17348  13.672   6.099  10.560  0.2152 -0.2641  0.0834
 1732W        W17349   3.978   8.073  15.056 -0.0310 -0.4135  0.1087
 1733W        W17350  17.930   2.248  12.261  0.1540  0.0903 -0.2548
 1734W        W17351   8.662  18.460  12.935 -0.1992 -0.1038  0.3219
 1735W        W17352   0.072  17.114  14.501 -0.1105  0.1458 -0.0825
 1736W        W17353  10.468  17.790  12.611  0.0560 -0.0575 -0.3318
 1737W        W17354  17.929  14.075  11.219  0.1868  0.1159  0.1732
 1738W        W17355   1.804   6.573   1.953  0.4950 -0.2238  0.0455
 1739W        W17356  17.564   5.802   3.054  0.0495 -0.6724  0.0853
 1740W        W17357   0.965  14.885  14.988  0.4603 -0.0861  0.0668
 1741W        W17358   5.280  16.678   0.295  0.0154 -0.0032  0.2189
 1742W        W17359  14.555   8.906   2.614 -0.0227  0.1838  0.1138
 1743W        W17360  13.437   4.254  12.012 -0.0837  0.0834 -0.1068
 1744W        W17361  14.487   1.431  14.589  0.1272  0.2519  0.1196
 1745W        W17362  13.075  12.396   1.250 -0.2341  0.1306 -0.1247
 1746W        W17363  10.883  13.493   2.103 -0.0870 -0.3812  0.0136
 1747W        W17364   3.380  18.292  11.790 -0.3954  0.0074  0.0287
 1748W        W17365  10.970   6.274  10.829  0.0646 -0.0036  0.0763
 1749W        W17366   7.395   9.778   1.370 -0.1074 -0.1003 -0.2286
 1750W        W17367   6.105   1.488  11.863  0.1692 -0.3845  0.0243
 1751W        W17368  16.191   5.476   3.250  0.2041  0.2518 -0.1584
 1752W        W17369   7.157  18.239  13.696 -0.2671  0.4945  0.0936
 1753W        W17370   5.059   7.286   1.245 -0.3369  0.2391  0.2758
 1754W        W17371   0.375  17.332   3.760  0.3110  0.2860 -0.1475
 1755W        W17372   1.663   1.499   4.896  0.2663  0.0862  0.0803
 1756W        W17373   3.856   2.916   4.319 -0.0908  0.1570  0.0334
 1757W        W17374  11.976  10.488   1.819  0.1928 -0.0458  0.1714
 1758W        W17375   3.859   0.960  12.000 -0.1772  0.1729 -0.0445
 1759W        W17376  18.255  17.911  10.492 -0.1342  0.3273 -0.5168
 1760W        W17377   4.323  10.723  10.696  0.2164  0.0282  0.0618
 1761W        W17378   9.016  10.011  14.918 -0.4872 -0.1664 -0.1064
 1762W        W17379  13.619   7.248   4.342 -0.1134  0.0058  0.2588
 1763W        W17380   2.930   5.629   3.706  0.0491  0.1612 -0.0299
 1764W        W17381   3.225  15.113   1.591  0.1947 -0.4487  0.2291
 1765W        W17382   2.883  12.465   1.408  0.1887  0.3294 -0.3026
 1766W        W17383  11.333  17.373  14.823 -0.1238  0.1045 -0.0614
 1767W        W17384  12.266  14.055  11.517  0.0573 -0.0568 -0.0478
 1768W        W17385   0.153   1.918   5.003  0.2105 -0.0594  0.0625
 1769W        W17386  18.215   9.595  10.361 -0.1304  0.2876 -0.1386
 1770W        W17387   1.963  13.327   0.665 -0.0132 -0.1612 -0.1593
 1771W        W17388  13.273   9.463   0.642 -0.2647  0.3922 -0.1066
 1772W        W17389  11.889   9.210   1.311  0.0162 -0.2002 -0.2003
 1773W        W17390  14.970  11.478  11.264  0.1983  0.2252  0.1974
 1774W        W17391  13.048   7.585  11.254  0.0455  0.2539 -0.2475
 1775W        W17392   7.401   9.305   3.895  0.4324 -0.0753  0.0526
 1776W        W17393  13.383  12.045  11.259 -0.2388  0.0110 -0.1510
 1777W        W17394  11.525  10.383  12.129 -0.2560  0.2210 -0.0834
 1778W        W17395   5.624   6.156  13.803  0.1608  0.1949  0.0453
 1779W        W17396   6.179   5.888   2.255 -0.1339 -0.2166 -0.2967
 1780W        W17397   1.882   5.152  13.042  0.1836 -0.2462  0.1159
 1781W        W17398   6.105   1.282   4.123 -0.1338 -0.0134 -0.2398
 1782W        W17399  18.580   9.503   4.461  0.2927  0.1852 -0.5254
 1783W        W17400  11.863   0.353  15.243 -0.2704 -0.1542 -0.2864
 1784W        W17401  13.646   7.611   5.506 -0.3535 -0.0557 -0.3953
 1785W        W17402  13.279   4.184   2.524 -0.0634 -0.2488 -0.0890
 1786W        W17403   4.661   4.012  15.057 -0.0779  0.2484  0.0147
 1787W        W17404  17.338   7.989  10.551 -0.0316 -0.2291 -0.1894
 1788W        W17405  15.017   0.176  11.577 -0.3603  0.0084  0.1307
 1789W        W17406   9.620   2.457  12.192 -0.3900  0.1909 -0.1212
 1790W        W17407  18.500   7.170  12.377 -0.2427 -0.2126  0.0312
 1791W        W17408  17.864   1.682  15.162  0.0933 -0.1526  0.3247
 1792W        W17409   0.955   9.790   2.113  0.2583  0.1237  0.1743
 1793W        W17410   9.782   2.340  14.428 -0.1717 -0.0718 -0.4385
 1794W        W17411   9.462   2.091   0.282 -0.0419  0.1905  0.3720
 1795W        W17412   9.558  13.571  10.713  0.0067  0.0636  0.0668
 1796W        W17413   0.180  18.055   0.312  0.3099  0.0056 -0.2521
 1797W        W17414  15.762  10.473  12.590  0.3130 -0.0751 -0.2360
 1798W        W17415   6.915   6.732  14.813  0.0564  0.0316 -0.1207
 1799W        W17416  18.828  12.399  15.220 -0.0764 -0.1288 -0.2794
 1800W        W17417   9.645  12.749   4.790  0.0337 -0.0063  0.0653
 1801W        W17418  18.360  17.512   2.896  0.0138  0.0749 -0.2228
 1802W        W17419   6.280   8.525   3.983  0.1382 -0.2388  0.3028
 1803W        W17420  17.011   3.224  12.276 -0.0052 -0.1126 -0.0367
 1804W        W17421  14.728   5.709   1.118  0.0893 -0.1743  0.2171
 1805W        W17422  16.816   3.679   2.782 -0.0618  0.1972 -0.0936
 1806W        W17423   7.444  15.234   0.014 -0.0548 -0.1853 -0.0441
 1807W        W17424   0.129   7.029   1.612 -0.2366 -0.0533  0.2834
 1808W        W17425   6.219   6.720  13.840 -0.0422 -0.2446 -0.1653
 1809W        W17426  17.911  12.697  13.068  0.1127 -0.2405  0.0022
 1810W        W17427   7.408   6.464   4.888 -0.0315  0.2039 -0.1158
 1811W        W17428  16.153  16.685  12.904  0.2857  0.1657  0.0528
 1812W        W17429  16.748   5.885  10.623  0.0371  0.0316  0.2067
 1813W        W17430   5.757   2.981   5.043  0.0829 -0.4157  0.0574
 1814W        W17431  13.006  11.258   3.109  0.0955  0.0836  0.2199
 1815W        W17432  14.596   5.471  11.554  0.0856  0.0314 -0.2301
 1816W        W17433  10.582   3.893  14.396  0.0903 -0.0001  0.2766
 1817W        W17434   6.524   9.641   1.243 -0.1325 -0.1270 -0.0435
 1818W        W17435  10.809  17.477  13.431  0.1585 -0.0936 -0.0018
 1819W        W17436  10.116  16.920   0.492 -0.1041  0.2871 -0.0440
 1820W        W17437  18.001  15.941   3.649 -0.0711 -0.1995 -0.1169
 1821W        W17438  16.751  16.946  10.739  0.1522 -0.1610 -0.1216
 1822W        W17439  17.243   6.127  13.375  0.1953  0.0479 -0.1708
 1823W        W17440   3.652   2.479  12.896  0.2117 -0.0640 -0.3300
 1824W        W17441  10.248  17.871  14.193  0.4049  0.0820  0.5355
 1825W        W17442   1.498  16.846   4.778  0.0564  0.2908  0.2375
 1826W        W17443   4.117   6.000   0.010 -0.2407 -0.0821 -0.2885
 1827W        W17444   8.918  17.257  14.584  0.1653 -0.2724 -0.2800
 1828W        W17445   7.006  10.419  11.195 -0.0395  0.0991  0.2210
 1829W        W17446  13.676   7.062  11.482 -0.1176  0.0556 -0.0924
 1830W        W17447   0.968   7.674   4.509  0.1239  0.0747  0.0220
 1831W        W17448   7.517  16.463   0.936 -0.3713  0.1699 -0.1760
 1832W        W17449   8.818  10.952  11.786 -0.1643  0.2735 -0.2776
 1833W        W17450  10.778   2.221   2.278 -0.1837 -0.2462  0.2856
 1834W        W17451   2.184   8.074   3.216  0.1086 -0.1049 -0.0562
 1835W        W17452  14.224   1.640   0.949  0.0118  0.0247  0.3408
 1836W        W17453   4.386  15.415  11.663 -0.2938  0.1492  0.1060
 1837W        W17454  12.373   2.286   2.933 -0.0617 -0.0506 -0.2104
 1838W        W17455  16.032   4.363   2.876 -0.3325  0.0578 -0.0483
 1839W        W17456   3.958  15.405  12.284  0.0578 -0.1226 -0.3870
 1840W        W17457   4.666  15.859   3.296 -0.1224  0.3315  0.0961
 1841W        W17458   7.740   9.100   1.849 -0.3355  0.1040  0.0603
 1842W        W17459  16.397  17.422   2.017  0.2026 -0.0063  0.1723
 1843W        W17460   8.430  14.720   3.961  0.1519 -0.1135 -0.1619
 1844W        W17461  16.180  17.370  11.633  0.0516  0.4080  0.0530
 1845W        W17462   7.334  12.175  11.403  0.0841  0.0768 -0.4009
 1846W        W17463  13.995  18.693   2.268 -0.0783 -0.3037 -0.3051
 1847W        W17464   3.901  13.049  13.176 -0.0999 -0.0918 -0.0788
 1848W        W17465   1.685   4.211   2.551  0.2370 -0.0398  0.1083
 1849W        W17466   4.294   9.781   1.732  0.0424  0.1101  0.1716
 1850W        W17467   7.536   9.205  11.259  0.1960  0.0986  0.2581
 1851W        W17468   9.406  15.574   3.501 -0.0141  0.2322 -0.3983
 1852W        W17469   9.572  16.889  15.215 -0.1688  0.0051  0.0877
 1853W        W17470   3.960  18.964  14.251  0.2949 -0.0074 -0.0941
 1854W        W17471  19.020  11.644   4.229 -0.0310  0.0935 -0.1111
 1855W        W17472   7.538   4.771   1.787 -0.3215 -0.1020  0.0211
 1856W        W17473   6.497   7.670  11.215  0.2722 -0.2388  0.1346
 1857W        W17474   6.705   0.427   3.366 -0.2012 -0.1244 -0.2765
 1858W        W17475  10.843  15.103   5.034 -0.0116 -0.3097  0.0556
 1859W        W17476  10.437   1.148  13.597  0.0519  0.2598 -0.1466
 1860W        W17477  11.088   5.662   2.964 -0.1221 -0.0337  0.0971
 1861W        W17478  11.919   8.847  13.725 -0.0180 -0.1078  0.0514
 1862W        W17479  16.850  15.491  13.169 -0.0808 -0.0257 -0.2672
 1863W        W17480   0.284   5.436  10.831  0.0323  0.3492 -0.0186
 1864W        W17481   7.244   9.488   4.490  0.0251  0.2510 -0.1839
 1865W        W17482   0.260   0.157  10.598  0.2155 -0.2686 -0.1971
 1866W        W17483  11.085  15.781   0.372 -0.0642 -0.0199 -0.2106
 1867W        W17484  17.522  17.025  11.759  0.0858 -0.2007 -0.0119
 1868W        W17485  18.830  15.155  10.120  0.1375 -0.1488 -0.0307
 1869W        W17486   8.045  12.831  14.071 -0.1803  0.1811 -0.2631
 1870W        W17487   3.712   9.091  10.577 -0.0838 -0.1868 -0.2697
 1871W        W17488  10.898  18.036   4.805  0.3265 -0.2624  0.0081
 1872W        W17489  13.887   2.833   2.063 -0.1171  0.0165  0.0426
 1873W        W17490   0.269  15.973   2.430 -0.0425 -0.0049 -0.0094
 1874W        W17491  12.105  17.239   1.328 -0.1458 -0.2238 -0.0170
 1875W        W17492  12.962   4.967  10.702 -0.0625  0.0217  0.1495
 1876W        W17493  17.462   0.864  15.062  0.1484 -0.0939 -0.1012
 1877W        W17494  14.695   7.687  12.067 -0.0139 -0.0462  0.1082
 1878W        W17495  15.853  11.670  12.721  0.4880 -0.2745 -0.1173
 1879W        W17496  16.892   9.246   4.979  0.0415  0.0346  0.1385
 1880W        W17497  13.362  11.397   4.092 -0.3860 -0.0606  0.0275
 1881W        W17498  17.622   4.632  14.902 -0.3602 -0.2203 -0.2868
 1882W        W17499   6.432   3.550   4.736  0.2562 -0.0842  0.0337
 1883W        W17500  15.749  17.426  14.717  0.1950  0.0222  0.2290
 1884W        W17501   1.549   1.476  14.954 -0.2128 -0.1273  0.2157
 1885W        W17502   4.924  18.513   2.535 -0.0566  0.0050  0.2993
 1886W        W17503  14.054   7.329  10.431 -0.2559 -0.1604  0.1640
 1887W        W17504   7.218  18.295   2.930  0.0230 -0.1064  0.3014
 1888W        W17505  18.376   8.971   0.979 -0.2713 -0.3285 -0.0819
 1889W        W17506   6.879   6.343  15.195 -0.3520 -0.0510 -0.1905
 1890W        W17507   5.469  11.370   3.762 -0.1999  0.0648  0.1335
 1891W        W17508   7.748  12.665  13.133  0.0328  0.2963  0.0335
 1892W        W17509  11.341   5.443   4.448 -0.0199  0.1647  0.1033
 1893W        W17510   7.967   0.484   2.169 -0.0079 -0.2358 -0.1329
 1894W        W17511   2.535  11.042  15.145  0.1819 -0.2138  0.1019
 1895W        W17512   4.520  16.848   1.437 -0.1093 -0.2760  0.2402
 1896W        W17513  16.735   7.882   1.369 -0.2081 -0.1358 -0.0926
 1897W        W17514  10.436  14.102   4.339  0.0532 -0.0669  0.0681
 1898W        W17515  17.931   1.707   5.227  0.2455  0.0337 -0.0122
 1899W        W17516  10.215   2.387   4.774 -0.4598 -0.2194  0.3064
 1900W        W17517   6.727   7.946  10.859 -0.3453  0.2469 -0.0251
 1901W        W17518  18.891  16.807  11.786  0.1290  0.2348  0.0625
 1902W        W17519   9.368   1.878  11.001  0.0417 -0.0442  0.1444
 1903W        W17520   3.269  10.962  13.873 -0.2254  0.1326 -0.0682
 1904W        W17521   2.166   2.578   4.115 -0.0137  0.4010 -0.0743
 1905W        W17522   4.960   8.991  12.995 -0.0157 -0.4046  0.0573
 1906W        W17523  15.504  12.781  10.913  0.2659  0.0282  0.1035
 1907W        W17524  11.030   5.360  10.276 -0.1036 -0.1250 -0.3046
 1908W        W17525   3.983  10.959   2.543  0.2159 -0.1822  0.1862
 1909W        W17526  18.408   0.739   4.631 -0.1253  0.1757  0.0786
 1910W        W17527  15.589  17.656   2.394  0.0995  0.0691 -0.0385
 1911W        W17528  16.223  17.069  10.532 -0.1589 -0.0305 -0.0918
 1912W        W17529  16.337  16.917   0.393 -0.3235  0.0889  0.1969
 1913W        W17530  11.371   5.597  15.237  0.0430  0.0835  0.0475
 1914W        W17531   8.503  13.311   0.512  0.2314  0.0829  0.1580
 1915W        W17532  17.327   0.645   1.404  0.0694 -0.0764 -0.2367
 1916W        W17533   0.416   8.026   3.394  0.0635  0.0397  0.3016
 1917W        W17534   1.611  16.380   2.831  0.3055  0.0754  0.1764
 1918W        W17535  18.132  15.622  14.650 -0.1607  0.0703  0.0535
 1919W        W17536   4.360  15.127  14.821 -0.1576  0.1545 -0.2605
 1920W        W17537  16.091  10.081   0.864  0.2814  0.1184 -0.3543
 1921W        W17538   0.675   9.726   4.806  0.3565  0.0489 -0.2773
 1922W        W17539  12.645  18.549   5.042 -0.2090  0.3039 -0.0060
 1923W        W17540  17.023   0.364  11.215  0.0124  0.0651  0.1306
 1924W        W17541   2.248  13.083  10.712 -0.0166 -0.2794  0.1915
 1925W        W17542   5.647   0.853   2.011 -0.0041  0.0383  0.0417
 1926W        W17543   6.063   1.437  14.087  0.1479 -0.1744 -0.2160
 1927W        W17544  16.389   1.250   1.340  0.2423  0.0546  0.1291
 1928W        W17545  15.910  18.999  10.293  0.0739  0.0499 -0.1472
 1929W        W17546   7.924  11.915   1.572  0.2042  0.0374 -0.1942
 1930W        W17547  11.035  16.508   4.791 -0.2363  0.3322 -0.1087
 1931W        W17548  16.371   6.942   2.731  0.0558 -0.1156  0.0331
 1932W        W17549  17.099   5.566   3.019  0.0986  0.3515  0.0466
 1933W        W17550   8.179   5.291  15.056  0.0559  0.0543  0.0415
 1934W        W17551   1.207  14.767  13.514 -0.0611  0.0213 -0.0316
 1935W        W17552  11.837   4.585  12.363 -0.1409  0.0637 -0.1215
 1936W        W17553   1.411   5.389  11.648 -0.3502 -0.0310  0.2278
 1937W        W17554  14.566   9.267   4.938 -0.2278 -0.0595  0.1468
 1938W        W17555  15.308   5.595   3.301  0.4390 -0.0955 -0.1760
 1939W        W17556   7.841  14.925   2.489 -0.3478 -0.1131 -0.2730
 1940W        W17557  12.419   9.616   9.621 -0.1949  0.3833  0.1644
 1941W        W17558   9.790  12.373   5.109 -0.3349 -0.1687 -0.0922
 1942W        W17559   1.155  11.007  14.560  0.2020 -0.0033 -0.1016
 1943W        W17560   8.397  15.394   1.115 -0.3158 -0.1068  0.0398
 1944W        W17561  17.903  17.225  13.134  0.0324  0.2273 -0.2158
 1945W        W17562  18.254  13.418  10.901  0.3129  0.1212 -0.3549
 1946W        W17563  15.070  11.137   5.331  0.0191  0.2601 -0.2183
 1947W        W17564  15.968   3.411   9.494  0.0186  0.1289 -0.1902
 1948W        W17565   2.274   7.482  14.940 -0.3723 -0.0063 -0.1524
 1949W        W17566  18.123  17.371  14.455 -0.1502 -0.0113 -0.3162
 1950W        W17567  17.592  16.249  13.388  0.0383 -0.2857  0.3058
 1951W        W17568  10.444   1.535  14.002  0.1857  0.1556  0.0500
 1952W        W17569   2.896  17.128  14.912  0.0511  0.3189  0.3063
 1953W        W17570   6.715  18.615   3.904 -0.1213  0.0413 -0.1141
 1954W        W17571   2.467   9.848  14.443  0.1240 -0.1558  0.0880
 1955W        W17572   8.545   3.710   3.473  0.2271  0.1157  0.2111
 1956W        W17573  11.664   6.691  15.266  0.1553 -0.2209 -0.1477
 1957W        W17574  16.681   3.635  11.928  0.1052 -0.0937  0.2736
 1958W        W17575  13.509   2.299  13.298 -0.3280 -0.2506 -0.0596
 1959W        W17576  18.855   0.716  10.095 -0.1579  0.3986 -0.1982
 1960W        W17577  19.038  10.758   0.947  0.1695  0.1319  0.3224
 1961W        W17578   1.952   4.484   4.855  0.1735 -0.0891 -0.0967
 1962W        W17579  10.858  13.188  13.648 -0.2270 -0.3091  0.3076
 1963W        W17580  10.189   2.581  11.357 -0.2241  0.0110 -0.1607
 1964W        W17581  13.050   7.519  11.875  0.1034  0.3508 -0.2596
 1965W        W17582  12.470  15.735   1.600  0.1599 -0.2592 -0.0932
 1966W        W17583   5.056   8.402  11.272  0.1793 -0.1202  0.1726
 1967W        W17584  14.083  11.591   3.141 -0.2095  0.2765 -0.0479
 1968W        W17585   4.135   3.158   3.852  0.1176 -0.0659 -0.0933
 1969W        W17586   5.239   4.074   4.530  0.4648 -0.2075  0.0835
 1970W        W17587   2.706  17.629   4.740  0.1581  0.0701 -0.0395
 1971W        W17588   4.740  12.952   4.704 -0.1766  0.1009  0.1267
 1972W        W17589  12.672   1.006  12.371  0.0200  0.1701  0.1428
 1973W        W17590   6.655  18.108  11.266  0.0778  0.1829  0.3985
 1974W        W17591  18.486  15.240   0.079 -0.2063 -0.1100  0.4306
 1975W        W17592  12.480   3.994  12.954 -0.2790 -0.2656 -0.1206
 1976W        W17593  15.800   2.442  10.445  0.1569 -0.1323  0.0185
 1977W        W17594  16.804   4.944   3.976 -0.1870  0.1402  0.1298
 1978W        W17595  10.415  18.953   0.878  0.1511 -0.3467  0.1543
 1979W        W17596   8.574   5.555   3.927 -0.2028  0.0556  0.3789
 1980W        W17597  15.323   3.956  12.797 -0.0557  0.1397 -0.3165
 1981W        W17598  18.913   3.034  12.993  0.2454  0.3425 -0.0013
 1982W        W17599  11.587   7.723   1.303  0.1596  0.0411  0.0727
 1983W        W17600   4.685  12.866   0.934  0.0271  0.0101 -0.2145
 1984W        W17601  13.018  10.604  14.765  0.1414 -0.2078 -0.3768
 1985W        W17602  10.423  15.998  12.753  0.1347 -0.2433  0.3392
 1986W        W17603   4.385  11.693  14.876  0.0227 -0.0960  0.0149
 1987W        W17604  13.921   5.608  13.836 -0.3425  0.1073 -0.2321
 1988W        W17605   9.689  14.935  10.264 -0.1652  0.3484 -0.4362
 1989W        W17606  15.669   3.333   0.199  0.0459 -0.0480  0.2794
 1990W        W17607   7.799   8.242  11.266 -0.1736  0.1375  0.0649
 1991W        W17608  15.121  11.647   1.531  0.0534 -0.0741 -0.0629
 1992W        W17609   9.414   6.589  10.928 -0.2048 -0.0688  0.0940
 1993W        W17610  14.798  18.665  15.274  0.2715  0.2053 -0.1787
 1994W        W17611  11.046   7.555  15.116 -0.0964  0.0288  0.0481
 1995W        W17612   9.385  13.357   4.075 -0.1556  0.0597 -0.0225
 1996W        W17613  13.781   5.221  11.086  0.3124 -0.0618  0.1857
 1997W        W17614  11.320  17.301  12.917  0.2550  0.2597  0.3473
 1998W        W17615  11.861   7.465   4.658 -0.0692 -0.2862  0.2565
 1999W        W17616   8.587  11.312   3.260 -0.0306 -0.2186 -0.2127
 2000W        W17617  10.236   8.752  10.787  0.0609 -0.0293  0.0095
 2001W        W17618   7.581   8.698   1.636 -0.1519  0.1338 -0.1350
 2002W        W17619  12.451   0.706   1.959 -0.0058  0.3959  0.2281
 2003W        W17620  13.171   5.212  14.096  0.1731  0.2437  0.0463
 2004W        W17621  13.497  14.711  12.316  0.2206 -0.0831  0.1142
 2005W        W17622   1.859   3.223  12.533 -0.0107 -0.4393  0.5840
 2006W        W17623   5.551  17.162  14.739  0.4914 -0.0344 -0.2141
 2007W        W17624  13.897  14.884  12.981  0.0273 -0.0059 -0.0273
 2008W        W17625   6.211  11.491  13.178 -0.6012 -0.3143 -0.3107
 2009W        W17626  11.412   8.689   0.437 -0.1309  0.0666  0.1312
 2010W        W17627   2.727  15.341   0.830 -0.0610  0.1498 -0.1663
 2011W        W17628  13.016   2.968  11.994  0.2655 -0.2434  0.5276
 2012W        W17629   4.479   3.176   3.459 -0.4129  0.1873  0.3533
 2013W        W17630  12.824  14.725  14.232  0.2557  0.0531  0.0768
 2014W        W17631   7.931   3.326  11.989  0.0241 -0.0030  0.1726
 2015W        W17632  18.415  14.354  11.781 -0.1244 -0.0048  0.2641
 2016W        W17633   1.682   5.236   4.140  0.1613  0.1661  0.0564
 2017W        W17634   8.486   8.046   0.456 -0.2022  0.2527  0.2021
 2018W        W17635   0.428   3.023  11.157  0.2658 -0.1101 -0.2387
 2019W        W17636  16.927   2.950  10.632 -0.2913  0.0043  0.3446
 2020W        W17637   8.426  18.037  14.382  0.1474 -0.0456 -0.2874
 2021W        W17638   3.563  12.934  14.870  0.4023 -0.3518 -0.0446
 2022W        W17639  15.844  15.944   2.466  0.2312 -0.1742  0.2337
 2023W        W17640  18.106   8.775  11.775 -0.5054  0.1272  0.3057
 2024W        W17641  16.686   8.536   2.540 -0.2582 -0.0752 -0.0021
 2025W        W17642  16.670   0.506   2.879  0.3015 -0.1952 -0.1250
 2026W        W17643   2.941  10.886  12.875  0.1512 -0.0536 -0.3976
 2027W        W17644  17.377  16.173  10.326 -0.2251  0.3381 -0.0740
 2028W        W17645   4.889  12.461   1.114  0.1836  0.2437  0.0487
 2029W        W17646  15.477  19.006   0.596  0.3039  0.1544 -0.0575
 2030W        W17647  10.301   6.919   0.093 -0.0124 -0.1618 -0.2056
 2031W        W17648  16.027  18.971   5.994  0.0946 -0.1910 -0.0118
 2032W        W17649   1.554   0.947  14.581  0.0834 -0.0749 -0.0001
 2033W        W17650   6.106  18.212  14.717 -0.0400  0.1329  0.1799
 2034W        W17651  11.293  13.399   3.833  0.2094  0.0656 -0.4491
 2035W        W17652  16.040  10.899  13.441 -0.1825  0.2786 -0.0885
 2036W        W17653  10.020   0.268   1.811 -0.1446 -0.3621 -0.0089
 2037W        W17654  16.741  15.246   3.326  0.0043 -0.2844 -0.1266
 2038W        W17655   9.238  10.413   1.542 -0.0942  0.1512 -0.1703
 2039W        W17656   5.781   6.943   4.015 -0.1113  0.1482 -0.1222
 2040W        W17657   7.317  16.046  13.143  0.1203  0.2539 -0.1433
 2041W        W17658   0.014  15.958  12.705  0.0695  0.1387  0.1950
 2042W        W17659  14.321   3.015   4.692  0.2194 -0.1615  0.0609
 2043W        W17660  13.815   6.735   0.936  0.4588 -0.1584 -0.1197
 2044W        W17661   6.719  14.138  10.632 -0.1437  0.0388  0.0082
 2045W        W17662   5.966  17.394   3.742 -0.2620 -0.3460 -0.2688
 2046W        W17663   9.108   9.692   0.834  0.2317 -0.0169  0.0747
 2047W        W17664  10.374   8.985  13.990 -0.1671 -0.0860 -0.3309
 2048W        W17665  11.646   4.831  14.657 -0.1440 -0.0667  0.3658
 2049W        W17666  11.280   7.141  11.852  0.1210 -0.0194 -0.2450
 2050W        W17667   5.320  17.007  11.417  0.2761  0.1290  0.2625
 2051W        W17668   0.290   7.409  14.687  0.0350  0.0478 -0.2870
 2052W        W17669   6.542   0.441  14.071  0.1784 -0.1070  0.1335
 2053W        W17670   2.834   5.820   1.571 -0.1424  0.2213  0.2017
 2054W        W17671   7.461  18.255   0.615 -0.2342  0.0777 -0.2178
 2055W        W17672  13.367  16.157   0.177  0.1993 -0.2392  0.0690
 2056W        W17673  16.312  16.308  14.260 -0.1907  0.0934 -0.2338
 2057W        W17674   6.281  12.838   2.976  0.0486 -0.0028 -0.4128
 2058W        W17675  13.884   3.333   3.727 -0.1810 -0.3724  0.0999
 2059W        W17676  12.817   3.969   2.385  0.0982 -0.1761 -0.1045
 2060W        W17677  18.963   2.995  12.109  0.1084 -0.0634  0.0122
 2061W        W17678   7.653  13.469  15.248 -0.1538 -0.0461  0.1336
 2062W        W17679   2.621   8.538  11.150  0.1401 -0.2923  0.1414
 2063W        W17680  15.745  11.186  10.788  0.0666  0.0562 -0.0857
 2064W        W17681  13.332   3.287   5.154  0.2479 -0.1916 -0.2383
 2065W        W17682  17.410  10.395  11.834  0.2531 -0.3391 -0.0242
 2066W        W17683  16.704   2.771  13.305 -0.1046  0.0429  0.1634
 2067W        W17684   8.586   9.850   3.775  0.0911 -0.0984 -0.0271
 2068W        W17685  13.147   2.648  11.182  0.5552  0.1356 -0.0635
 2069W        W17686  12.495   5.054  15.176 -0.1170 -0.2365  0.0184
 2070W        W17687  14.482   3.489   2.953  0.0055  0.1214 -0.1019
 2071W        W17688   8.707   1.832   3.025 -0.1004  0.2343 -0.1641
 2072W        W17689  13.140   8.957  10.602  0.0392 -0.1298 -0.1122
 2073W        W17690  15.543  15.111  10.448 -0.3447 -0.0748 -0.0064
 2074W        W17691   0.352   2.354   4.696 -0.2677 -0.0159 -0.2212
 2075W        W17692  15.609  16.291  10.811  0.0257 -0.4716  0.1033
 2076W        W17693  16.290   7.793  13.766  0.1896 -0.0850  0.0018
 2077W        W17694  10.598   5.684  10.236 -0.1006 -0.2531 -0.1455
 2078W        W17695  17.367   7.846   2.144 -0.0415  0.2013  0.3579
 2079W        W17696  16.145   7.757   2.780 -0.0515 -0.1716 -0.0264
 2080W        W17697   7.685   5.939   5.023  0.1857 -0.1405  0.3786
 2081W        W17698  15.656   2.628   2.602 -0.0160 -0.0875 -0.3777
 2082W        W17699   8.416   0.381  10.573  0.2143  0.0479 -0.1478
 2083W        W17700   6.696   0.156   2.933  0.1847 -0.1514 -0.4428
 2084W        W17701   9.878   2.367   3.788 -0.0207 -0.0222  0.1833
 2085W        W17702  16.668  17.151   0.813  0.2950  0.1576  0.1951
 2086W        W17703  11.739   9.753   3.132  0.0542  0.0722  0.2445
 2087W        W17704   4.081   3.891   9.739 -0.2543 -0.0863  0.0405
 2088W        W17705   3.545   0.207   0.263 -0.2081  0.0427  0.0085
 2089W        W17706  15.810  10.207  11.369 -0.1361 -0.5386  0.0214
 2090W        W17707   8.224  10.076   0.836  0.5652  0.1475  0.1336
 2091W        W17708   9.667   0.741  11.610 -0.1009 -0.1894  0.0576
 2092W        W17709  17.070  16.409   3.453  0.0355  0.0723 -0.2480
 2093W        W17710   3.418  16.656  12.644 -0.1442 -0.0199 -0.1450
 2094W        W17711  18.459  11.082   5.246  0.1467  0.0241 -0.1582
 2095W        W17712   0.737   8.212   5.414  0.1689 -0.0426 -0.2498
 2096W        W17713  14.740   7.495   2.881 -0.5424  0.1932 -0.0288
 2097W        W17714   9.579   5.507   4.660  0.0930  0.1436  0.2218
 2098W        W17715   3.527  11.752  11.636  0.0435  0.1727  0.2415
 2099W        W17716  18.650  16.207  12.442  0.1488  0.1860 -0.3393
 2100W        W17717  10.029   7.383  12.549  0.1851  0.0942  0.3586
 2101W        W17718  17.859  18.894   4.227  0.1317  0.1505  0.0757
 2102W        W17719  10.458  16.467  12.936  0.2969  0.2318  0.0864
 2103W        W17720  18.092   8.681   0.137  0.0999  0.1154  0.0531
 2104W        W17721   2.900   7.504   4.762  0.0494 -0.3062  0.2107
 2105W        W17722   6.768  15.726  11.436 -0.3578 -0.0326  0.0973
 2106W        W17723  16.584   9.922  11.231 -0.1903 -0.3534  0.0285
 2107W        W17724  18.482  12.147  11.362  0.3036 -0.1443  0.0552
 2108W        W17725   9.764  15.772   2.855 -0.1867 -0.1792  0.2720
 2109W        W17726  18.234   1.747  11.894  0.1422  0.2398  0.2331
 2110W        W17727   0.434   8.870  14.728 -0.2116 -0.1383 -0.0179
 2111W        W17728   9.715  12.268   0.180  0.1055 -0.5134 -0.1275
 2112W        W17729   9.613  13.046   2.233 -0.3834  0.0949  0.1892
 2113W        W17730   3.214  14.494   5.309 -0.2420 -0.2151  0.1334
 2114W        W17731   2.547   4.058   2.776  0.1571 -0.1790  0.2562
 2115W        W17732  10.619  17.374   1.252  0.3827  0.0105  0.1964
 2116W        W17733   7.486   4.212   5.326  0.1484 -0.0650 -0.0773
 2117W        W17734  17.828   5.948  13.975 -0.2375 -0.1502  0.0732
 2118W        W17735  17.926  10.415  11.920 -0.2351 -0.2062  0.4424
 2119W        W17736  18.388  15.823   1.115 -0.0700  0.1558 -0.0392
 2120W        W17737   2.823  12.282  14.802  0.2636  0.0496 -0.0258
 2121W        W17738   9.787  18.692   4.956 -0.0356 -0.0070 -0.2531
 2122W        W17739  14.503   0.310   4.163  0.2831  0.1217  0.0376
 2123W        W17740   5.553  12.668  11.847 -0.2842 -0.0715  0.0599
 2124W        W17741  17.801  15.033   4.073  0.1576  0.3147 -0.0341
 2125W        W17742  12.798  18.679  12.021  0.1417  0.0080  0.1635
 2126W        W17743   8.826  11.453   5.167 -0.0293  0.0279  0.1451
 2127W        W17744   4.740   1.425   4.532  0.0577 -0.0421  0.0637
 2128W        W17745   7.422   9.927   0.364 -0.0127 -0.2718 -0.3660
 2129W        W17746  15.926  14.562  13.097 -0.0750  0.0834  0.3728
 2130W        W17747   9.417  10.164   3.007 -0.0125 -0.0716  0.2922
 2131W        W17748  14.577   7.225   5.411  0.2506 -0.2072  0.0445
 2132W        W17749  17.223  14.186  14.751  0.0684 -0.0883 -0.4052
 2133W        W17750  11.860  14.020   0.740  0.1739 -0.4037  0.0300
 2134W        W17751   4.756   2.330  11.325  0.0486  0.0673 -0.3081
 2135W        W17752   7.020  18.191  14.558  0.0795  0.0860  0.0816
 2136W        W17753   7.587  13.022  13.870  0.1658  0.2392  0.2808
 2137W        W17754  13.911  15.415  15.074 -0.0128 -0.2423 -0.0975
 2138W        W17755   9.067  16.581   5.409  0.0538  0.0308  0.2670
 2139W        W17756  12.094   3.585   3.133 -0.1943  0.1766 -0.0453
 2140W        W17757   9.391   2.995   0.995  0.1414  0.0074  0.3000
 2141W        W17758  13.745  12.672  14.671  0.2441  0.1610  0.1153
 2142W        W17759   3.175  13.650   3.585 -0.0573  0.1496 -0.2753
 2143W        W17760  18.485   0.436  14.190 -0.1719 -0.0297 -0.1659
 2144W        W17761   8.509   1.392   3.437  0.3061  0.0825 -0.4121
 2145W        W17762  15.838  13.378   4.097 -0.5466 -0.0602 -0.1011
 2146W        W17763   5.408   2.714   1.635 -0.1128 -0.0607 -0.2194
 2147W        W17764   5.547   0.493   3.605 -0.1327  0.1542  0.3712
 2148W        W17765   9.852   7.132   0.832 -0.0453 -0.0851  0.1786
 2149W        W17766   1.099   9.948   0.203  0.0158  0.1943  0.2417
 2150W        W17767   9.533  18.134   1.604  0.0176  0.1389  0.0667
 2151W        W17768   8.792  13.425  12.566  0.4553  0.2797  0.2594
 2152W        W17769   5.524   4.910   2.289 -0.1296 -0.2780 -0.2693
 2153W        W17770  13.768   7.251   2.729  0.0689  0.0470 -0.0751
 2154W        W17771   3.318  18.606  13.925 -0.0230  0.0622 -0.1158
 2155W        W17772  10.594  16.490   5.342 -0.0166 -0.3259 -0.0091
 2156W        W17773   4.250  11.715  10.952  0.0639 -0.2289 -0.1449
 2157W        W17774  14.966  14.980  12.014 -0.2045 -0.1955  0.1217
 2158W        W17775  19.033  17.423   9.687  0.0543  0.0349 -0.4545
 2159W        W17776  14.669   7.878   5.367 -0.1389 -0.0315 -0.1386
 2160W        W17777   4.128   8.596   0.375 -0.3951  0.3819 -0.1317
 2161W        W17778  17.998   8.743  13.555  0.0379  0.0106  0.2712
 2162W        W17779  13.640   5.320  14.154  0.0136 -0.1393 -0.0557
 2163W        W17780  16.737   6.134   2.545 -0.0407 -0.1910 -0.0042
 2164W        W17781   3.436  17.740   0.192 -0.0085 -0.0355 -0.1215
 2165W        W17782  14.811   0.809   2.945 -0.3804  0.3426  0.2812
 2166W        W17783  11.172  17.074   5.400 -0.1724  0.1339  0.0245
 2167W        W17784  12.378   1.682   3.568 -0.1298 -0.1124 -0.0846
 2168W        W17785   1.812  15.274   0.045 -0.0848 -0.3354 -0.0687
 2169W        W17786  18.287  15.755  11.152 -0.0681  0.1027  0.3096
 2170W        W17787   4.290  17.116  13.116  0.1479 -0.1452 -0.0170
 2171W        W17788   9.612  15.089   3.496 -0.1673 -0.1700  0.0001
 2172W        W17789  11.778   3.381  12.868  0.1715  0.3740 -0.1352
 2173W        W17790  17.167  13.448   2.261  0.0366 -0.0816 -0.0061
 2174W        W17791  11.679   7.322  10.766  0.2605  0.2725  0.2372
 2175W        W17792  18.455  16.400  13.387  0.3486  0.3667  0.2314
 2176W        W17793   4.626   5.197  11.990  0.4752  0.0332  0.0567
 2177W        W17794   3.843  17.930  12.782  0.3126 -0.2078 -0.0584
 2178W        W17795  11.233  14.076  13.541 -0.0787  0.1560 -0.0986
 2179W        W17796   1.805  11.843   4.812  0.4320 -0.2292 -0.0501
 2180W        W17797  14.162  16.835   3.576 -0.3060 -0.0877  0.0053
 2181W        W17798   2.663  17.503  13.311  0.2925 -0.2184  0.0923
 2182W        W17799  10.250  12.602  11.231  0.2182  0.0411 -0.0155
 2183W        W17800   6.512  15.370  12.935 -0.3337  0.0438 -0.2648
 2184W        W17801  14.303   5.812   4.460 -0.0220 -0.2043 -0.0244
 2185W        W17802  11.725   1.486  14.935 -0.0393 -0.1867  0.1389
 2186W        W17803  14.707  14.916  12.434  0.1553 -0.2540 -0.1211
 2187W        W17804  13.672  12.174   2.499  0.0847  0.1599  0.1639
 2188W        W17805  12.015   6.760  14.035 -0.0335  0.2186 -0.1433
 2189W        W17806   5.658  13.111  13.979  0.1469  0.0817 -0.1110
 2190W        W17807  12.809  16.572   1.167 -0.0393  0.0351 -0.0637
 2191W        W17808  10.046   8.657   4.170 -0.2364 -0.3360  0.0040
 2192W        W17809  12.626  18.703  10.706 -0.1321 -0.1777 -0.0196
 2193W        W17810   3.145   1.983   1.963  0.2231 -0.1539 -0.1926
 2194W        W17811  15.329  17.080   3.032  0.0413 -0.1597  0.0454
 2195W        W17812   2.367   1.594  14.255 -0.3090  0.4242  0.0515
 2196W        W17813  17.261   1.408  12.278 -0.4074  0.0549 -0.2981
 2197W        W17814  17.702   9.706  13.590 -0.4457 -0.0090 -0.0748
 2198W        W17815   4.975   2.698  12.192 -0.3293 -0.0646 -0.3053
 2199W        W17816   7.117  10.207   5.089 -0.1930  0.0102 -0.1186
 2200W        W17817   2.242  16.229   0.037 -0.0568  0.2059  0.1901
 2201W        W17818  10.630   7.446   1.466  0.0818  0.0479  0.2574
 2202W        W17819  14.177   7.112  11.398 -0.2328  0.2152  0.0123
 2203W        W17820   0.541  15.916   1.987  0.1708  0.0669  0.2217
 2204W        W17821  15.552  11.590  11.496 -0.0140 -0.0462  0.2497
 2205W        W17822   7.866  13.887  12.280  0.0361 -0.1220 -0.0712
 2206W        W17823   2.274   4.548   5.274 -0.3828  0.0100 -0.0394
 2207W        W17824  16.322   1.260   0.474 -0.1372  0.4065 -0.0165
 2208W        W17825   4.592  12.279   5.534 -0.4594 -0.1079  0.0172
 2209W        W17826  13.597  13.446  15.123  0.3291 -0.0722  0.3360
 2210W        W17827  18.669  13.202  11.088  0.1520  0.0992  0.1201
 2211W        W17828   9.644   3.045  12.460  0.1851  0.2512  0.0775
 2212W        W17829  18.597  13.079   0.570  0.1471 -0.2446 -0.0847
 2213W        W17830   1.295  13.378   2.761  0.0477 -0.2893  0.2030
 2214W        W17831   2.020   3.727   1.372 -0.0606  0.1695 -0.0574
 2215W        W17832  15.913   6.051  12.316 -0.4362 -0.2074  0.2322
 2216W        W17833  17.374  18.135   1.136 -0.0293  0.0186  0.2128
 2217W        W17834   3.623   2.717  10.590  0.0760 -0.0620 -0.2307
 2218W        W17835  11.936   1.328   4.899 -0.3355  0.0012 -0.0762
 2219W        W17836  13.968  15.745   1.138 -0.2931 -0.1390 -0.1843
 2220W        W17837  18.399  17.845   9.145 -0.2888 -0.1324 -0.1402
 2221W        W17838   2.509  10.484   2.333 -0.1705  0.1194 -0.0405
 2222W        W17839  19.026   7.769   0.552 -0.0334  0.2097 -0.0569
 2223W        W17840  15.774   5.768   3.076 -0.0843  0.0079  0.1914
 2224W        W17841   9.126  14.129  12.076  0.0714 -0.0603  0.2520
 2225W        W17842   8.293  16.534  14.152  0.1902 -0.1385  0.0822
 2226W        W17843   1.473   4.608   4.726  0.3548  0.0871  0.0134
 2227W        W17844   3.868  18.585  13.948 -0.0496 -0.0541  0.1859
 2228W        W17845  17.359  18.594  13.758  0.1801  0.0862 -0.2204
 2229W        W17846  13.773  18.599   4.206  0.1060 -0.0190 -0.1376
 2230W        W17847  12.281   1.279  12.504  0.0257 -0.2718  0.0883
 2231W        W17848  12.590  18.764   0.427 -0.2371 -0.1513  0.0342
 2232W        W17849  15.847  14.905  10.074  0.0013  0.0430  0.0206
 2233W        W17850   6.102  18.468   5.571 -0.1252 -0.0958 -0.1162
 2234W        W17851   8.467   5.991  12.660  0.2900  0.0035  0.1343
 2235W        W17852  14.613   2.645   4.523  0.0724 -0.0511 -0.0603
 2236W        W17853   0.749   1.300   2.953  0.3170  0.1734  0.0408
 2237W        W17854   2.452   7.463  11.663  0.2064  0.1679 -0.2720
 2238W        W17855   4.129  15.121   0.625 -0.2265  0.0266 -0.3503
 2239W        W17856   1.884  14.391   0.171  0.1653  0.0321  0.2123
 2240W        W17857   3.054   1.199   3.238  0.1224  0.3763  0.0054
 2241W        W17858  10.485   7.165   1.889  0.3156 -0.2170 -0.2365
 2242W        W17859  13.572  18.142   3.994 -0.0772  0.3718 -0.1704
 2243W        W17860  12.680   3.397   5.291  0.1338 -0.0299 -0.0141
 2244W        W17861  13.688  18.623   3.286  0.1923 -0.0613 -0.1956
 2245W        W17862   5.675  16.241  11.001  0.0613  0.1957  0.1580
 2246W        W17863   8.098   8.792   3.184  0.4828  0.1251 -0.0742
 2247W        W17864   4.257   3.269   1.113  0.4292 -0.0380 -0.2396
 2248W        W17865   8.913   0.331  14.292  0.1739  0.0253  0.1850
 2249W        W17866   9.347  15.534  14.799  0.1154  0.1896  0.2869
 2250W        W17867   6.366   5.936  13.331  0.0121  0.1091 -0.0145
 2251W        W17868   4.744   4.786  14.616 -0.2112  0.0815 -0.0662
 2252W        W17869   8.952   3.081   0.020 -0.1773 -0.2250  0.2737
 2253W        W17870   7.682   1.030  11.974  0.0446  0.2224  0.1606
 2254W        W17871   8.977  17.034  15.224 -0.2581  0.1993  0.3884
 2255W        W17872  14.482  14.963   3.562 -0.1354  0.2234 -0.0053
 2256W        W17873   2.354   3.061   2.731  0.0197  0.3448  0.1597
 2257W        W17874  16.261   0.859  14.311 -0.5230  0.1220 -0.0992
 2258W        W17875  17.449  16.518  10.668 -0.0423 -0.1157  0.2252
 2259W        W17876  11.552   4.688  10.025 -0.0633 -0.0408 -0.2662
 2260W        W17877  10.327  17.068  10.644 -0.0139  0.0941  0.1261
 2261W        W17878  14.913   7.430   0.649  0.0169 -0.1761 -0.2615
 2262W        W17879  17.564   2.917   3.833  0.0669 -0.1466  0.0479
 2263W        W17880   5.849  13.400  11.220  0.2582  0.1493  0.0784
 2264W        W17881  12.646   5.732   4.790 -0.0256  0.2391 -0.0836
 2265W        W17882  13.071  17.514  14.322  0.5124  0.2814  0.1121
 2266W        W17883   9.018  10.238  12.652  0.3377 -0.0846 -0.1312
 2267W        W17884  15.816   8.805   3.728 -0.0100 -0.0167 -0.0865
 2268W        W17885  14.558   8.754  10.719  0.1956 -0.0168 -0.2138
 2269W        W17886   9.035  14.355  13.661 -0.0777 -0.0687  0.0467
 2270W        W17887  17.753   5.351  13.251 -0.0856 -0.1990  0.0437
 2271W        W17888   8.989  15.888  12.328  0.4163  0.3416  0.1935
 2272W        W17889  15.425   6.382  13.218  0.2144 -0.0101  0.0301
 2273W        W17890   9.409  17.955   4.337  0.1146  0.1071  0.2454
 2274W        W17891  17.440  17.438  11.415 -0.0901  0.2156  0.1187
 2275W        W17892   1.001   9.012   2.029  0.0681 -0.1220 -0.0037
 2276W        W17893  10.001   6.320   5.956 -0.2495 -0.1660  0.1284
 2277W        W17894  18.230   9.720   0.542 -0.0643  0.1355  0.1307
 2278W        W17895   1.538  15.962   1.159  0.3445 -0.0468 -0.3024
 2279W        W17896  15.092  11.142  13.286  0.3182 -0.0061  0.0084
 2280W        W17897   5.273   1.903  13.798 -0.4875  0.2006 -0.2367
 2281W        W17898  12.263   8.861   2.270 -0.2690 -0.1148  0.1724
 2282W        W17899   8.934  13.443   1.985  0.0201 -0.0316 -0.4378
 2283W        W17900   6.398  11.948  13.263 -0.1050 -0.1454  0.0216
 2284W        W17901   1.829   3.741   4.292 -0.0448  0.0499  0.1407
 2285W        W17902  15.406   9.643  11.948  0.0922  0.1950 -0.1380
 2286W        W17903   8.468  11.972  12.408  0.2004  0.1092  0.1999
 2287W        W17904  16.547   6.289   3.425 -0.2884 -0.2483 -0.1069
 2288W        W17905  12.446   0.554  10.866 -0.1735 -0.1487  0.0227
 2289W        W17906   8.245  16.785   5.119  0.0486  0.0942 -0.1251
 2290W        W17907  18.695   6.622  13.606  0.0317 -0.2939 -0.1296
 2291W        W17908   1.147  10.282  11.187 -0.0581  0.1864 -0.1743
 2292W        W17909   8.605  17.411  12.219  0.1997 -0.2561 -0.4664
 2293W        W17910   2.081   6.837   1.636  0.0090 -0.0957  0.1093
 2294W        W17911  10.435  15.202  14.406 -0.2045 -0.1776  0.0780
 2295W        W17912   9.711  16.320   1.376  0.0132 -0.2718  0.2007
 2296W        W17913   9.573   2.338   4.704 -0.0295 -0.3536  0.0772
 2297W        W17914   3.835  17.038   2.962  0.0161 -0.1976 -0.3637
 2298W        W17915   2.524   3.514  15.250 -0.4532 -0.1731 -0.0415
 2299W        W17916   6.139   4.920   0.612  0.1530 -0.1593  0.5762
 2300W        W17917   3.963   9.863  11.274  0.2340  0.1313 -0.1456
 2301W        W17918   0.240  13.872   1.910 -0.1963  0.1991  0.4645
 2302W        W17919  15.020   7.635  11.276 -0.0647 -0.0887  0.0791
 2303W        W17920   4.434   4.971  13.019  0.0528 -0.0415 -0.0489
 2304W        W17921  12.226  12.639  14.662 -0.1037 -0.3031  0.1494
 2305W        W17922  10.902   7.862   2.897  0.4173  0.0035  0.2429
 2306W        W17923   7.342  15.552  13.938  0.2000 -0.0442 -0.1632
 2307W        W17924   8.366  12.798  14.851  0.0401  0.0181 -0.0094
 2308W        W17925  18.303  16.551   9.937 -0.3160 -0.1974 -0.2504
 2309W        W17926   9.491  15.608   0.001 -0.2244 -0.2056  0.1052
 2310W        W17927   6.122   0.314   0.267 -0.0722  0.2616 -0.2119
 2311W        W17928   2.470   0.450   5.770 -0.0527  0.1372 -0.1756
 2312W        W17929   4.435  15.501  12.144  0.1476  0.0003  0.0197
 2313W        W17930  15.040   9.687   5.165 -0.0001  0.2036 -0.1638
 2314W        W17931  17.463  16.872  14.933  0.0627 -0.4173  0.4372
 2315W        W17932   8.670  11.665   2.825  0.2914  0.1351 -0.3137
 2316W        W17933   4.079   1.395  13.130 -0.0529  0.2125  0.0666
 2317W        W17934   6.136  10.351  15.283  0.3823 -0.3216 -0.2041
 2318W        W17935  14.466  11.740  13.224  0.1014  0.0320  0.0315
 2319W        W17936  15.419   2.347   2.898 -0.1635  0.2017  0.2159
 2320W        W17937  14.435  12.799   3.995 -0.2812  0.0263 -0.0159
 2321W        W17938   9.260  11.240   3.992 -0.0013 -0.0534  0.0609
 2322W        W17939   5.797   4.429  15.282  0.1509 -0.0419 -0.0790
 2323W        W17940   0.810   0.804   0.454 -0.2307  0.0560  0.0365
 2324W        W17941   6.998   3.717  12.596  0.2693  0.0578  0.1385
 2325W        W17942  14.717  10.180   3.880  0.0759 -0.4179  0.2643
 2326W        W17943   5.794   6.544  11.333  0.3473  0.1286  0.1605
 2327W        W17944   8.745   9.176   1.617 -0.3503  0.1284 -0.3755
 2328W        W17945  15.201   6.967  11.455 -0.1977  0.0230  0.4765
 2329W        W17946   6.196  16.567   2.787  0.1502 -0.0254 -0.1304
 2330W        W17947  16.524  14.148   4.033  0.1489 -0.0167 -0.6159
 2331W        W17948   8.920  11.759  14.932  0.3983  0.2057 -0.0001
 2332W        W17949   5.755   4.386  11.344 -0.1934 -0.1241 -0.1129
 2333W        W17950   7.788   3.793  13.504  0.0320 -0.1618 -0.1893
 2334W        W17951   8.352   0.573  11.125 -0.1961  0.1215 -0.3162
 2335W        W17952  18.371  14.871  10.379 -0.0257 -0.0434  0.0470
 2336W        W17953   2.237   0.442   3.967  0.2464 -0.0136  0.2289
 2337W        W17954   2.315   8.283  12.279 -0.3179 -0.5825 -0.2931
 2338W        W17955  17.607  11.540  13.037  0.1743 -0.0273 -0.3463
 2339W        W17956   1.891   1.036  13.610 -0.4556 -0.0575  0.0541
 2340W        W17957   9.602  18.523  13.772  0.2769 -0.1237  0.0626
 2341W        W17958   2.786  18.979  14.640  0.0316 -0.0277  0.0392
 2342W        W17959  13.632  10.054   0.944 -0.0786 -0.0941  0.1924
 2343W        W17960  11.095  16.232  14.863 -0.0224 -0.0029  0.3817
 2344W        W17961  18.809   8.505   4.326 -0.0469  0.1981  0.0641
 2345W        W17962   1.574   3.555   2.051  0.1252 -0.1688  0.0179
 2346W        W17963  10.825  14.240   2.208  0.2744 -0.3075 -0.1016
 2347W        W17964  16.755   8.563  13.895  0.0895 -0.1062 -0.0030
 2348W        W17965   7.474  15.551   5.123 -0.0963  0.0416 -0.3758
 2349W        W17966  15.336  18.381  11.911 -0.2397  0.0460  0.0670
 2350W        W17967  14.066   4.663   3.960  0.0001  0.2016  0.2607
 2351W        W17968  17.866   3.500   1.942 -0.1471 -0.0505 -0.4008
 2352W        W17969   0.442  16.069   4.336 -0.3255  0.2726  0.0800
 2353W        W17970   2.025   8.664   5.933 -0.0527  0.1657  0.1468
 2354W        W17971  13.739   9.302   9.892  0.0816  0.0418  0.2770
 2355W        W17972  18.541   6.963  11.153 -0.1995  0.0951 -0.3650
 2356W        W17973  12.138   7.183  13.753  0.1244  0.1521  0.3169
 2357W        W17974   2.809  10.736   2.673  0.3643 -0.3151 -0.2180
 2358W        W17975   3.167   1.451  11.534  0.0318  0.3953 -0.0007
 2359W        W17976  16.608  13.745   4.533 -0.2138  0.0624  0.0667
 2360W        W17977  14.693   3.490  14.194  0.0649 -0.0910 -0.1083
 2361W        W17978  17.418   0.768  10.563  0.0052  0.2453 -0.3170
 2362W        W17979   0.153  15.374  10.916 -0.2894  0.1271  0.2268
 2363W        W17980   4.565  18.692   1.840 -0.0439 -0.3115  0.0857
 2364W        W17981   3.667   8.782  13.018  0.3536 -0.1933  0.3499
 2365W        W17982  17.398  11.373   1.288 -0.0802  0.1334 -0.0696
 2366W        W17983  17.291  15.177  14.177  0.0788 -0.0693 -0.0267
 2367W        W17984  15.172  14.601   2.714  0.1137 -0.0740  0.0189
 2368W        W17985   3.632   5.687   0.366  0.2229 -0.2403  0.1927
 2369W        W17986  17.975  10.618  13.292 -0.5708 -0.1371  0.1453
 2370W        W17987   0.136  11.348   1.753 -0.1368  0.1992 -0.1250
 2371W        W17988  17.327   5.789   0.513 -0.1236 -0.2162 -0.2181
 2372W        W17989   2.532   6.383  12.748  0.0895 -0.2222  0.0004
 2373W        W17990   2.033   1.306   2.826 -0.3222 -0.1024 -0.0043
 2374W        W17991  16.658   1.618   3.430  0.1450  0.2514  0.1651
 2375W        W17992   9.538   0.941   1.759  0.2098  0.1518  0.0933
 2376W        W17993   0.924   1.392   4.326  0.0881  0.1220  0.0310
 2377W        W17994   8.984   8.310  11.414 -0.1313  0.1155 -0.1370
 2378W        W17995   1.890   0.193  13.679  0.1009  0.0197  0.2812
 2379W        W17996  12.666   3.492   1.879  0.0835  0.1898  0.1302
 2380W        W17997  12.503  15.998   3.827 -0.0611 -0.0714  0.1174
 2381W        W17998  14.286  10.631   2.712  0.1239 -0.2783  0.1668
 2382W        W17999   1.143   9.075   0.140  0.1386 -0.0338  0.2731
 2383W        W18000  15.416  10.715  14.779  0.2143  0.0971 -0.1449
 2384W        W18001   2.632  18.311   4.031  0.0608  0.2758  0.0401
 2385W        W18002   8.192   1.095  14.472 -0.1493  0.0975  0.0594
 2386W        W18003   1.706   6.394   5.914 -0.5074  0.1736 -0.3042
 2387W        W18004   5.621   5.220  11.810 -0.1318  0.2482  0.1140
 2388W        W18005   3.385  15.257   2.664 -0.0979  0.2873  0.1960
 2389W        W18006  12.822   7.968  12.125 -0.0159 -0.0130 -0.1777
 2390W        W18007   9.731  17.939   3.419 -0.2492 -0.0547  0.0631
 2391W        W18008   3.802  16.286   5.080 -0.2479  0.2123  0.2111
 2392W        W18009   4.596  13.867  13.173 -0.0499 -0.1463 -0.0018
 2393W        W18010   6.034   3.358  11.746 -0.2037 -0.1919  0.1046
 2394W        W18011   2.616   4.103  15.073  0.0507  0.0371  0.1558
 2395W        W18012   3.970  16.469  10.256  0.1653  0.3212 -0.2536
 2396W        W18013  14.766   6.653   1.337 -0.1059 -0.0509  0.1968
 2397W        W18014   5.341   9.091  12.056  0.2360 -0.0533 -0.0965
 2398W        W18015  11.914   1.839  13.127 -0.2767  0.1585 -0.4124
 2399W        W18016   1.779   4.360  13.862  0.3410  0.0830  0.3025
 2400W        W18017   4.505  13.418   4.678  0.2199  0.0648  0.2798
 2401W        W18018  16.225  12.206  11.486 -0.1260 -0.1941  0.3537
 2402W        W18019   5.329   5.346   1.440 -0.1008  0.2937  0.4378
 2403W        W18020  13.101  12.133   3.341 -0.0680  0.0381 -0.3150
 2404W        W18021  13.152   7.715  14.138  0.0246  0.2340  0.2395
 2405W        W18022   1.241  13.673   1.339 -0.1896 -0.0269 -0.0936
 2406W        W18023  10.375   8.058  14.085 -0.1523 -0.2889  0.2827
 2407W        W18024   3.935   0.175   3.533  0.0191  0.6122  0.3483
 2408W        W18025   1.953   8.766  13.866  0.4972  0.2264 -0.3988
 2409W        W18026  15.391  16.815   3.555 -0.0726 -0.0303  0.0469
 2410W        W18027  15.966  13.303  13.353 -0.0007 -0.2859 -0.0950
 2411W        W18028  12.814  16.444  11.649 -0.0174 -0.0808  0.0051
 2412W        W18029   3.891  13.514   0.011  0.1601 -0.0842  0.0123
 2413W        W18030   3.226  12.146   1.084  0.0748  0.1255  0.2486
 2414W        W18031  17.273  10.711  12.922 -0.2049  0.0115  0.3713
 2415W        W18032  13.740  14.654   4.161 -0.0822  0.0157 -0.1469
 2416W        W18033  11.034   9.796  12.959 -0.1666 -0.3706 -0.2027
 2417W        W18034  10.486   7.280  14.527 -0.1695 -0.2491 -0.2655
 2418W        W18035  16.134  16.978   2.018  0.1483 -0.1337  0.0318
 2419W        W18036   5.429   7.409  14.218 -0.1212  0.2429  0.0861
 2420W        W18037   0.769   4.852   5.425  0.1838  0.2081 -0.3730
 2421W        W18038  16.615   2.139   0.276 -0.0513  0.4373 -0.3765
 2422W        W18039   6.953   6.520   2.353  0.1131  0.1843 -0.1038
 2423W        W18040   2.195  16.985  11.923  0.0254 -0.0928  0.1410
 2424W        W18041   3.306   0.010   2.532 -0.2749  0.0110 -0.1061
 2425W        W18042  13.380  17.189   0.034  0.1380 -0.1336  0.4392
 2426W        W18043   7.395   9.750  14.405  0.3494 -0.2801 -0.1823
 2427W        W18044   3.711   2.596   0.865 -0.0861  0.0396  0.0932
 2428W        W18045   3.882   6.601   1.430  0.1153 -0.3131  0.3027
 2429W        W18046  12.205   3.467  11.740 -0.0974  0.1836 -0.0920
 2430W        W18047  17.010  14.675   2.436  0.2885 -0.2147  0.1154
 2431W        W18048   8.393   9.132  14.671 -0.0171  0.1711  0.0483
 2432W        W18049   2.334  14.266  13.818  0.0338 -0.2056 -0.0576
 2433W        W18050   7.236   5.806   3.687 -0.0401  0.5182  0.1429
 2434W        W18051   4.897   2.245   0.319 -0.3148 -0.2422  0.2883
 2435W        W18052   2.125  11.930   4.454 -0.0209  0.3235  0.2874
 2436W        W18053  12.664  17.792  11.266 -0.0045 -0.3676  0.0155
 2437W        W18054  18.831   9.597  13.492  0.2154 -0.2455 -0.1889
 2438W        W18055  13.969  15.681   5.566  0.0655 -0.2943 -0.2045
 2439W        W18056  18.103  10.738   2.333 -0.2526  0.1786  0.0268
 2440W        W18057  12.681   7.770   4.300  0.1516  0.0579 -0.1858
 2441W        W18058  15.001   7.366   1.138  0.2670 -0.1824 -0.2246
 2442W        W18059   0.416  18.061  11.905 -0.0260 -0.0776 -0.0406
 2443W        W18060   0.979  14.461  11.968  0.1341  0.0873  0.0764
 2444W        W18061  15.138   8.508   1.549 -0.0724 -0.2124  0.2389
 2445W        W18062   8.953  12.558   1.667  0.3624 -0.1254 -0.2647
 2446W        W18063  16.435   5.993  12.423 -0.1682  0.2785  0.1937
 2447W        W18064   3.246   4.305  10.983  0.0727  0.0188 -0.1118
 2448W        W18065  11.192   8.136  14.906  0.2577 -0.1493 -0.0774
 2449W        W18066  13.937  13.959  13.732 -0.0895  0.1406  0.1356
 2450W        W18067   2.991  18.003   2.502  0.1052  0.0222 -0.1072
 2451W        W18068  16.447   7.259   4.457  0.1180  0.2941 -0.2737
 2452W        W18069   8.469  17.390   1.351 -0.2368 -0.0043  0.2013
 2453W        W18070   3.317   4.916  13.133  0.0097  0.1183  0.0144
 2454W        W18071   7.499   9.422   0.417 -0.1241  0.1876 -0.1094
 2455W        W18072  12.946  16.805   4.113 -0.2878 -0.0231  0.0900
 2456W        W18073   5.716  14.133   4.277  0.5102  0.1975  0.1239
 2457W        W18074   8.584  10.300   2.990 -0.3718  0.3332  0.1941
 2458W        W18075  10.920   5.950   2.602 -0.1578  0.1325 -0.2327
 2459W        W18076   9.973   0.798  12.378 -0.4727  0.1863 -0.1242
 2460W        W18077   3.116   2.411   2.290  0.0798  0.0246 -0.0196
 2461W        W18078  10.835   9.006   1.570 -0.3596  0.0500  0.1511
 2462W        W18079  10.830  12.023  12.755 -0.4980 -0.0631 -0.2849
 2463W        W18080   1.474  10.290  13.516  0.0907  0.1071  0.0961
 2464W        W18081   2.647   3.168  11.571 -0.1304  0.2450  0.3039
 2465W        W18082  14.587  11.802   1.380 -0.0645 -0.0192 -0.2167
 2466W        W18083  15.400  14.522   4.510  0.1903  0.0528  0.1236
 2467W        W18084   0.024  18.186  13.093 -0.1378 -0.0432  0.2977
 2468W        W18085   0.369  17.467   1.124 -0.2038 -0.1633 -0.0156
 2469W        W18086  12.652   3.836  15.189  0.2372 -0.2006  0.1933
 2470W        W18087  18.177   4.222   3.974  0.0847  0.2105  0.0220
 2471W        W18088  16.483   6.012   1.725 -0.2927  0.1668 -0.1309
 2472W        W18089   7.836   8.355   2.956 -0.0280  0.1159  0.0899
 2473W        W18090   0.389   8.787  12.027  0.2400  0.2216 -0.2630
 2474W        W18091  15.251  16.254   5.427  0.0257  0.1014 -0.0760
 2475W        W18092  11.313   8.055  11.348  0.0889 -0.0746  0.0045
 2476W        W18093   8.724   5.636   1.052 -0.0388  0.1906  0.2204
 2477W        W18094  15.314  14.703  11.765 -0.0721 -0.1664 -0.2226
 2478W        W18095   8.636   4.863  14.718  0.2120  0.1141  0.0163
 2479W        W18096  14.868   0.456   0.200 -0.2293 -0.4379  0.1015
 2480W        W18097   4.961   5.535   0.443  0.2871  0.2272  0.1615
 2481W        W18098  13.758  13.072  11.072 -0.2829  0.1113  0.0501
 2482W        W18099  18.904  10.143  10.758  0.2925 -0.1513 -0.0734
 2483W        W18100   4.113  18.398   2.833 -0.0338  0.0903  0.1173
 2484W        W18101  14.813   0.542   4.461  0.0055 -0.3348  0.3363
 2485W        W18102  19.022  17.582  13.697  0.0980  0.2303 -0.0594
 2486W        W18103   9.941  18.888   3.309 -0.0915  0.0916  0.3247
 2487W        W18104  14.301  12.186   1.818  0.3328  0.2253 -0.3525
 2488W        W18105   3.842  18.945  14.805 -0.0652  0.0562  0.0182
 2489W        W18106  12.829   0.634   4.432 -0.1319  0.0118  0.1506
 2490W        W18107  14.336  10.388  10.511 -0.1200  0.1266 -0.0819
 2491W        W18108  10.466   2.325   0.587 -0.1113 -0.1955 -0.0813
 2492W        W18109   1.359  18.879   3.427  0.0729 -0.0642 -0.0901
 2493W        W18110   7.079  13.512   0.055  0.1789  0.1833 -0.0553
 2494W        W18111  14.355  17.793  14.808  0.3410 -0.3508  0.1289
 2495W        W18112  13.314  13.137  14.891  0.1794  0.2746 -0.3173
 2496W        W18113   1.247  11.334   1.086 -0.2905 -0.1956  0.0087
 2497W        W18114   0.263  16.549  10.826  0.1688  0.1450 -0.1331
 2498W        W18115  12.956   8.194  11.207  0.1627 -0.2555  0.0542
 2499W        W18116   3.897   2.728  13.813  0.2222  0.2972 -0.1592
 2500W        W18117   3.578  15.493   5.650  0.2034 -0.2984 -0.3010
 2501W        W18118  11.428   7.923  14.200  0.2068 -0.1138 -0.2614
 2502W        W18119  14.776   4.874   3.397  0.1093  0.1429  0.2064
 2503W        W18120  14.234  18.968   4.073  0.2388 -0.0093 -0.0307
 2504W        W18121   9.860   1.514   4.868  0.1332  0.0225 -0.2597
 2505W        W18122   9.528  12.472  13.645 -0.2529 -0.2465  0.2845
 2506W        W18123  14.273  14.338   0.936  0.2922  0.2060 -0.0979
 2507W        W18124   0.079  18.580   0.337  0.1695 -0.1064  0.0641
 2508W        W18125   9.528   4.400  12.612  0.4072 -0.0546  0.0602
 2509W        W18126   9.710   4.960   4.623  0.1604  0.0558  0.0902
 2510W        W18127  15.726  18.667   1.161 -0.0389  0.2513  0.4486
 2511W        W18128  13.816   1.826  12.583  0.0698 -0.4378 -0.1987
 2512W        W18129  10.548   7.993   1.633 -0.4105 -0.2955  0.1191
 2513W        W18130   8.827  12.446  11.082 -0.1816  0.2076  0.0459
 2514W        W18131  10.566  13.180   1.329 -0.2216 -0.1338 -0.3155
 2515W        W18132   2.288  12.281   3.841 -0.0780 -0.2037  0.0966
 2516W        W18133  13.525  14.024  12.688 -0.0954  0.0105  0.5283
 2517W        W18134  14.887  16.809   3.817 -0.0764 -0.1771  0.1150
 2518W        W18135   7.788  15.481   0.891 -0.0054 -0.1959 -0.0864
 2519W        W18136  14.055   9.517  12.989  0.0901  0.1606 -0.3157
 2520W        W18137   8.558   0.346   0.218 -0.2139 -0.0018  0.0630
 2521W        W18138   1.212   5.659   2.664 -0.0105  0.2000  0.0399
 2522W        W18139   7.313   8.767   9.780 -0.1959 -0.3232 -0.3556
 2523W        W18140   4.666   6.802   4.479  0.0811 -0.4183 -0.4207
 2524W        W18141  14.360  12.271  13.249  0.4895 -0.1359  0.1985
 2525W        W18142  12.540  18.309  11.511 -0.4329  0.3080  0.1431
 2526W        W18143   5.651  12.891   1.710 -0.0800  0.0819  0.0621
 2527W        W18144   9.359  17.620  13.332 -0.1043 -0.3790 -0.4542
 2528W        W18145  15.380   8.607   4.285 -0.2987 -0.3029 -0.3867
 2529W        W18146   0.727   0.307   0.152 -0.0732  0.1615  0.2727
 2530W        W18147  13.057  17.280  12.795 -0.1184 -0.0585 -0.3967
 2531W        W18148  11.651   8.808  10.656 -0.3286 -0.1900 -0.0625
 2532W        W18149   9.776   7.755  11.201  0.0639 -0.0705 -0.0381
 2533W        W18150  12.503   1.978  15.119  0.2604 -0.2245  0.0421
 2534W        W18151  16.126   9.604  14.682 -0.1667 -0.0581  0.1973
 2535W        W18152  17.901   9.279   5.074 -0.0453 -0.1573  0.1235
 2536W        W18153  12.323  16.508  13.516  0.3406 -0.0728 -0.0144
 2537W        W18154   7.561  13.577  11.402  0.0108  0.2541 -0.1152
 2538W        W18155  18.530  12.760   0.158  0.2211 -0.0021  0.0655
 2539W        W18156   4.309   0.194   3.826  0.0541  0.0949 -0.1228
 2540W        W18157  17.167   2.964  13.110 -0.1467 -0.1457 -0.2336
 2541W        W18158   3.929  17.822   5.283  0.0184 -0.2571  0.0425
 2542W        W18159  12.292   8.787   0.143 -0.1016 -0.3246 -0.0709
 2543W        W18160  16.259  11.025  10.951  0.3059 -0.3606 -0.2432
 2544W        W18161  17.409  13.245   3.669  0.5885  0.0935  0.0643
 2545W        W18162   1.328  17.889   0.128  0.4004  0.0140  0.1224
 2546W        W18163   9.685  11.110  10.868 -0.1373 -0.2274 -0.0369
 2547W        W18164  11.501   9.947   4.804 -0.1931  0.1027 -0.1503
 2548W        W18165   5.802   3.545   0.394  0.3204  0.1071 -0.0933
 2549W        W18166   3.754  11.280  13.924  0.1058  0.1247  0.0211
 2550W        W18167   0.201  11.665   4.804  0.0075  0.1133  0.1472
 2551W        W18168  13.616   7.056   5.689  0.0622  0.4696  0.1783
 2552W        W18169   3.058  13.625  13.334 -0.1056  0.0263  0.1407
 2553W        W18170   1.289  17.452  15.034  0.0724 -0.2495 -0.0930
 2554W        W18171   1.955  15.926   4.777 -0.1940  0.1253 -0.1511
 2555W        W18172  14.414   4.009  12.663  0.1482 -0.0185  0.1155
 2556W        W18173   8.903  10.823  11.137 -0.0744  0.0668  0.2354
 2557W        W18174  18.816   2.816  14.677 -0.0263 -0.2599  0.2198
 2558W        W18175   5.514  16.243   3.154 -0.0196  0.2267  0.2693
 2559W        W18176   6.719   4.434   1.112 -0.1912  0.0055 -0.3813
 2560W        W18177  16.882   2.980   4.416 -0.0114  0.1835 -0.3421
 2561W        W18178   9.486  15.387  13.071 -0.0445 -0.1816  0.0035
 2562W        W18179   9.796  16.145  11.173  0.1153  0.1978 -0.3530
 2563W        W18180   7.587  18.985  10.355  0.0592 -0.0957  0.0928
 2564W        W18181   7.507  18.064   2.633 -0.0688  0.0411 -0.2121
 2565W        W18182  18.974   6.991  12.219  0.1617 -0.1477  0.1918
 2566W        W18183   0.153  16.982   0.148 -0.0575  0.3721 -0.1895
 2567W        W18184  16.292  17.991  14.188 -0.1270  0.1212  0.2059
 2568W        W18185   8.231  11.555  13.707  0.1962  0.2683  0.1852
 2569W        W18186   6.230   4.719  14.963 -0.0375  0.0154  0.1032
 2570W        W18187   1.854   7.529   0.980 -0.2209  0.1326 -0.5077
 2571W        W18188   2.270   6.376  15.277  0.1352  0.2007 -0.0685
 2572W        W18189   1.307  17.083   3.753 -0.0467  0.1421 -0.1634
 2573W        W18190  16.730   1.241   5.022  0.1708  0.1951  0.0058
 2574W        W18191  17.453   6.645  11.870 -0.0425  0.0172 -0.2662
 2575W        W18192  12.133   6.270  13.955 -0.1082  0.0516 -0.0733
 2576W        W18193  15.448   7.680   3.568 -0.0664 -0.1164  0.2638
 2577W        W18194   8.926   5.383   1.739  0.2174 -0.0039  0.0733
 2578W        W18195  14.937  16.838  10.949  0.3343  0.0471 -0.0722
 2579W        W18196   8.861   4.932   9.171  0.2915 -0.1382 -0.1015
 2580W        W18197  12.814   5.820  13.361 -0.2403  0.0163 -0.3693
 2581W        W18198  16.986  14.288  13.748  0.1879 -0.1302 -0.3165
 2582W        W18199   9.061  15.476  13.856  0.1847 -0.0768  0.0905
 2583W        W18200   9.324  17.727  12.492  0.1659  0.0753  0.0968
 2584W        W18201  17.956  12.053  14.748  0.0934 -0.1867 -0.2575
 2585W        W18202  18.306  11.379  14.400 -0.1422 -0.0669  0.3955
 2586W        W18203  11.876   9.544   0.042 -0.0522  0.0983  0.0378
 2587W        W18204   1.634   8.617   4.502 -0.3602  0.3512  0.0050
 2588W        W18205  17.382  19.068  10.983  0.1333  0.0688  0.0662
 2589W        W18206   0.311   1.309   2.704  0.0667  0.1063  0.0031
 2590W        W18207   8.766  18.238   2.252 -0.0761 -0.4584 -0.1415
 2591W        W18208  10.444   8.820   3.453 -0.2070 -0.1012 -0.0116
 2592W        W18209  18.531   2.422  14.594  0.0693 -0.0012 -0.1657
 2593W        W18210  15.118  17.930  11.297  0.0123 -0.0510 -0.1955
 2594W        W18211  15.059   8.196   5.298  0.3547  0.0223  0.1525
 2595W        W18212   0.011   7.670  10.664 -0.0784  0.0091  0.2184
 2596W        W18213   7.653   8.727  11.238 -0.1034  0.0098  0.2584
 2597W        W18214  17.214   5.225  13.116 -0.1597  0.0041  0.3519
 2598W        W18215   3.664  12.166   3.879 -0.0807  0.3676 -0.0216
 2599W        W18216  12.305  13.795   3.427 -0.3806  0.0043  0.0003
 2600W        W18217   7.760  15.138   4.934 -0.1568  0.5885 -0.0005
 2601W        W18218   2.664   7.796   1.634 -0.1495 -0.0200  0.0404
 2602W        W18219   7.873  18.259  13.283 -0.1919  0.0708  0.3362
 2603W        W18220  18.768  10.085  11.693  0.0877  0.0697  0.1288
 2604W        W18221   9.746   6.164   2.804  0.2184 -0.0960 -0.0579
 2605W        W18222   0.264   5.845   1.970 -0.2376  0.1290  0.0439
 2606W        W18223  15.475   8.236  14.761 -0.1093  0.3958 -0.1362
 2607W        W18224  13.897  17.409  14.036 -0.0016 -0.1622 -0.1949
 2608W        W18225   6.239   9.273   0.487  0.2445  0.1814  0.0005
 2609W        W18226   9.698   6.016   1.952  0.0841  0.0659 -0.0343
 2610W        W18227   1.626   2.835  11.130 -0.1547 -0.0591  0.1243
 2611W        W18228   3.465  13.941  13.276  0.0662  0.0466 -0.0217
 2612W        W18229   1.413  12.780   3.405  0.0740 -0.1565  0.0612
 2613W        W18230  16.631   8.884   1.660  0.2203 -0.3667 -0.1171
 2614W        W18231   8.938   2.038  11.793 -0.0976 -0.0105  0.0170
 2615W        W18232  15.459  17.861   4.593  0.3535  0.1849  0.3466
 2616W        W18233   9.039  10.249  13.277  0.1751 -0.1614 -0.2140
 2617W        W18234  15.216  12.268   3.210 -0.2175 -0.0152 -0.1312
 2618W        W18235  10.566   0.110   5.329 -0.0117 -0.1117 -0.1863
 2619W        W18236  18.492   1.588  14.311 -0.4957 -0.1095  0.0546
 2620W        W18237   7.381   4.574  12.263 -0.0893 -0.1065  0.0508
 2621W        W18238   4.854  14.090   4.201  0.0502 -0.1450 -0.3722
 2622W        W18239   9.112  12.190  14.824 -0.0305  0.2477 -0.1878
 2623W        W18240  10.120   8.250   0.361  0.0102 -0.1342 -0.2747
 2624W        W18241   5.906  10.329   1.795 -0.0497 -0.1977  0.1892
 2625W        W18242  16.489  17.888  13.648 -0.0926 -0.0624 -0.3011
 2626W        W18243  12.819  10.023  13.223 -0.0968 -0.1773  0.0466
 2627W        W18244   5.381   2.717   1.151  0.0909  0.0942 -0.2324
 2628W        W18245   5.519   3.360  10.087  0.2599 -0.2101 -0.1079
 2629W        W18246   1.960  12.800   4.894  0.1482 -0.0569  0.1179
 2630W        W18247   9.823   2.729  13.396  0.0231 -0.1971 -0.3162
 2631W        W18248  11.784  11.344  10.976  0.1281 -0.2082 -0.0957
 2632W        W18249   7.069  17.336   3.635 -0.0228  0.5017  0.0514
 2633W        W18250   3.700   2.923   1.354  0.2885 -0.0313 -0.1383
 2634W        W18251  13.716   2.792   2.538 -0.2047  0.0058 -0.2096
 2635W        W18252   8.364   3.951   0.905  0.0701  0.1041 -0.0180
 2636W        W18253   1.720   2.082   4.808 -0.2433  0.0421 -0.0773
 2637W        W18254  18.041   6.253   9.743 -0.1501  0.1746  0.1245
 2638W        W18255   1.294  18.665   4.092 -0.1763  0.2044 -0.3062
 2639W        W18256   5.395  17.463   0.722 -0.0584  0.2270  0.3685
 2640W        W18257  10.670  11.202  13.201 -0.1451  0.6767 -0.6296
 2641W        W18258   1.123  10.703  11.511  0.2485 -0.0237 -0.0404
 2642W        W18259  12.864   9.394   3.572 -0.1608 -0.2691 -0.0536
 2643W        W18260  18.577  17.413   2.445  0.0091 -0.1225 -0.2609
 2644W        W18261  17.305  15.663  11.184 -0.1883  0.1133  0.1223
 2645W        W18262  16.239  11.726  12.452 -0.1571 -0.1535  0.0456
 2646W        W18263   4.276   6.641  14.040  0.0687 -0.1673  0.1920
 2647W        W18264   5.711  10.371   4.880 -0.3193 -0.0098  0.1225
 2648W        W18265   8.918  10.494   0.337 -0.2194  0.1044 -0.1525
 2649W        W18266  19.023   5.140  12.753  0.3190  0.1280 -0.0672
 2650W        W18267   1.865   6.682  15.063 -0.3956 -0.1021  0.0028
 2651W        W18268   0.323   6.950  14.905 -0.1971 -0.0019 -0.1496
 2652W        W18269  10.547   0.435  11.482  0.0536 -0.2563 -0.0926
 2653W        W18270  16.623   4.122   0.527 -0.1439 -0.1849 -0.2336
 2654W        W18271  18.193   6.824   5.167 -0.1165  0.0415  0.0162
 2655W        W18272   9.418   7.343   1.914 -0.2306  0.1014 -0.0873
 2656W        W18273  15.017  12.139   2.392 -0.0066 -0.1712  0.0380
 2657W        W18274  14.494   5.149  12.825  0.1846 -0.0442  0.2722
 2658W        W18275  15.365  10.200   5.014  0.0372  0.1507 -0.1982
 2659W        W18276  16.779  15.680   2.394 -0.1937 -0.1644  0.1971
 2660W        W18277   8.171  12.175  14.551  0.1814 -0.3578  0.1238
 2661W        W18278  10.123  17.645  12.260 -0.1460  0.0933  0.1078
 2662W        W18279   5.976   9.198   2.764 -0.0663  0.3248  0.1010
 2663W        W18280  17.837  18.263   2.074 -0.1883 -0.0267 -0.0935
 2664W        W18281   8.344   6.885  14.553 -0.2158  0.1121 -0.3060
 2665W        W18282  15.160   1.579   0.768  0.1352 -0.1375 -0.4099
 2666W        W18283  17.731  12.228  10.163  0.2017 -0.4390 -0.2488
 2667W        W18284  14.671  17.431  13.569  0.0227 -0.0250 -0.0819
 2668W        W18285  18.478  17.981  11.795 -0.4182  0.0678 -0.2665
 2669W        W18286   1.708   9.846   2.253 -0.0137  0.0729 -0.3651
 2670W        W18287   0.755  14.926   3.660 -0.1149  0.2832  0.3146
 2671W        W18288  11.076  15.467  11.918 -0.1476  0.3134  0.2258
 2672W        W18289  16.583  11.177   2.076 -0.2444 -0.0551 -0.1173
 2673W        W18290  14.313   2.759  14.040 -0.0569 -0.2690  0.0973
 2674W        W18291  16.292  17.438   5.667 -0.1328 -0.0011  0.2323
 2675W        W18292   0.948   0.336   0.678 -0.2752  0.1200  0.0294
 2676W        W18293   6.650  13.637   5.179  0.1648 -0.0326 -0.3864
 2677W        W18294  18.134  13.504  11.957 -0.0702 -0.3511 -0.3396
 2678W        W18295   9.606  18.259   2.586  0.3637  0.3366 -0.1169
 2679W        W18296  12.365  11.811   3.325  0.0543  0.0921  0.0235
 2680W        W18297  17.011  13.385   0.915  0.1462  0.2380 -0.0202
 2681W        W18298   1.488  11.308   0.619 -0.1504  0.0045 -0.1828
 2682W        W18299   1.891   4.960   6.049 -0.2141  0.0321 -0.1266
 2683W        W18300   4.844   4.377   4.346 -0.1755  0.1670 -0.1178
 2684W        W18301  16.689   2.882  12.416  0.3677  0.2612  0.0292
 2685W        W18302  17.438  11.126   3.279  0.0600 -0.2007  0.0517
 2686W        W18303   0.995  14.381   4.204 -0.2707 -0.0587  0.0258
 2687W        W18304  11.051   4.160  13.609 -0.3908  0.1580 -0.1060
 2688W        W18305   4.005  12.320   4.257  0.0629  0.1168  0.1010
 2689W        W18306   3.297  13.604  11.455  0.0290  0.0014 -0.0067
 2690W        W18307  12.773   0.801  13.836  0.1118  0.0973  0.0994
 2691W        W18308   2.870  12.994  11.248 -0.3620 -0.1735  0.2237
 2692W        W18309   6.865   0.962  14.755  0.0056  0.2109  0.0602
 2693W        W18310  14.394  17.644   1.386  0.2114 -0.2859  0.1564
 2694W        W18311   3.533   1.633   5.153  0.3283 -0.0135 -0.1428
 2695W        W18312  16.594   9.215   9.562 -0.1233 -0.1521 -0.3049
 2696W        W18313   4.600   7.344   4.560 -0.2094 -0.0410  0.3724
 2697W        W18314  13.661   6.183   4.836 -0.0890 -0.0583 -0.0133
 2698W        W18315  16.468   6.513  13.270 -0.4680  0.2500  0.0094
 2699W        W18316  13.925   7.527  15.139  0.3157  0.3281  0.1486
 2700W        W18317   7.973   7.278  11.691 -0.6116  0.1581  0.1241
 2701W        W18318  10.000   9.115   1.492  0.2067  0.1503  0.3195
 2702W        W18319   1.061   6.656   4.254  0.1650  0.1418  0.1527
 2703W        W18320   7.399   3.861   1.209 -0.3833 -0.0335 -0.1115
 2704W        W18321  14.611  16.725   0.124  0.0380  0.0919  0.2597
 2705W        W18322   0.220  18.409  11.368  0.0960 -0.2355 -0.0276
 2706W        W18323  18.859   9.586   1.628 -0.3027  0.4359 -0.0896
 2707W        W18324   0.260   3.713   9.855  0.3146  0.2096  0.1467
 2708W        W18325   9.356  11.614  13.075  0.1969  0.0830 -0.8158
 2709W        W18326  18.194   0.879  14.983  0.2996 -0.1986  0.0964
 2710W        W18327  12.358   6.563   1.611 -0.3684  0.2485 -0.3664
 2711W        W18328  14.977   0.368   1.170 -0.3469  0.0205  0.2590
 2712W        W18329   9.393   4.030  13.939  0.0058 -0.1288  0.1761
 2713W        W18330   3.989  13.014  10.745  0.1056 -0.2649  0.1793
 2714W        W18331  11.208   3.977   3.516  0.0906 -0.1109 -0.2495
 2715W        W18332  17.725   5.023   1.041  0.1528 -0.3413 -0.0295
 2716W        W18333   5.647  16.950  11.742  0.1606  0.0845  0.1030
 2717W        W18334  17.524  11.950  15.247 -0.3218 -0.1619  0.0905
 2718W        W18335  15.149  13.926   5.688  0.4639  0.0622 -0.0711
 2719W        W18336   8.441   8.615  11.238 -0.1274  0.0300  0.0836
 2720W        W18337   8.624   1.818  15.209  0.1873  0.2901 -0.3532
 2721W        W18338   1.599  13.337  11.678 -0.0122 -0.1601 -0.0799
 2722W        W18339  10.287   1.542   3.663 -0.0375 -0.0013 -0.0757
 2723W        W18340  13.982   5.080  12.610 -0.2272  0.2467  0.0401
 2724W        W18341  15.678  13.791   4.887 -0.1034  0.0796  0.3634
 2725W        W18342   9.000   2.519  13.039 -0.2183 -0.1796  0.2769
 2726W        W18343  16.538  15.282   2.477 -0.2171 -0.2316 -0.0698
 2727W        W18344  14.322   3.511  11.728 -0.0728  0.1125  0.0552
 2728W        W18345   8.762   7.263  10.887 -0.0301  0.4380  0.3101
 2729W        W18346  12.307   0.398  14.293 -0.0302  0.0190  0.2015
 2730W        W18347  17.339  17.473   0.978  0.1163 -0.1493  0.1780
 2731W        W18348   0.566   8.584   5.833 -0.1160  0.1041 -0.1726
 2732W        W18349   8.768  10.046   0.118 -0.1750 -0.1100 -0.0526
 2733W        W18350   9.151   6.270   3.679  0.1173  0.1973  0.0924
 2734W        W18351   3.708   5.974  11.204 -0.1888 -0.1802  0.3285
 2735W        W18352   8.822  15.648   2.364  0.0928  0.1408  0.0676
 2736W        W18353   0.915  12.240   0.050  0.3721  0.2995  0.2664
 2737W        W18354  12.177  13.681  11.890 -0.3693 -0.2195 -0.0485
 2738W        W18355  12.321   6.907  11.576 -0.0911 -0.3069 -0.1773
 2739W        W18356   7.128   5.825   1.882 -0.1423  0.0597  0.1548
 2740W        W18357  11.815   2.764  15.179  0.2359 -0.0555 -0.0732
 2741W        W18358  16.083  10.838   3.464  0.0823 -0.1350 -0.1774
 2742W        W18359  15.714   9.123   1.158  0.1299  0.1558 -0.2848
 2743W        W18360  17.251   8.057   1.656 -0.0395 -0.0825  0.0240
 2744W        W18361  10.433   0.110   0.314 -0.2899  0.0165  0.0153
 2745W        W18362  15.586   9.928  14.351 -0.0964  0.1108 -0.0212
 2746W        W18363   6.951  17.635   0.324  0.1491  0.0714  0.1483
 2747W        W18364  12.422   7.626  13.754 -0.1014  0.1290 -0.4483
 2748W        W18365   9.734  10.328   1.243  0.0147  0.0467 -0.0674
 2749W        W18366   4.324   9.558  13.267 -0.1038 -0.3819  0.1567
 2750W        W18367  15.236  13.374  10.633  0.0215  0.1738 -0.0140
 2751W        W18368   9.594  10.199  13.273 -0.2474  0.3816 -0.2601
 2752W        W18369  14.507   4.298   0.716 -0.1645  0.0540  0.1953
 2753W        W18370   6.439  17.937   3.254  0.0208  0.1401 -0.0497
 2754W        W18371   8.420  13.881  13.091  0.3493  0.3106  0.0439
 2755W        W18372   2.941  10.428  14.571  0.0114  0.0983 -0.2320
 2756W        W18373   2.793  18.933   3.942  0.0176 -0.3771 -0.2456
 2757W        W18374   1.145   3.578  12.514 -0.2191 -0.0446  0.1992
 2758W        W18375   2.238   7.065   2.075  0.0302 -0.3324 -0.4223
 2759W        W18376  16.532  18.570  11.831  0.0310 -0.0036  0.0921
 2760W        W18377   0.354  18.382   0.911  0.0023 -0.1963  0.1809
 2761W        W18378  16.605  11.079   0.943 -0.2076 -0.2983  0.2344
 2762W        W18379   3.684   1.009  11.488  0.1862  0.3081  0.1377
 2763W        W18380   7.557   2.965   1.437 -0.0913  0.1511 -0.2572
 2764W        W18381   9.244   9.142   1.571 -0.2618 -0.0682  0.2178
 2765W        W18382  17.798   3.349   3.912  0.0300 -0.3634 -0.1144
 2766W        W18383   2.949  17.573   4.194  0.1861 -0.2528 -0.1842
 2767W        W18384  10.659   7.188   3.863  0.2549 -0.0585 -0.1226
 2768W        W18385  18.376   3.957  13.518 -0.0626  0.1435 -0.1628
 2769W        W18386   6.329   4.846   4.871 -0.1488  0.2013 -0.1572
 2770W        W18387   9.901   0.674   1.522  0.0452  0.0805 -0.1940
 2771W        W18388  17.395  13.604   3.270 -0.3974  0.2440  0.2386
 2772W        W18389  17.686   0.228   1.456 -0.2054 -0.0776 -0.2156
 2773W        W18390  16.612   4.447  11.304 -0.0553 -0.1862  0.1420
 2774W        W18391   0.890  17.428  10.866  0.1344  0.0451 -0.1012
 2775W        W18392   7.451   0.751   2.825 -0.1187  0.1106 -0.5224
 2776W        W18393   3.460  15.563   5.156 -0.1633 -0.0400 -0.0116
 2777W        W18394   5.622   5.806  14.179  0.1545 -0.5416 -0.4625
 2778W        W18395   4.907   9.942   4.910 -0.2145 -0.1579  0.3387
 2779W        W18396   5.575   2.263   2.641  0.3639  0.0274 -0.0906
 2780W        W18397   3.576   0.481   0.757 -0.4540 -0.1322 -0.3546
 2781W        W18398  12.046  11.942   3.748  0.3770  0.0403 -0.0178
 2782W        W18399  12.039  18.515   3.669 -0.0370 -0.0828 -0.3549
 2783W        W18400   3.681   1.317  14.943 -0.0666 -0.1429  0.0832
 2784W        W18401  13.063   1.233   3.424 -0.1535  0.0816  0.2505
 2785W        W18402  13.688  16.616   3.608 -0.0067 -0.1532  0.1857
 2786W        W18403   4.279  14.305   3.677 -0.3175  0.0745  0.0365
 2787W        W18404   1.540  12.051   3.659 -0.2975  0.2215 -0.1528
 2788W        W18405   8.520  15.773   0.687  0.1558 -0.0713 -0.1728
 2789W        W18406  15.870   2.146   2.801 -0.0488 -0.2180 -0.0569
 2790W        W18407  15.570  13.322  14.880  0.3108  0.0595  0.2212
 2791W        W18408  14.589   5.116   2.078 -0.0701  0.2700  0.4619
 2792W        W18409  14.867   1.878  12.439 -0.2898 -0.0297 -0.0656
 2793W        W18410   4.139   8.385  14.665  0.3111  0.1027 -0.1544
 2794W        W18411  12.435   3.032   4.961 -0.1595 -0.1517  0.0272
 2795W        W18412  13.011  16.307  15.064 -0.2562 -0.2556 -0.1801
 2796W        W18413  17.772   9.027   4.132 -0.0663 -0.1168 -0.2220
 2797W        W18414   1.140  12.710  10.528 -0.2141  0.3811 -0.4292
 2798W        W18415  15.023   3.096   0.962  0.1522 -0.1543  0.1344
 2799W        W18416  11.834  13.142  13.276  0.1524 -0.0547  0.2217
 2800W        W18417  12.968  15.444  13.731  0.1539  0.1475  0.0179
 2801W        W18418   3.295   5.194  15.071  0.0180 -0.1087  0.3330
 2802W        W18419   5.856  13.730   0.131  0.0385  0.1562 -0.0541
 2803W        W18420   2.134   8.969   1.696 -0.0773  0.1690  0.0788
 2804W        W18421  15.471  17.702   1.793  0.2621 -0.0917 -0.0870
 2805W        W18422  12.564   5.533   2.524  0.0163 -0.1972  0.0582
 2806W        W18423   0.047   6.419  13.824  0.0668  0.1178 -0.2154
 2807W        W18424  13.391   3.271  11.314  0.0304 -0.2248  0.2023
 2808W        W18425  18.280   6.471  11.278  0.1763  0.1567 -0.5500
 2809W        W18426   4.251   8.228   3.238  0.2870 -0.0532  0.5250
 2810W        W18427   3.172  15.362  13.951  0.0818  0.1406 -0.0117
 2811W        W18428  18.945   3.700  13.118 -0.1360 -0.0037 -0.1057
 2812W        W18429  18.163   8.028  15.059 -0.0700  0.2615  0.1830
 2813W        W18430  12.021  11.529  12.136  0.2259 -0.2290 -0.1187
 2814W        W18431   3.183   7.547  13.850 -0.3815  0.3880  0.1640
 2815W        W18432  16.735  16.790   1.213  0.1324 -0.0726  0.0826
 2816W        W18433  14.583  10.222   0.837 -0.0879 -0.1457  0.2670
 2817W        W18434   7.783  15.712  13.918 -0.1732  0.0527  0.2573
 2818W        W18435   4.082  10.301  11.017  0.0496  0.0657 -0.1802
 2819W        W18436  16.022  17.789  10.997 -0.0125  0.3335  0.1278
 2820W        W18437  12.828  15.773  12.256 -0.1341 -0.2019  0.3734
 2821W        W18438   5.757  12.557   1.210  0.0294 -0.0372  0.1958
 2822W        W18439   3.550  17.103  12.475  0.0297  0.0741 -0.0277
 2823W        W18440  17.111   4.832   2.202  0.0719  0.0561 -0.2350
 2824W        W18441  12.109  11.139  11.290 -0.0330 -0.2130 -0.1498
 2825W        W18442   3.656  16.816   4.368  0.2838 -0.3151  0.3397
 2826W        W18443  17.917   1.035   1.959 -0.2188  0.2134 -0.0689
 2827W        W18444  11.618   9.967   0.137 -0.0914  0.0816  0.3448
 2828W        W18445   2.735   3.944   0.447  0.4496  0.0051  0.0912
 2829W        W18446  12.079   9.421   9.919 -0.1382  0.1313 -0.1454
 2830W        W18447  18.593   4.810   1.824  0.4647  0.0441 -0.1347
 2831W        W18448   8.167  15.613   0.422  0.0780  0.0412 -0.0682
 2832W        W18449  18.939  13.386  10.400 -0.0038 -0.1726 -0.2956
 2833W        W18450  17.109  12.189   4.205  0.1863  0.2775  0.2127
 2834W        W18451   0.940   7.299   3.717  0.1113  0.2599  0.0349
 2835W        W18452   0.099   3.315  14.538  0.3871  0.2217  0.4085
 2836W        W18453  15.726   4.709   3.298  0.1983 -0.1349  0.2210
 2837W        W18454   8.593   2.144  10.759 -0.4473 -0.3640  0.0044
 2838W        W18455   6.984  17.070  12.147 -0.0457  0.1815  0.1200
 2839W        W18456   8.944   7.389  10.416  0.2543  0.1001  0.4642
 2840W        W18457   2.352  12.523   1.424 -0.0167 -0.0086  0.0937
 2841W        W18458   4.396   9.048   3.127  0.2813 -0.1794  0.1772
 2842W        W18459   1.363  10.308   4.342 -0.2807 -0.1327  0.1995
 2843W        W18460  17.091   7.424  14.420 -0.0972  0.2967  0.2721
 2844W        W18461   0.573   5.621  11.575 -0.1756  0.0126 -0.1165
 2845W        W18462   0.384  14.642  12.087 -0.0512 -0.1960  0.1804
 2846W        W18463  14.162   2.723   4.308 -0.1405 -0.0217  0.0987
 2847W        W18464   4.687  16.611   1.026  0.1025 -0.1898 -0.1752
 2848W        W18465   4.210  11.135   2.036  0.0208  0.2277 -0.2398
 2849W        W18466  10.997   1.487   5.779 -0.1891 -0.1107  0.2604
 2850W        W18467   0.240   7.971   0.200 -0.1774 -0.2337  0.0127
 2851W        W18468   9.220   3.814  13.459  0.1957  0.0633  0.1660
 2852W        W18469   2.274  18.286   2.465 -0.1810  0.0221  0.2433
 2853W        W18470   6.532  12.007   1.405  0.0915  0.0441  0.1207
 2854W        W18471   2.409  18.033   4.686  0.0264  0.1360 -0.0828
 2855W        W18472   3.317   8.176   2.810  0.1201 -0.4486  0.0161
 2856W        W18473  14.347   9.075   0.316  0.0116  0.1494  0.2953
 2857W        W18474  15.558  12.815   0.355 -0.2790  0.1402  0.0822
 2858W        W18475  11.563   7.332  13.476 -0.1287  0.4163 -0.0219
 2859W        W18476   1.377   9.872  10.762  0.2057  0.0016 -0.1156
 2860W        W18477  16.030  18.466   4.964  0.1415  0.1379 -0.0516
 2861W        W18478  14.462   7.042  11.867  0.1445 -0.2044  0.1045
 2862W        W18479   4.116  14.026   4.789 -0.1933 -0.2288 -0.2765
 2863W        W18480  18.356  13.951   9.908  0.3993 -0.2026  0.4299
 2864W        W18481  18.819   3.870  13.998 -0.0340 -0.0949  0.1343
 2865W        W18482   3.174   8.077   4.086  0.2319  0.0130  0.2222
 2866W        W18483  16.688  18.295  12.272 -0.1496 -0.0566 -0.3705
 2867W        W18484   0.864  17.276   3.639  0.1533  0.1329 -0.0925
 2868W        W18485  18.771  10.016  14.962  0.2443 -0.0495  0.1923
 2869W        W18486   6.535   3.623   1.010 -0.1731 -0.1693  0.1812
 2870W        W18487   5.962  11.086  10.293 -0.2645  0.0894  0.1136
 2871W        W18488  13.442  13.566  11.428 -0.4059 -0.1567  0.2803
 2872W        W18489   2.324   6.573   2.149  0.0836 -0.0228  0.3295
 2873W        W18490  10.032  10.004  14.983 -0.1979  0.0884 -0.1871
 2874W        W18491   0.205  11.995   1.794  0.0725  0.3758 -0.2747
 2875W        W18492   9.899   1.081  11.864  0.4825  0.1140 -0.3680
 2876W        W18493   3.167   0.796   4.145  0.0593  0.1465 -0.0117
 2877W        W18494  14.258  16.277  10.569  0.4666 -0.3965  0.0793
 2878W        W18495   9.336  17.355   4.248 -0.0271 -0.2828  0.0970
 2879W        W18496   1.447  12.104   5.061 -0.4569  0.2942  0.2655
 2880W        W18497  12.732   4.909  12.081 -0.2301 -0.1479  0.3330
 2881W        W18498   1.689  17.146  14.093  0.0706 -0.0046  0.1490
 2882W        W18499   4.190  14.522  12.731  0.5476 -0.0673  0.0287
 2883W        W18500  16.842   4.767   4.857  0.0731  0.0160  0.4705
 2884W        W18501  12.916  13.114  15.212 -0.0787  0.0793  0.1927
 2885W        W18502   9.553  16.082  10.727  0.2841 -0.1715 -0.0427
 2886W        W18503   6.913  15.206  11.547 -0.0050  0.3038 -0.1290
 2887W        W18504  10.515   3.254   1.467  0.0672 -0.0657  0.0768
 2888W        W18505   3.523  14.005  11.672  0.0648  0.1639  0.0388
 2889W        W18506  16.384   8.870  11.483  0.0673  0.0115 -0.0635
 2890W        W18507  13.644   3.984  11.046  0.1052 -0.0655 -0.1540
 2891W        W18508  12.601   1.175  13.420  0.0006  0.1168  0.2213
 2892W        W18509   4.472   4.903  11.132 -0.1666 -0.0206 -0.1140
 2893W        W18510  17.930   0.335  11.639  0.0621 -0.2373 -0.2231
 2894W        W18511   3.263  18.082   3.368  0.0662  0.0732 -0.1973
 2895W        W18512   0.400  17.481  10.801 -0.3986 -0.1146 -0.1022
 2896W        W18513   3.078   0.392   5.990  0.1566  0.1837  0.1952
 2897W        W18514  10.905   2.044   5.745  0.1498 -0.1032  0.5332
 2898W        W18515  11.916   3.571   0.690 -0.0272  0.1719  0.0814
 2899W        W18516   5.359  12.132  12.243 -0.0549  0.2574  0.3910
 2900W        W18517   4.835   7.787   4.379 -0.2501  0.2091  0.1589
 2901W        W18518   1.844   7.824  13.670 -0.0761  0.4233  0.2027
 2902W        W18519  13.047   2.295  14.149  0.0060  0.0429 -0.0299
 2903W        W18520  17.675   8.422   5.322 -0.3353  0.4488 -0.4581
 2904W        W18521  18.127   0.013   2.534  0.1311 -0.1512 -0.1438
 2905W        W18522  11.827   5.217  14.412  0.0413 -0.1044 -0.0058
 2906W        W18523  12.869   2.005  12.763  0.1971  0.1928  0.3827
 2907W        W18524  10.840   8.496  13.479 -0.1417  0.1225 -0.0714
 2908W        W18525  18.276   8.309  14.436 -0.1583  0.0468 -0.3959
 2909W        W18526  13.287   9.897  12.676 -0.3521 -0.2059  0.1523
 2910W        W18527   4.169   2.547   4.422 -0.0239 -0.1703  0.2893
 2911W        W18528   9.828  17.743  15.192 -0.3439 -0.0613 -0.1481
 2912W        W18529  15.324   3.044   3.083  0.0957 -0.1390  0.4515
 2913W        W18530   9.367   1.789   3.615 -0.1044  0.1047  0.3377
 2914W        W18531   2.467   6.813   0.667 -0.3577 -0.1797  0.0551
 2915W        W18532  16.584   8.596   3.041 -0.1799 -0.3932 -0.0412
 2916W        W18533  18.866  10.082   1.525  0.4655 -0.2467 -0.0913
 2917W        W18534  10.954   0.009  14.245  0.0473 -0.0989  0.1325
 2918W        W18535  11.959   0.477  10.575  0.0313 -0.1358  0.1455
 2919W        W18536  18.835   4.345   1.876 -0.1549 -0.1957 -0.1771
 2920W        W18537  10.178  11.089   2.968 -0.4558  0.1559 -0.1386
 2921W        W18538   4.556   4.774   4.265 -0.1837  0.5242 -0.0774
 2922W        W18539   2.982  12.280   0.620 -0.1871  0.0357 -0.4559
 2923W        W18540   2.788   4.079  12.844 -0.1045 -0.2663 -0.2256
 2924W        W18541  13.031  10.923   2.662 -0.0306 -0.3319  0.0976
 2925W        W18542   6.059   7.265  11.328  0.0003  0.0582  0.2653
 2926W        W18543   6.487  11.879  13.781  0.1187  0.4075  0.0141
 2927W        W18544   6.691  11.462   0.551  0.0898  0.2391  0.4354
 2928W        W18545  18.415   8.147   4.106  0.1815 -0.0983 -0.1197
 2929W        W18546   9.713   6.584  12.790  0.3212  0.1273  0.2241
 2930W        W18547   1.009  17.968  14.964  0.0743 -0.1849 -0.0052
 2931W        W18548   8.318  17.774   5.038  0.3608 -0.1319  0.0028
 2932W        W18549  19.074   0.714  12.349 -0.0265 -0.2001  0.1480
 2933W        W18550   4.626   1.204   4.141  0.0293  0.0612 -0.0458
 2934W        W18551   1.478   8.845  11.348 -0.0939 -0.2389 -0.1516
 2935W        W18552   5.186   2.741  14.864  0.1979  0.2300 -0.1923
 2936W        W18553  19.065   2.458  10.384  0.0351  0.1636 -0.1545
 2937W        W18554   0.143  12.225  10.454  0.0106 -0.0091  0.3322
 2938W        W18555   8.335   2.005  13.697  0.2153 -0.0302 -0.3557
 2939W        W18556   6.022   9.699  14.099 -0.0550  0.0058  0.0462
 2940W        W18557  14.219   2.686   0.977 -0.5560  0.1288  0.1960
 2941W        W18558  13.496  13.914   2.507 -0.0027  0.0802  0.0806
 2942W        W18559   9.453   8.661   3.490 -0.1791  0.3217 -0.2509
 2943W        W18560   0.747  12.263   5.624  0.0644 -0.2665 -0.1386
 2944W        W18561   3.051   5.290  14.170  0.2930 -0.1243  0.3403
 2945W        W18562  11.198  10.233  10.680 -0.0433  0.0557 -0.0640
 2946W        W18563   5.368  18.106  15.196  0.0044  0.1536 -0.2297
 2947W        W18564   1.044   6.501   3.787  0.1496  0.1707  0.4313
 2948W        W18565  10.752  12.920  11.336  0.3544 -0.2674  0.1273
 2949W        W18566  14.847  10.137   4.899  0.2611 -0.2036 -0.0994
 2950W        W18567  12.715  15.203  10.190  0.0676 -0.1772 -0.3585
 2951W        W18568   4.600  13.822   2.273 -0.1165 -0.1831  0.1764
 2952W        W18569   8.338  13.435   4.528  0.1197 -0.2530 -0.0308
 2953W        W18570  11.134   5.016  13.360  0.0281  0.2182 -0.3488
 2954W        W18571  11.087   1.324  11.694 -0.3272 -0.0381 -0.5624
 2955W        W18572   4.237   5.883  11.293 -0.1488  0.2549  0.1957
 2956W        W18573   8.535   6.534   3.481 -0.1266  0.0843 -0.2113
 2957W        W18574   6.914  16.690  10.285  0.0247  0.4553  0.2736
 2958W        W18575   6.263  16.672   4.752 -0.0096 -0.0771  0.1325
 2959W        W18576  13.069   4.451  15.182  0.1170 -0.0399  0.0514
 2960W        W18577  14.571  15.069  14.988 -0.0919 -0.1532 -0.2471
 2961W        W18578   5.746  12.349  14.593  0.0637 -0.0632  0.3400
 2962W        W18579  10.729   1.358  11.023  0.0077 -0.0811 -0.0587
 2963W        W18580  14.327  10.060   4.846 -0.3474 -0.1917 -0.3653
 2964W        W18581  18.686  11.004   4.227 -0.0945  0.2804 -0.2216
 2965W        W18582  13.784   9.870  12.603 -0.0239  0.1767 -0.2462
 2966W        W18583   2.018   7.934  11.150 -0.0301 -0.1669  0.4056
 2967W        W18584   6.022  18.969   2.229  0.1306  0.1416  0.2374
 2968W        W18585   0.862   3.774   2.773 -0.0195 -0.0148 -0.0736
 2969W        W18586  11.008   3.157   0.523  0.1710  0.2583 -0.2589
 2970W        W18587  13.078   9.182   1.046 -0.2056  0.0581 -0.1209
 2971W        W18588   8.718   3.403  10.832 -0.2501  0.2916  0.2081
 2972W        W18589   3.452   6.513   1.677 -0.0370 -0.1727  0.3142
 2973W        W18590   9.761   9.242  11.341 -0.0528  0.3497 -0.1628
 2974W        W18591   6.944   3.222  11.891 -0.1715 -0.5799  0.0796
 2975W        W18592   7.280   4.986  12.958 -0.1788  0.0064  0.0170
 2976W        W18593   0.233   4.390   2.011 -0.1339 -0.3444 -0.1216
 2977W        W18594   4.309  16.357  12.450 -0.2396  0.2233 -0.2849
 2978W        W18595  12.643   5.239  13.102  0.0563 -0.3603  0.1907
 2979W        W18596   4.636  13.947   1.370 -0.0230  0.2771 -0.1915
 2980W        W18597   9.239   2.398  13.784  0.1787  0.1360 -0.1632
 2981W        W18598  10.911   3.254   3.700 -0.0190  0.1342 -0.3758
 2982W        W18599  17.176  14.500  10.614 -0.1579  0.3934  0.0289
 2983W        W18600  15.892   6.519   4.742  0.0570  0.3168  0.2991
 2984W        W18601  14.415   8.091  12.076 -0.1477 -0.1735 -0.0478
 2985W        W18602   1.560  16.258   0.701 -0.0216 -0.1214 -0.0434
 2986W        W18603   7.839  16.029  15.053 -0.2028 -0.1124  0.1084
 2987W        W18604   2.310   9.387   1.919  0.2952  0.1929 -0.0650
 2988W        W18605  16.606  12.766  10.312 -0.0267 -0.0520 -0.1886
 2989W        W18606   2.727   0.965   0.973 -0.0400 -0.1498  0.0246
 2990W        W18607   2.691   1.142   2.883  0.4292  0.0807  0.1185
 2991W        W18608   0.468  13.643   4.246  0.2786 -0.0145  0.2458
 2992W        W18609   1.654   7.141  14.761 -0.2714  0.1882  0.0638
 2993W        W18610   7.478  15.148  10.404  0.0245  0.0209  0.0171
 2994W        W18611   5.410   8.156   1.472 -0.2144  0.0587 -0.0766
 2995W        W18612  15.854  10.941  12.821 -0.0191  0.0397 -0.2436
 2996W        W18613   2.143  10.558   0.436 -0.0228  0.1706 -0.0576
 2997W        W18614   8.824   5.852   2.004 -0.2997 -0.0777 -0.0524
 2998W        W18615  10.263  12.922   1.663  0.1263 -0.1876  0.3314
 2999W        W18616  16.051   8.932   9.640 -0.1215  0.1874  0.0741
 3000W        W18617   7.896  12.066   2.320  0.1035  0.2500  0.0742
 3001W        W18618  14.537   4.766  13.213 -0.2174 -0.0357 -0.1767
 3002W        W18619  17.186  10.306   9.155  0.1376 -0.1626  0.1171
 3003W        W18620  15.235  16.321  12.980  0.0564  0.2193  0.1395
 3004W        W18621   9.401   0.455   4.001 -0.1856  0.2374 -0.3238
 3005W        W18622  12.948  13.023  14.560  0.3034 -0.1585 -0.2074
 3006W        W18623  18.139  14.949   3.527  0.0356  0.1794 -0.0897
 3007W        W18624   7.148  13.992   2.385 -0.3107  0.2777  0.1527
 3008W        W18625   2.620   2.040   3.568 -0.2919  0.1656  0.0562
 3009W        W18626  14.729   0.602  11.620 -0.1671  0.1067 -0.3712
 3010W        W18627   2.953   5.290  13.400 -0.3708  0.4298 -0.1395
 3011W        W18628   3.557   1.472   9.823  0.1370  0.2072 -0.3166
 3012W        W18629  15.333   3.677  11.880  0.2100  0.1797  0.1561
 3013W        W18630   3.121  18.115  14.060  0.2114 -0.0986 -0.0053
 3014W        W18631   7.013  17.647  11.170  0.0414  0.1421 -0.2920
 3015W        W18632   0.029  10.417   8.927  0.0871 -0.1156 -0.2044
 3016W        W18633   6.920  11.007   1.265  0.0655  0.2039  0.0750
 3017W        W18634   9.438   7.435   0.727  0.2803 -0.3698 -0.1286
 3018W        W18635   3.050   0.412   2.104 -0.2508 -0.0518  0.1272
 3019W        W18636  11.226  10.938   4.307 -0.1174  0.0726  0.1086
 3020W        W18637   6.161   4.741  12.391 -0.1115  0.0454 -0.5025
 3021W        W18638   9.493   2.558   1.271  0.0744  0.2000 -0.1778
 3022W        W18639   5.243  12.260   0.290  0.0241 -0.1291  0.1980
 3023W        W18640   5.597   6.525  14.670  0.4713  0.2183  0.1206
 3024W        W18641  18.865   8.761   3.185  0.2367 -0.4588 -0.2359
 3025W        W18642  11.466   4.995   1.007 -0.3747 -0.0377 -0.0517
 3026W        W18643   5.808   3.933  15.012 -0.4595 -0.2754  0.0620
 3027W        W18644   1.008  11.719  14.356  0.1125 -0.3018  0.0474
 3028W        W18645   0.184   3.811  12.697  0.1263  0.0015  0.1585
 3029W        W18646   2.079   6.199  12.796 -0.2084  0.0467  0.0713
 3030W        W18647   0.115  12.821   1.871 -0.1655 -0.2666  0.0593
 3031W        W18648   1.139   6.574  13.913 -0.0899 -0.2121  0.3121
 3032W        W18649   8.841  13.981  15.211 -0.3970  0.1123  0.2201
 3033W        W18650  11.410  18.394   2.071 -0.0734  0.0816  0.2784
 3034W        W18651   4.034  11.454  12.313  0.1320  0.0857  0.0299
 3035W        W18652  10.946   8.372  11.146  0.0579  0.1422  0.2584
 3036W        W18653   5.408   9.103  14.307 -0.1291 -0.2361  0.3383
 3037W        W18654  18.369   5.540   5.077  0.0537  0.1612  0.4691
 3038W        W18655  14.845  15.568   2.353 -0.0443  0.0902  0.0843
 3039W        W18656   2.828  13.735   0.958 -0.0057 -0.3092 -0.0733
 3040W        W18657  16.382   3.790   0.224 -0.1648 -0.0148 -0.4097
 3041W        W18658  12.092  17.152   5.406  0.1184  0.3265  0.0174
 3042W        W18659  13.460   6.022  14.153 -0.1497 -0.1525 -0.0551
 3043W        W18660   5.552  11.240   0.785 -0.2157  0.1985  0.0047
 3044W        W18661  16.238  17.473  13.473  0.0266  0.0658  0.1183
 3045W        W18662  10.960   7.195   1.736  0.0930  0.1322  0.0037
 3046W        W18663   5.783   2.537   4.588  0.0223  0.3367 -0.2061
 3047W        W18664  12.173  10.673   4.849 -0.2930  0.1789  0.0192
 3048W        W18665  12.009   9.181  10.702  0.2860  0.0802  0.1368
 3049W        W18666  11.689  14.301  14.776 -0.0028  0.0007  0.4849
 3050W        W18667   1.313   7.551  13.697 -0.1681  0.1419 -0.1938
 3051W        W18668  17.058  14.408  11.527  0.2323 -0.0784 -0.1031
 3052W        W18669   0.456   6.310   2.638 -0.0773 -0.1860 -0.0098
 3053W        W18670  11.374   2.788  12.011 -0.1137  0.1253 -0.1308
 3054W        W18671   2.209   4.226  11.854 -0.1551  0.0034  0.2736
 3055W        W18672  10.944  13.341   0.002  0.1635  0.2908  0.1985
 3056W        W18673   9.880  14.630  12.560 -0.0951  0.0522  0.0108
 3057W        W18674  14.509   2.482   4.038 -0.0496 -0.0168  0.0432
 3058W        W18675   1.791  10.460   3.113 -0.1949  0.1866 -0.1199
 3059W        W18676  16.998  11.066  10.557  0.0005 -0.1522 -0.0072
 3060W        W18677   6.111   2.589   4.982  0.0746 -0.2821 -0.0707
 3061W        W18678   9.946  16.359  14.410 -0.1252  0.0733  0.2978
 3062W        W18679   2.497   2.241  13.515  0.0248 -0.1704  0.2223
 3063W        W18680  17.273   4.424   2.450  0.1938  0.2822 -0.1047
 3064W        W18681   6.688  12.771  13.391 -0.3593 -0.0058  0.5378
 3065W        W18682   4.922   2.421   2.557 -0.0125 -0.0435 -0.2219
 3066W        W18683  13.379   7.952  13.261  0.1153 -0.2763  0.0894
 3067W        W18684  11.188   4.600  13.845  0.1027 -0.3165  0.0478
 3068W        W18685   2.817   3.662  11.757 -0.0523  0.3384 -0.0570
 3069W        W18686   4.847   0.031   0.921 -0.0152 -0.0675  0.1323
 3070W        W18687  11.191  15.185   3.094  0.0291 -0.0295 -0.1983
 3071W        W18688  16.450   4.818   0.965 -0.0536 -0.0511 -0.2119
 3072W        W18689   9.038  11.026   0.448 -0.1351 -0.1134  0.4190
 3073W        W18690   2.039  11.556   2.148  0.3303  0.1003 -0.0140
 3074W        W18691   7.303   8.315  11.290  0.1625 -0.1851 -0.1052
 3075W        W18692  14.821   0.106  13.487 -0.2218  0.1312  0.1052
 3076W        W18693  14.323  16.924   4.547 -0.1861  0.2165 -0.1887
 3077W        W18694   7.440   1.918  11.655 -0.0271 -0.1285 -0.1431
 3078W        W18695   2.522   1.068   5.779 -0.0120 -0.1002  0.0361
 3079W        W18696  11.537  11.285   3.347  0.2502  0.1605  0.0618
 3080W        W18697   2.237  18.747   0.100  0.0202  0.4297  0.0267
 3081W        W18698  14.498   4.320   5.137 -0.0356  0.0809  0.2419
 3082W        W18699  10.929   8.537   0.430 -0.0032  0.1479 -0.3229
 3083W        W18700  16.998   1.999   0.559 -0.1909 -0.1178  0.2081
 3084W        W18701   9.712   4.958   1.999  0.3506 -0.1558  0.2472
 3085W        W18702  15.325   8.701   2.918  0.1740 -0.1491 -0.2276
 3086W        W18703  14.520   7.710   2.530 -0.2025  0.0824 -0.1346
 3087W        W18704   7.472  15.010  14.109  0.0864  0.1155 -0.0663
 3088W        W18705  12.414  12.997   5.722 -0.1186  0.1101  0.3024
 3089W        W18706  19.056  10.532   1.401  0.0660 -0.0195  0.1593
 3090W        W18707  18.717  15.318  11.869 -0.0205 -0.0117  0.0817
 3091W        W18708  16.546  12.249  12.580  0.0923 -0.2571  0.0858
 3092W        W18709   3.658   1.988  14.322  0.2014  0.0407  0.0487
 3093W        W18710   4.988  17.009   4.695  0.0966 -0.0615  0.0327
 3094W        W18711   1.263  18.261  11.158  0.2395 -0.3360  0.1293
 3095W        W18712   1.483  15.568   0.838  0.0614 -0.2531 -0.1181
 3096W        W18713   2.260   6.288   4.739  0.1967 -0.1937  0.1321
 3097W        W18714   2.609  17.606   0.353  0.3828 -0.2063 -0.1073
 3098W        W18715  15.902  15.722  11.156 -0.0287  0.0700 -0.0522
 3099W        W18716  14.951   4.096  11.778 -0.0898  0.3749  0.1416
 3100W        W18717   0.961   9.431  11.691  0.3035 -0.3794 -0.0807
 3101W        W18718   6.448  14.919  12.651  0.1192 -0.0908 -0.1248
 3102W        W18719  10.157   3.096  13.276  0.1370 -0.1321 -0.1141
 3103W        W18720   9.883   0.345   4.216 -0.0823 -0.2046  0.0860
 3104W        W18721  18.825   1.607   4.731 -0.0109 -0.0499 -0.0760
 3105W        W18722  12.868   5.448  10.695  0.1966  0.2281  0.3716
 3106W        W18723  15.187   1.905   1.768  0.0195 -0.0922 -0.3368
 3107W        W18724   5.921   2.043  14.871  0.0848  0.3567 -0.0841
 3108W        W18725   1.035  10.407   1.351 -0.0560  0.0915  0.0582
 3109W        W18726   3.003  17.412   0.515 -0.0254  0.1170 -0.3402
 3110W        W18727  10.482  17.017  12.372 -0.2505 -0.1139  0.0515
 3111W        W18728  17.853   9.737   0.839 -0.0260 -0.0179  0.1181
 3112W        W18729  13.932   1.453  12.294  0.1112 -0.2555  0.2074
 3113W        W18730  10.016   4.390  11.745  0.0362 -0.0050  0.0016
 3114W        W18731  11.724   7.516   3.351 -0.1319  0.0719  0.0263
 3115W        W18732  18.472   4.578  14.396 -0.0677  0.0387 -0.0887
 3116W        W18733   7.045  14.079   0.066  0.0896  0.5914 -0.2058
 3117W        W18734  13.778  11.102   3.583 -0.2825  0.2885  0.0201
 3118W        W18735   5.518  12.934   4.969 -0.0487  0.2042 -0.2718
 3119W        W18736   4.053   1.407  12.129 -0.2101 -0.2417 -0.1975
 3120W        W18737   9.638  16.573   2.023  0.0366 -0.3313 -0.1108
 3121W        W18738  10.781  15.645  12.915  0.0230 -0.2098  0.1069
 3122W        W18739  16.101   0.526  14.933  0.0036 -0.3312  0.0196
 3123W        W18740   9.768   0.513  14.138 -0.1490  0.0846 -0.0742
 3124W        W18741   4.703   9.139  10.662 -0.2468  0.1103  0.1714
 3125W        W18742  16.531  16.207   4.653 -0.0528 -0.0395  0.1949
 3126W        W18743  19.070   4.132   4.250  0.1154  0.1980 -0.3278
 3127W        W18744   6.326   6.934  12.223  0.1021  0.0327 -0.1628
 3128W        W18745   0.256   7.231   3.740  0.1036 -0.1240  0.2217
 3129W        W18746  14.454   3.983  11.915  0.2334  0.3825  0.2505
 3130W        W18747  18.716   5.981  12.195  0.0829  0.1831  0.1506
 3131W        W18748  17.346  18.187   2.702  0.2203 -0.0103  0.0983
 3132W        W18749   9.088   6.206   1.621 -0.2068  0.1302 -0.0370
 3133W        W18750  14.602  12.301  15.051 -0.0764  0.0060 -0.0498
 3134W        W18751  15.051   1.633  13.756  0.2252  0.5062 -0.3294
 3135W        W18752   4.320   2.605   2.234  0.3668  0.3948  0.1531
 3136W        W18753  10.311  14.969   4.920 -0.1958 -0.2220 -0.0756
 3137W        W18754  14.755  14.830  13.287  0.1400 -0.0479 -0.3242
 3138W        W18755   4.042  12.488  13.161 -0.1511 -0.2815 -0.0038
 3139W        W18756  13.061   5.582  13.036  0.2170  0.3988  0.3250
 3140W        W18757   4.223  14.652   2.405  0.0563  0.0326 -0.0612
 3141W        W18758   6.816  18.674  12.441 -0.1585  0.2379  0.1255
 3142W        W18759   4.181   3.441   4.437  0.2972  0.1663  0.1990
 3143W        W18760  17.486  12.300  11.895  0.3419 -0.0064  0.0695
 3144W        W18761  18.445   6.589   1.384  0.1852 -0.0569  0.1563
 3145W        W18762  10.350  11.245   1.902  0.2018  0.3288 -0.1324
 3146W        W18763   9.881   6.413   4.307  0.0474  0.0189 -0.0385
 3147W        W18764  10.273   6.673   4.468  0.0125  0.5039 -0.3237
 3148W        W18765   4.657  10.147  15.256 -0.0055 -0.0116  0.1742
 3149W        W18766  16.432   0.238   3.715 -0.3169  0.3407 -0.3406
 3150W        W18767  16.342   1.929   2.082  0.0090 -0.2832  0.1718
 3151W        W18768   8.696  17.691  14.152  0.1834  0.2847 -0.0412
 3152W        W18769  10.075  11.434  14.260  0.1055  0.0365  0.2014
 3153W        W18770   2.549   9.201   1.397  0.0848 -0.2037  0.1976
 3154W        W18771   7.310   3.587   2.562  0.0772 -0.1702  0.1788
 3155W        W18772   3.072  16.156  10.451  0.0901 -0.0601 -0.0214
 3156W        W18773  13.396  16.747   1.701 -0.3173  0.4835 -0.0529
 3157W        W18774  12.374  12.520   4.907 -0.2118 -0.1520  0.0365
 3158W        W18775   1.367  13.512   4.769 -0.0375  0.1930  0.3266
 3159W        W18776   1.392   4.663  13.862  0.0223 -0.3413  0.0154
 3160W        W18777   0.300   6.605   1.707 -0.0359  0.1524  0.1907
 3161W        W18778   6.717  10.349  13.085 -0.5190 -0.0612  0.4055
 3162W        W18779   6.245  14.058   4.499 -0.0283 -0.2145 -0.1842
 3163W        W18780  13.899  17.177   0.183 -0.0804 -0.0143 -0.2603
 3164W        W18781   8.790  11.959   5.047 -0.0816  0.1383  0.0768
 3165W        W18782   3.285   4.414  12.235 -0.0703  0.0119 -0.0515
 3166W        W18783  18.451   0.334  11.840 -0.1597  0.2420  0.0087
 3167W        W18784   5.171   1.821  14.336 -0.1196  0.2245 -0.0505
 3168W        W18785   2.500  11.960  14.663 -0.2824  0.1555  0.2192
 3169W        W18786  16.454  18.215   0.708  0.1052 -0.1395 -0.0851
 3170W        W18787   0.188   8.408   4.706  0.2145  0.0314  0.2868
 3171W        W18788   7.003   4.689   2.537  0.3844  0.1356 -0.2860
 3172W        W18789  10.709  13.746  15.051 -0.2053  0.1909 -0.0850
 3173W        W18790   4.263  17.167  14.782  0.1221 -0.0595  0.1974
 3174W        W18791   9.173   1.708   1.631 -0.0193 -0.3255 -0.1007
 3175W        W18792   9.332   0.310  14.105 -0.1766  0.2232 -0.1868
 3176W        W18793   5.131  17.923  13.076 -0.0784 -0.0563  0.3169
 3177W        W18794  13.987   8.948  13.026 -0.1917 -0.0158 -0.1411
 3178W        W18795  12.181   5.700   2.071 -0.1474  0.0296 -0.0437
 3179W        W18796   7.652  15.598   3.063  0.2695 -0.0315  0.0099
 3180W        W18797  18.075   4.658   0.925  0.2523 -0.0173  0.1913
 3181W        W18798  10.444  16.639  13.864 -0.1219  0.6235 -0.2728
 3182W        W18799  17.163   6.902   2.913 -0.0412 -0.0514  0.2349
 3183W        W18800   5.575   7.299   1.705 -0.1864 -0.2085  0.1688
 3184W        W18801   1.966   4.771  13.639 -0.4065  0.3215  0.0106
 3185W        W18802   3.736  14.480   2.364  0.0164  0.2722 -0.1744
 3186W        W18803  18.589   0.024  14.655 -0.0810 -0.3636 -0.0465
 3187W        W18804  15.992   2.865  13.243  0.0430  0.0919  0.0924
 3188W        W18805  15.204  12.323   2.031 -0.2641  0.2154  0.3134
 3189W        W18806   8.808   0.612   2.472 -0.0925  0.0324 -0.0367
 3190W        W18807   6.788  18.890   2.070 -0.0569  0.2547 -0.1135
 3191W        W18808  14.524   8.245  10.686  0.0710  0.0656  0.2832
 3192W        W18809   8.361  13.103   4.949  0.2017 -0.1734 -0.0540
 3193W        W18810   5.700   6.644   0.177 -0.1362  0.2445  0.0944
 3194W        W18811   6.832   1.604   5.161  0.1415 -0.0502 -0.0417
 3195W        W18812   2.331   3.807   3.156  0.2979  0.0237  0.3797
 3196W        W18813   6.450  18.516  11.475 -0.1146  0.0053 -0.1632
 3197W        W18814  17.489  16.650   1.790  0.3783 -0.1867  0.2346
 3198W        W18815   5.277   9.939   3.419 -0.0430  0.0739 -0.1215
 3199W        W18816  17.974  18.967  11.829 -0.0075 -0.1578 -0.2794
 3200W        W18817   6.679  16.720  11.689 -0.1240  0.1552  0.0812
 3201W        W18818  12.066   4.834   1.403 -0.3454 -0.0413  0.0281
 3202W        W18819  15.558   1.258   0.852 -0.0164 -0.0202  0.1174
 3203W        W18820   6.680  15.558   2.789 -0.0146 -0.2639 -0.1477
 3204W        W18821   0.133   8.268   2.434 -0.1122  0.1741 -0.2860
 3205W        W18822  11.350   5.376   3.882  0.0489  0.0311 -0.1763
 3206W        W18823   8.425   3.641  11.238 -0.3036 -0.0151  0.0532
 3207W        W18824   5.373   0.876   4.240 -0.1226  0.2918 -0.0760
 3208W        W18825  17.693   2.110   5.059 -0.3432  0.0167  0.4998
 3209W        W18826   5.417  13.463  13.061 -0.2179 -0.2008  0.0764
 3210W        W18827   7.569   0.765  13.886 -0.3365  0.1022 -0.2501
 3211W        W18828   9.977  18.954   5.629 -0.3951 -0.3028 -0.1211
 3212W        W18829   1.983   2.735   3.604 -0.3149 -0.0232 -0.1608
 3213W        W18830   4.214  13.059  14.098  0.4206 -0.1769  0.2730
 3214W        W18831   8.175   1.072  12.673 -0.1214  0.0998  0.1680
 3215W        W18832  15.087   6.905   0.728 -0.2420  0.3130  0.3756
 3216W        W18833   7.146  12.979   2.816  0.1246  0.2074  0.0430
 3217W        W18834   8.587  11.375   0.289 -0.1778  0.1853  0.0357
 3218W        W18835  18.652   9.396  10.297 -0.0657  0.1724  0.0336
 3219W        W18836  14.668   3.203  13.733 -0.0362 -0.0157 -0.1800
 3220W        W18837  10.411   8.859   1.166  0.0611  0.1696  0.0630
 3221W        W18838  14.725   9.891   2.120 -0.0813 -0.1934 -0.2727
 3222W        W18839   3.083  13.258  11.815 -0.0435 -0.1584 -0.0510
 3223W        W18840  18.521  12.473  12.113  0.0074  0.0160 -0.0964
 3224W        W18841   9.090  14.303   3.366  0.2931 -0.4099  0.0427
 3225W        W18842   6.497   2.774   5.244  0.2576  0.0173 -0.0715
 3226W        W18843  18.602  16.448   9.556  0.1222 -0.0759  0.1190
 3227W        W18844   3.459   9.502  11.872 -0.1739 -0.0950 -0.2175
 3228W        W18845   2.678  15.657  12.869  0.2607  0.1701  0.1301
 3229W        W18846   5.116   0.467   4.521 -0.1640 -0.2647 -0.0601
 3230W        W18847   3.518   6.215  10.212  0.0102 -0.1433 -0.1946
 3231W        W18848  11.143  16.966   4.822  0.0735 -0.0955  0.1268
 3232W        W18849  18.344  17.616  13.999 -0.1960 -0.2770  0.0131
 3233W        W18850   6.960  10.550  12.699 -0.1657  0.0171  0.2154
 3234W        W18851   8.812   3.341  14.059  0.2687  0.1198 -0.1814
 3235W        W18852   6.296  19.032  10.632  0.1248  0.0616  0.0574
 3236W        W18853   8.442   7.766   3.102 -0.1614 -0.3697  0.0033
 3237W        W18854  14.864  11.570   5.032 -0.1406  0.1924  0.1077
 3238W        W18855   3.284   4.380   5.282 -0.0277  0.0285 -0.1601
 3239W        W18856  12.828   9.658   1.792 -0.1641  0.5853  0.3814
 3240W        W18857  11.362   4.476  12.352 -0.0613 -0.0667 -0.3646
 3241W        W18858  17.222  12.050  14.200  0.1230 -0.3161 -0.0238
 3242W        W18859   8.809  14.380   5.521 -0.1878 -0.0940 -0.3923
 3243W        W18860  14.950   7.987   2.688  0.2877  0.2190 -0.0909
 3244W        W18861  18.277   2.120   0.136 -0.2467 -0.1021 -0.1421
 3245W        W18862   0.766   7.634  14.592 -0.0759 -0.2376 -0.3571
 3246W        W18863   5.087   6.566   1.903  0.0886 -0.3464  0.2245
 3247W        W18864   0.915  13.271   1.246  0.2544  0.1606 -0.2314
 3248W        W18865   7.055   4.903  13.372  0.2074  0.2665 -0.2913
 3249W        W18866  14.486  17.087   2.300 -0.0078 -0.1785  0.0536
 3250W        W18867  15.739  18.591  11.208 -0.0718 -0.0396  0.0921
 3251W        W18868  10.690   4.253  12.556 -0.1145 -0.1565  0.0780
 3252W        W18869  12.496   6.863   2.008 -0.0906 -0.0666 -0.2744
 3253W        W18870  14.050   7.597   4.158  0.1107 -0.2661 -0.1863
 3254W        W18871  16.083  12.553   1.111  0.0231  0.0857 -0.0359
 3255W        W18872  17.079   0.074   9.541  0.0251 -0.0399  0.2464
 3256W        W18873  18.216  11.567  14.828  0.3264  0.0036 -0.2257
 3257W        W18874  10.278   0.283  14.676  0.2121 -0.2591  0.0188
 3258W        W18875   9.358  18.625   1.403 -0.1600 -0.1840 -0.0519
 3259W        W18876  17.297   6.218  11.103 -0.0418 -0.0846  0.2007
 3260W        W18877   5.736   7.600   2.223 -0.1119  0.1316  0.1948
 3261W        W18878   0.227  11.195   2.210 -0.1780  0.3851 -0.2806
 3262W        W18879  10.089  13.297   0.512  0.3338 -0.4605 -0.0826
 3263W        W18880  18.244   8.683  12.665  0.0069  0.0088  0.0008
 3264W        W18881   4.020   1.643   4.910  0.1863 -0.1391 -0.1010
 3265W        W18882  14.441  12.735   4.900  0.2552 -0.2546 -0.3089
 3266W        W18883  12.618   7.119   0.118 -0.0063 -0.0451  0.0491
 3267W        W18884  17.052   6.607   5.335  0.2930  0.3144  0.1533
 3268W        W18885   4.925  15.396  11.989  0.4899  0.1566 -0.1389
 3269W        W18886  14.749   6.248  13.702 -0.1205  0.3541 -0.0684
 3270W        W18887  18.012   6.346   5.330  0.2916  0.2021  0.0255
 3271W        W18888  14.279  15.476  12.502  0.0249  0.0502  0.2480
 3272W        W18889   8.522   4.415   0.736  0.1216 -0.0433  0.3102
 3273W        W18890   7.121  16.981   1.066  0.0705 -0.1152 -0.1362
 3274W        W18891   0.167   6.571   5.699  0.2954 -0.2652  0.1669
 3275W        W18892   4.592  15.204  14.154 -0.1486 -0.2764 -0.3590
 3276W        W18893  15.856  18.881   1.862  0.1429 -0.2979 -0.1260
 3277W        W18894  16.468   9.079  13.181 -0.0765 -0.0531  0.1440
 3278W        W18895  18.813  14.477   0.194 -0.2751  0.0709 -0.0267
 3279W        W18896  12.548  15.799  13.596  0.1538  0.0211 -0.0178
 3280W        W18897  18.110  16.814  11.106 -0.1046  0.0424  0.0304
 3281W        W18898  11.870  15.936  11.297  0.0599 -0.1862 -0.0692
 3282W        W18899   3.836   0.613   3.324 -0.0238 -0.2078  0.2641
 3283W        W18900   8.458  11.702   1.273 -0.3129 -0.0452 -0.2710
 3284W        W18901  10.424  11.949   4.672 -0.2477  0.1559  0.2354
 3285W        W18902  14.088  13.710   0.332  0.0376  0.2213 -0.4000
 3286W        W18903   8.034   6.361  14.329  0.0369  0.0263  0.1244
 3287W        W18904  17.056   9.359   5.439  0.2096 -0.0477  0.2577
 3288W        W18905  15.285   9.883   1.191 -0.4096  0.2747 -0.1561
 3289W        W18906  17.551  17.514   0.465  0.2149 -0.0829 -0.0238
 3290W        W18907   3.835  14.382   3.251 -0.1079  0.2750  0.1082
 3291W        W18908  14.652  13.468  14.880 -0.0996 -0.1977  0.0007
 3292W        W18909  17.885  15.131  10.264 -0.2349  0.2385  0.0166
 3293W        W18910  15.673  18.092  10.321 -0.4518 -0.0546  0.0403
 3294W        W18911   6.840  12.311  13.211  0.3912  0.0592  0.1770
 3295W        W18912  18.936  12.444   1.655  0.0157  0.0110 -0.3457
 3296W        W18913   0.657   4.750  13.276 -0.3892 -0.2995  0.0687
 3297W        W18914   0.345  15.222  12.911 -0.0081  0.3554 -0.0588
 3298W        W18915   1.021  11.501  13.920  0.1586 -0.1308 -0.1489
 3299W        W18916   9.428   8.882  11.059 -0.1776  0.0916 -0.0289
 3300W        W18917  18.639   4.665   1.274 -0.0513 -0.2153 -0.1367
 3301W        W18918  15.747  17.122  14.324  0.2370  0.1617  0.2306
 3302W        W18919   5.189  10.935  12.218  0.1565 -0.3691  0.0164
 3303W        W18920  17.222  18.546   1.693 -0.2033 -0.2568 -0.1113
 3304W        W18921  14.665   9.782  14.542  0.1523 -0.5043 -0.0966
 3305W        W18922  11.432  12.284   1.515 -0.1570 -0.1386  0.0309
 3306W        W18923  11.837   2.240   4.637 -0.1728 -0.2089  0.1426
 3307W        W18924  15.516  18.314   4.866 -0.0251  0.2950  0.1361
 3308W        W18925  11.238   8.117   0.553 -0.0535 -0.2006 -0.1182
 3309W        W18926  16.113  18.816   1.387 -0.1067  0.0931 -0.0865
 3310W        W18927  13.729  17.479  14.500 -0.0824 -0.1361 -0.1685
 3311W        W18928  15.105  11.513  12.837 -0.1280  0.3164 -0.2724
 3312W        W18929  12.709   8.744   9.473 -0.1493  0.1241  0.0223
 3313W        W18930  18.939   7.503   3.658  0.2289  0.0597 -0.0961
 3314W        W18931  16.710   3.886   1.068  0.1443 -0.1534 -0.0243
 3315W        W18932  11.241  11.582   2.298 -0.0193 -0.0484  0.2022
 3316W        W18933   6.649   8.951   3.337  0.0678  0.0703 -0.0453
 3317W        W18934   4.698   3.109   4.031 -0.2865 -0.0096 -0.1652
 3318W        W18935  11.374   5.467  13.182 -0.1111  0.1133 -0.2744
 3319W        W18936  18.012   3.326   1.470  0.1623  0.0482 -0.1486
 3320W        W18937  10.296  14.727  13.007  0.1017  0.1677  0.0433
 3321W        W18938   5.458   4.806  12.587  0.1142  0.0307  0.0234
 3322W        W18939  15.318  14.616  14.359  0.1143 -0.0175  0.1907
 3323W        W18940   1.947   3.971   3.422  0.0104  0.1238 -0.2958
 3324W        W18941  12.919  12.017   0.565 -0.1956  0.1876 -0.2172
 3325W        W18942   4.028   5.793  12.585 -0.0660 -0.2681 -0.2320
 3326W        W18943  17.364   1.351  13.820  0.1987  0.2076  0.0658
 3327W        W18944  16.660  14.620  10.632  0.1169  0.1245  0.3274
 3328W        W18945  12.610  17.631   3.971  0.2065  0.1713  0.0087
 3329W        W18946  11.734  15.297  14.533 -0.3353  0.2669  0.2083
 3330W        W18947   6.470   3.966   2.410 -0.3934  0.2586  0.1703
 3331W        W18948  13.645  14.930   4.615 -0.0116  0.0174  0.0800
 3332W        W18949   6.174   9.305   0.987 -0.1893  0.2233 -0.3714
 3333W        W18950   0.004  17.616  13.200 -0.0483  0.1381  0.2706
 3334W        W18951   4.163   0.790   1.396  0.1584  0.0810 -0.1241
 3335W        W18952   5.563   8.014   0.461  0.0367  0.0973 -0.1781
 3336W        W18953   0.978  12.088  12.769 -0.1875 -0.2054  0.0657
 3337W        W18954   5.889   6.913   1.734 -0.0656  0.1889  0.4118
 3338W        W18955   7.313  12.211  13.370  0.0092 -0.1265 -0.1904
 3339W        W18956  15.997  18.427  15.109  0.1016  0.2120  0.3222
 3340W        W18957  10.648   6.939  12.626 -0.2155 -0.1117  0.0222
 3341W        W18958   5.439   0.321  14.825 -0.0302 -0.1124 -0.0122
 3342W        W18959   1.342   6.416   2.260 -0.1489 -0.0660  0.1387
 3343W        W18960   3.133  18.619  14.836  0.0290  0.1085 -0.1675
 3344W        W18961  12.216   2.421  11.988 -0.0085 -0.2477  0.2236
 3345W        W18962   2.194   9.940  10.679  0.2079 -0.1211 -0.2526
 3346W        W18963  14.445  18.716  14.914 -0.0794  0.2127 -0.1886
 3347W        W18964   3.191   5.240  12.506 -0.3334 -0.0466  0.1553
 3348W        W18965   0.672  11.207   1.780  0.2510  0.1074  0.2985
 3349W        W18966   1.057   8.700   4.457  0.0547  0.2146  0.2255
 3350W        W18967   3.469  17.798  12.456  0.2600 -0.0785  0.0445
 3351W        W18968  12.674   7.556  12.310  0.1577  0.0536 -0.0497
 3352W        W18969  11.678  16.344  12.968 -0.1373 -0.0236  0.2173
 3353W        W18970  15.945  13.854  12.402  0.1423  0.0180  0.0734
 3354W        W18971  10.879   1.554  14.256 -0.0127 -0.1223 -0.0254
 3355W        W18972   4.133   1.629   2.820 -0.0793 -0.2020 -0.0175
 3356W        W18973   6.325   6.458   0.057  0.4180 -0.3128  0.1405
 3357W        W18974   6.528   8.326   0.710  0.3168 -0.0190  0.0103
 3358W        W18975  14.245  15.321   5.395  0.2648 -0.1179  0.2732
 3359W        W18976  10.245   5.208  14.974 -0.1549 -0.1250 -0.0368
 3360W        W18977  16.438  11.672   3.507  0.2363  0.0022  0.0718
 3361W        W18978   5.341   5.613  14.925 -0.2367  0.0653 -0.4990
 3362W        W18979   2.834  11.097  13.662  0.1708 -0.3956  0.1549
 3363W        W18980   5.223  17.351   2.853  0.0302 -0.1208  0.0163
 3364W        W18981   6.686   2.518   2.523 -0.1495 -0.0893 -0.1527
 3365W        W18982  11.368   8.272   4.630 -0.1823 -0.2395  0.1950
 3366W        W18983   5.101  11.793   1.713 -0.1083 -0.0201 -0.1414
 3367W        W18984   9.033   1.050  12.461 -0.0921  0.1676  0.0925
 3368W        W18985   0.765   5.748   1.484  0.0869 -0.0461 -0.0062
 3369W        W18986   6.562   5.581   2.116  0.1290 -0.2568 -0.3794
 3370W        W18987  14.144   2.536   4.824  0.1114  0.0104  0.0840
 3371W        W18988   8.208   0.558   1.305 -0.0742  0.0941  0.0975
 3372W        W18989  13.680  14.061   4.197 -0.0663  0.1876  0.0060
 3373W        W18990   5.847   2.321   3.019  0.1522 -0.4026 -0.0439
 3374W        W18991  15.855   7.671  14.396 -0.0524  0.1505  0.2602
 3375W        W18992  10.643   3.438   3.189  0.0659 -0.3248  0.1103
 3376W        W18993   3.867   3.420   2.517  0.1186 -0.3757 -0.1916
 3377W        W18994  10.512   0.989   4.883 -0.1454 -0.4052 -0.1894
 3378W        W18995  12.707  18.942  13.348 -0.0747  0.0372  0.0020
 3379W        W18996   9.152  16.499  13.899  0.0773  0.1915 -0.0105
 3380W        W18997   4.386   3.188  14.636 -0.6119 -0.0384 -0.1744
 3381W        W18998  15.999  14.839   2.687  0.3172  0.1917 -0.0041
 3382W        W18999   8.486  17.542   0.440  0.1203  0.2117 -0.2375
 3383W        W19000  12.870   2.986   2.045 -0.3522  0.0645 -0.0749
 3384W        W19001   9.990  12.130  12.385 -0.1411 -0.0778 -0.3718
 3385W        W19002   2.068  10.693   3.804 -0.0582 -0.3156  0.2660
 3386W        W19003   7.989  18.952  13.992  0.1140  0.0015  0.0688
 3387W        W19004   8.883   8.385   1.726  0.2055  0.0300 -0.1660
 3388W        W19005   4.830   1.625   1.397 -0.1571 -0.2105  0.1061
 3389W        W19006  14.804  15.278   9.467 -0.0485 -0.0136  0.2496
 3390W        W19007  11.710  11.835  13.728 -0.0995  0.1276  0.0641
 3391W        W19008  11.813  18.967  11.241  0.2299  0.1099  0.1984
 3392W        W19009  17.363  16.163   1.567  0.0888  0.1408  0.3409
 3393W        W19010  17.388  16.273   2.095  0.1246  0.2483  0.0317
 3394W        W19011  15.640  10.126   1.495  0.0625 -0.0684 -0.2219
 3395W        W19012   5.187   3.829  14.746  0.3000 -0.0014  0.2108
 3396W        W19013   0.250   4.173  14.798  0.0251  0.1402 -0.0861
 3397W        W19014  11.014  17.173  14.044  0.1472  0.0339 -0.0112
 3398W        W19015  15.123  10.241   1.537 -0.3678  0.0261  0.2859
 3399W        W19016   1.874  11.638   1.613  0.0190  0.0400 -0.0866
 3400W        W19017   2.299  17.889   1.021 -0.3838 -0.1841 -0.0511
 3401W        W19018   1.499  17.290  11.561  0.0783 -0.2816 -0.1142
 3402W        W19019   5.223  12.958   4.261 -0.3415 -0.3137  0.0250
 3403W        W19020   8.946   5.074   3.624  0.1216 -0.1833  0.3719
 3404W        W19021   7.878  10.919   1.198 -0.0347 -0.1449 -0.2174
 3405W        W19022   1.640   1.465  12.677  0.0346  0.4642 -0.2838
 3406W        W19023   0.088  16.473  13.707  0.2866  0.2707 -0.2590
 3407W        W19024  15.005   6.867   4.125 -0.1423  0.1376 -0.3281
 3408W        W19025   4.859   7.936   1.732 -0.0085  0.1056  0.3367
 3409W        W19026   7.130   0.068   3.294  0.1683 -0.2553  0.2589
 3410W        W19027   0.931   8.637   3.612 -0.1908  0.0513  0.2896
 3411W        W19028  12.663   6.203  13.705  0.2398  0.0662 -0.0412
 3412W        W19029  16.306   4.080  14.386 -0.1067 -0.1887  0.0147
 3413W        W19030  13.287   8.849   4.301  0.1407  0.0910 -0.0043
 3414W        W19031  10.217   4.520  13.162 -0.2874  0.1889  0.3517
 3415W        W19032  18.060  15.705  14.038 -0.0147  0.0827  0.2007
 3416W        W19033  13.412   5.727   4.994  0.0226 -0.0016  0.0827
 3417W        W19034   7.118   8.329   3.332  0.1448  0.2555  0.1930
 3418W        W19035  17.791  12.863  11.323 -0.1881 -0.2947 -0.4992
 3419W        W19036  12.773  12.948  13.377  0.0734 -0.1493  0.1696
 3420W        W19037   8.811   0.602  11.262 -0.1565  0.1076  0.0355
 3421W        W19038  10.504   0.241   2.542  0.2214  0.2527  0.1464
 3422W        W19039   2.991  10.990  11.801  0.0523  0.2713  0.0113
 3423W        W19040  16.890  13.593   3.152 -0.3129 -0.3469  0.1736
 3424W        W19041  18.614   9.760  11.265 -0.2158  0.1136 -0.0485
 3425W        W19042   5.499  14.857   2.600 -0.0108 -0.4669 -0.1011
 3426W        W19043   8.018   0.739   2.619  0.1372 -0.0424  0.2162
 3427W        W19044  11.502  10.637  14.453 -0.4300 -0.1048 -0.1926
 3428W        W19045  10.334  16.786   3.056  0.0333  0.1970 -0.0600
 3429W        W19046   2.975   4.803  12.035  0.0431 -0.1700 -0.0585
 3430W        W19047   8.007  14.436   2.421 -0.1029 -0.4371 -0.0364
 3431W        W19048   9.795  11.265   3.670  0.0773 -0.0344 -0.1571
 3432W        W19049   6.529   8.863   4.955 -0.0179 -0.0198 -0.1095
 3433W        W19050   6.551   0.411   1.048 -0.0080  0.2512 -0.2761
 3434W        W19051  14.380  14.940   5.035  0.0920  0.1202  0.0063
 3435W        W19052  13.916   1.449  11.753 -0.1327 -0.1761  0.0648
 3436W        W19053   3.347  11.508  10.284  0.0462 -0.0496  0.0924
 3437W        W19054  11.771   0.169  12.626 -0.0014  0.2837  0.0601
 3438W        W19055   4.331  11.103  12.153  0.5467 -0.0150 -0.3918
 3439W        W19056   1.276  13.534  13.032  0.2222 -0.1762  0.0493
 3440W        W19057   8.341  11.480   0.882 -0.0764  0.2322 -0.0263
 3441W        W19058   0.146  12.882  12.386  0.0448  0.0473  0.2151
 3442W        W19059  14.454   5.209  13.395  0.0219 -0.1826 -0.0030
 3443W        W19060   7.607  16.466   0.445 -0.0827  0.0982  0.5130
 3444W        W19061   1.606  14.273   2.384  0.1858 -0.1749  0.0781
 3445W        W19062  15.136   3.957   2.043 -0.0343 -0.2855  0.1828
 3446W        W19063   6.468   3.975  10.434 -0.2084  0.0773 -0.1967
 3447W        W19064   0.186   0.533  13.350 -0.1201  0.2326 -0.0371
 3448W        W19065   0.968   1.571  14.223 -0.0615  0.0435  0.3371
 3449W        W19066   5.162  15.861  11.359  0.0772  0.3915 -0.2193
 3450W        W19067  15.856  12.825  13.145 -0.1013 -0.1308 -0.5121
 3451W        W19068   1.330  13.173  10.157  0.2939  0.0230  0.2714
 3452W        W19069   4.790  12.448  11.568 -0.1365 -0.1697 -0.3130
 3453W        W19070  14.157  14.431  11.618  0.1413 -0.0526 -0.1412
 3454W        W19071   1.624  11.236   1.481  0.1639  0.0263  0.0027
 3455W        W19072  13.089  14.726   3.491 -0.0629 -0.1247  0.1137
 3456W        W19073   4.295  10.708   1.166  0.2862  0.0264 -0.2451
 3457W        W19074  16.624  13.393   2.362  0.2066  0.3826  0.0851
 3458W        W19075   8.257  19.075  10.959 -0.0047 -0.1225  0.0694
 3459W        W19076   6.195   3.081   3.867  0.0154 -0.0910 -0.1136
 3460W        W19077  14.015   5.350   3.399 -0.5340 -0.1221  0.1033
 3461W        W19078   2.984  16.678  12.938 -0.0503 -0.0076 -0.1025
 3462W        W19079  17.935   9.825  14.543 -0.0008  0.0159 -0.3576
 3463W        W19080  13.295   0.636   4.688  0.0697 -0.0524 -0.0031
 3464W        W19081   6.920   9.346   1.587 -0.2045  0.1718 -0.1075
 3465W        W19082   4.455   7.638   0.650 -0.0327 -0.0614 -0.0098
 3466W        W19083   2.112  11.603  14.072 -0.2561 -0.1224  0.1929
 3467W        W19084  11.021  10.857   3.377  0.0965  0.1681  0.1097
 3468W        W19085   5.219  10.310  11.539 -0.1200  0.2694 -0.3727
 3469W        W19086  18.309   8.253   1.977  0.2618  0.3838  0.0227
 3470W        W19087  12.818   5.539  13.754  0.1122 -0.0007 -0.0623
 3471W        W19088   8.524   4.501   2.979  0.1241  0.1301 -0.0799
 3472W        W19089  14.137  17.019   4.045 -0.0371 -0.2641  0.0972
 3473W        W19090  12.991   0.971  12.993  0.0924 -0.1264  0.1750
 3474W        W19091   1.946   0.993  10.551  0.2244  0.1231 -0.1345
 3475W        W19092   1.593   7.001   1.622 -0.0721  0.0342 -0.1945
 3476W        W19093   1.725  15.462   4.879  0.0597  0.0241 -0.5156
 3477W        W19094  15.485   7.653   2.737 -0.0611  0.1088  0.1249
 3478W        W19095  13.661   6.971  14.475  0.1120 -0.1936  0.0851
 3479W        W19096   0.399  12.482   0.608  0.1772 -0.1439 -0.1938
 3480W        W19097   6.975   0.765   3.930  0.2257  0.3808 -0.1408
 3481W        W19098   2.406  15.634   2.755  0.1282 -0.0160  0.1501
 3482W        W19099   5.034  15.482  13.238  0.1065 -0.0360  0.2728
 3483W        W19100   9.728  14.532   1.303  0.0381 -0.2523  0.2052
 3484W        W19101   8.277   6.301  10.212  0.0216 -0.3348  0.0578
 3485W        W19102  12.844  16.959  11.540 -0.0466  0.0143  0.1329
 3486W        W19103   3.078   0.171  13.816 -0.3915 -0.1638 -0.0822
 3487W        W19104  10.393  11.748   0.766  0.0479  0.1196  0.0540
 3488W        W19105   3.093   2.997  11.385 -0.1949  0.0255  0.1051
 3489W        W19106   9.844   2.277   1.086  0.2932  0.1025  0.0879
 3490W        W19107   2.981  14.068   5.195  0.2620 -0.2030  0.0384
 3491W        W19108   4.269   9.208   1.621  0.2420  0.1935 -0.0321
 3492W        W19109  14.652  18.618   5.297 -0.0663 -0.0522  0.3498
 3493W        W19110   6.019  10.288   0.727  0.3240  0.0496  0.2364
 3494W        W19111   3.686  16.743   0.677 -0.0687 -0.2356 -0.0273
 3495W        W19112   8.075   3.461   5.346  0.0633 -0.0216  0.0566
 3496W        W19113  16.661   3.450  14.514 -0.0337  0.0704 -0.0602
 3497W        W19114   8.646   4.804  14.194  0.0612  0.2633 -0.1254
 3498W        W19115  10.066   2.683   1.536  0.1836  0.1189 -0.1125
 3499W        W19116  17.281  18.986  14.849 -0.1238 -0.0917  0.0949
 3500W        W19117   9.818  11.405  13.273  0.1976 -0.0796  0.2681
 3501W        W19118   3.096   0.669   3.399  0.1777 -0.0101 -0.3161
 3502W        W19119  11.718  16.038   9.755  0.1807  0.0256  0.0994
 3503W        W19120  17.028  17.993   1.951 -0.1000  0.2403  0.1327
 3504W        W19121   3.832  10.196   4.210 -0.3161  0.2860  0.0524
 3505W        W19122   7.679  15.134   5.447 -0.0531 -0.0351  0.0256
 3506W        W19123   1.458   5.845   2.268  0.1110  0.0812  0.0347
 3507W        W19124   1.456  11.872   4.394  0.1696 -0.0644  0.0686
 3508W        W19125  14.692  14.917   1.574 -0.2056  0.2246 -0.1106
 3509W        W19126   2.472   2.813   3.730  0.1911 -0.1245  0.0651
 3510W        W19127  15.062  14.335  11.490  0.3730  0.0011  0.2413
 3511W        W19128   2.462   1.686  13.555 -0.1657  0.0447  0.0438
 3512W        W19129   7.631  15.937   0.709  0.0251 -0.0414 -0.0499
 3513W        W19130  11.690  17.622   0.388  0.0381  0.1245  0.0632
 3514W        W19131  16.326  11.836  10.640 -0.0768  0.3894 -0.1613
 3515W        W19132   5.035   1.828   4.702  0.2721  0.0390 -0.0626
 3516W        W19133  15.306  18.635   1.530 -0.2123  0.0568  0.3009
 3517W        W19134   5.182   8.255   4.334  0.1482  0.0636 -0.0579
 3518W        W19135  15.922   1.703   3.970 -0.1996  0.0487  0.1223
 3519W        W19136  13.301  14.508   0.838  0.1077  0.0338 -0.0689
 3520W        W19137  16.342  17.472  10.791 -0.0758  0.1159 -0.1776
 3521W        W19138   1.172  10.463   1.863  0.2252 -0.3556 -0.0521
 3522W        W19139  12.628  16.093   1.256 -0.0126 -0.4367 -0.0432
 3523W        W19140   4.035   6.334  14.706  0.0489 -0.0443 -0.2091
 3524W        W19141   1.356  17.005   0.240  0.4496  0.0217 -0.0477
 3525W        W19142   3.631  18.127  13.876 -0.0458  0.3080  0.0126
 3526W        W19143   0.107   0.736  11.873 -0.5638 -0.1543  0.2112
 3527W        W19144   1.433   0.962   3.737  0.1217  0.2794 -0.2203
 3528W        W19145   0.207  11.094   0.114  0.2725 -0.1489 -0.0134
 3529W        W19146   5.842   1.909   6.284 -0.0008 -0.0825  0.0777
 3530W        W19147   3.475  15.427  10.956 -0.2878  0.1195 -0.1823
 3531W        W19148  10.501   5.090   3.228  0.2121  0.0224  0.2163
 3532W        W19149  14.841  15.613  11.608  0.0473 -0.1225 -0.3015
 3533W        W19150   7.972  16.353  11.360 -0.3676  0.2545 -0.1875
 3534W        W19151  14.620   7.422   4.997 -0.0664 -0.0469 -0.0712
 3535W        W19152  15.585  18.088   2.088  0.0087 -0.0010 -0.3120
 3536W        W19153   4.427  17.547   3.386  0.3704  0.1042  0.0278
 3537W        W19154   5.144   0.638  11.915  0.0867 -0.4013  0.1962
 3538W        W19155  16.257  11.786  14.142 -0.1422 -0.2806  0.0174
 3539W        W19156  18.377   2.235  11.961  0.0535  0.2328  0.2213
 3540W        W19157   6.059   9.505  14.553  0.0323  0.0473 -0.1111
 3541W        W19158  12.603   1.456  15.214  0.0242  0.1476 -0.2329
 3542W        W19159  13.633   8.834   2.990  0.1760  0.2250  0.2012
 3543W        W19160   6.286   6.816   4.333  0.2134  0.0361 -0.0242
 3544W        W19161  10.350   4.595   4.603 -0.0400  0.0627  0.2417
 3545W        W19162  16.475   3.675  13.434 -0.0859  0.1584  0.0875
 3546W        W19163   8.111  13.318  14.952 -0.0790  0.0180  0.1951
 3547W        W19164  10.210   0.722  10.026 -0.2273  0.0456 -0.2025
 3548W        W19165   4.021  12.073  11.247  0.1708  0.2910 -0.0904
 3549W        W19166   5.530   1.590  11.108  0.1596  0.2127 -0.0838
 3550W        W19167   1.272  10.538  13.108  0.1958 -0.1768 -0.3335
 3551W        W19168   9.459  16.575  13.484  0.3348 -0.0765  0.1996
 3552W        W19169  10.448   5.601  13.136  0.0013  0.1697 -0.0387
 3553W        W19170  16.387  14.501  11.963  0.0723  0.0903  0.0836
 3554W        W19171  14.611   2.332  14.097  0.0031 -0.2946  0.0351
 3555W        W19172  15.323  15.083   4.832 -0.0429  0.4153  0.4832
 3556W        W19173   5.405  16.428  11.424  0.0025 -0.0035 -0.2843
 3557W        W19174   6.655  18.330   2.782 -0.1794  0.0518  0.1182
 3558W        W19175  12.228   6.070  10.536 -0.1333  0.2795  0.0058
 3559W        W19176  16.078   8.448   0.394 -0.1642 -0.2512 -0.3897
 3560W        W19177  14.096   6.480  14.909 -0.0595 -0.3044  0.0286
 3561W        W19178   2.272   6.132   1.115  0.0097  0.1655  0.1593
 3562W        W19179  11.939  13.879  12.679  0.0032 -0.2745 -0.0213
 3563W        W19180   7.019  10.657   3.500  0.3278 -0.0154 -0.4860
 3564W        W19181   0.242   3.197   5.186 -0.2897 -0.2649  0.0130
 3565W        W19182   2.513   7.893   2.843 -0.0870  0.1407  0.1782
 3566W        W19183   5.761  10.364   2.262 -0.0773 -0.2169  0.0563
 3567W        W19184   7.974  17.278   0.444 -0.0330  0.3130 -0.1141
 3568W        W19185   2.821   6.295  11.146 -0.0966  0.0137  0.0747
 3569W        W19186   5.713   4.860  13.121  0.2510  0.1085 -0.1770
 3570W        W19187   0.369   8.124   2.944 -0.1567  0.0350 -0.2279
 3571W        W19188  15.188  17.436  13.673  0.0425  0.1853  0.1268
 3572W        W19189   0.218   8.595  12.542  0.0497  0.0533  0.0751
 3573W        W19190  13.032  13.670   2.380  0.0335 -0.0101  0.0253
 3574W        W19191  17.830   3.295  11.943 -0.0561 -0.0426  0.2857
 3575W        W19192   3.994   7.517   4.881 -0.0143  0.1715  0.0329
 3576W        W19193  12.290  17.921  11.608  0.2021  0.1477  0.2425
 3577W        W19194  11.273   7.637  10.523  0.3172 -0.0959  0.1760
 3578W        W19195   8.996  13.403  13.302 -0.0506 -0.4213  0.1288
 3579W        W19196   5.708   7.802  10.538 -0.1058 -0.2115 -0.3298
 3580W        W19197  18.435   5.386  11.809  0.0348  0.3648  0.4072
 3581W        W19198  18.919   2.355   1.701  0.3087 -0.1226  0.2097
 3582W        W19199   7.909  18.391  14.130  0.3577 -0.3610 -0.2208
 3583W        W19200   3.242  11.049  12.464 -0.2688  0.0696  0.0662
 3584W        W19201   8.403  10.026   5.757 -0.1501 -0.0305  0.2906
 3585W        W19202  16.209   1.774   3.235  0.1231 -0.2298  0.1765
 3586W        W19203  18.858   6.020  14.764 -0.0060 -0.0377  0.0181
 3587W        W19204   0.591   5.845   4.514 -0.4887  0.1282 -0.0355
 3588W        W19205  10.254   4.391   2.823  0.1990 -0.0424 -0.2466
 3589W        W19206   5.645   8.275   5.111 -0.0413 -0.1802  0.0877
 3590W        W19207   8.282   8.671   0.310  0.1822  0.1302  0.4194
 3591W        W19208   7.599   1.314  13.493 -0.1916  0.2166 -0.1935
 3592W        W19209  10.387   6.118  13.029 -0.1171 -0.0502 -0.2102
 3593W        W19210  10.105   7.968   3.651  0.1888 -0.0963 -0.1541
 3594W        W19211   3.902  10.856  10.882 -0.1925  0.1481 -0.1212
 3595W        W19212   9.522   2.979   3.096  0.5780 -0.1598 -0.1986
 3596W        W19213   6.936  12.361   2.047 -0.0320 -0.0914 -0.2215
 3597W        W19214  16.403   1.745   3.938 -0.1328 -0.2780  0.4141
 3598W        W19215   1.956  14.989   3.081  0.2859  0.3086 -0.1458
 3599W        W19216  14.521  12.219   2.689 -0.0111  0.0049 -0.0875
 3600W        W19217  12.576  17.813  12.180  0.0585 -0.1858  0.0335
 3601W        W19218  14.413   8.490   0.400 -0.2372 -0.0583 -0.0217
 3602W        W19219   7.403  10.045  13.642  0.1027 -0.3260  0.1302
 3603W        W19220  14.699   8.736   1.559  0.1377 -0.0860 -0.0227
 3604W        W19221  16.635  14.498  14.068  0.0674 -0.0247 -0.0067
 3605W        W19222   6.591  17.738  12.034  0.4156  0.1114 -0.1187
 3606W        W19223  12.746  18.903  14.947  0.1339 -0.0418 -0.0541
 3607W        W19224   3.927   4.693  14.877  0.0078  0.1949  0.2115
 3608W        W19225   9.188   1.479  11.218  0.1644 -0.1406 -0.2853
 3609W        W19226   8.449   5.441  10.673 -0.0176 -0.1471 -0.2707
 3610W        W19227  13.291  18.006  14.935 -0.1763 -0.2593  0.2632
 3611W        W19228  15.279   3.277  11.016  0.1384  0.2209  0.0077
 3612W        W19229   2.991   6.338   1.563 -0.0892  0.1059 -0.1505
 3613W        W19230   3.898   7.069   2.118  0.0928  0.2228  0.2202
 3614W        W19231   9.282  15.900  14.415  0.4256 -0.1756 -0.0230
 3615W        W19232  16.919   1.937   3.836 -0.0757  0.0996 -0.0534
 3616W        W19233   3.719  16.776   4.893 -0.1601 -0.3230  0.0687
 3617W        W19234   0.240  11.827  11.837 -0.1395  0.0656  0.0456
 3618W        W19235   4.724  14.636  13.819  0.0167 -0.0181  0.1550
 3619W        W19236   0.759   6.798   4.623 -0.1236 -0.0098 -0.1194
 3620W        W19237  15.709   0.874   0.485 -0.1137  0.1216 -0.1086
 3621W        W19238   2.829   7.879   4.473 -0.1594 -0.4194  0.1791
 3622W        W19239   5.665   7.418  10.820  0.0671 -0.0332 -0.3375
 3623W        W19240   2.352  18.294   1.336 -0.2394 -0.1188  0.0253
 3624W        W19241   2.963   6.684  10.233  0.1468  0.2471 -0.0608
 3625W        W19242  11.629  14.464   0.714  0.1959  0.1333  0.0708
 3626W        W19243  15.372   3.014   4.199  0.2604 -0.1217 -0.2030
 3627W        W19244   4.131  15.956   4.115  0.0011  0.3673  0.0287
 3628W        W19245   5.358  17.030   4.280  0.2191  0.2670  0.2406
 3629W        W19246   5.518  17.164  10.973  0.1570 -0.0211  0.1293
 3630W        W19247  15.352  15.683   1.665  0.1434  0.2050  0.0300
 3631W        W19248   0.067  14.204  14.385 -0.1176 -0.2555  0.2626
 3632W        W19249  10.756   0.811   3.018 -0.1383 -0.4107 -0.0990
 3633W        W19250   5.258  13.004  12.101  0.0947 -0.0329  0.1831
 3634W        W19251  14.118   5.218   1.829  0.1676 -0.1221 -0.0324
 3635W        W19252  16.893  13.203  10.345 -0.2446  0.1462 -0.0066
 3636W        W19253  10.544  15.589   1.434 -0.0192  0.2557  0.0202
 3637W        W19254   2.343   4.863   3.618 -0.0674 -0.1455 -0.0638
 3638W        W19255   3.157  12.922  12.628 -0.1287 -0.3192 -0.3988
 3639W        W19256  13.357  11.224   1.230 -0.4559 -0.1946 -0.0161
 3640W        W19257  14.108  17.163   0.722  0.1153  0.1221 -0.3626
 3641W        W19258  11.353  13.256   5.223  0.0412  0.1303  0.2181
 3642W        W19259   2.948  12.715  15.095 -0.1055 -0.0622  0.0601
 3643W        W19260  10.218  17.902  11.299 -0.0592 -0.1238  0.1508
 3644W        W19261  16.629   7.037  13.268  0.0974  0.0822 -0.0347
 3645W        W19262   8.574   2.480  11.748  0.2196 -0.1191 -0.0327
 3646W        W19263  13.646   8.436   3.913  0.1757 -0.0979  0.4055
 3647W        W19264   6.847   9.280   2.317  0.0383 -0.0879 -0.0004
 3648W        W19265  11.541   0.757  13.913  0.0855  0.1487 -0.1733
 3649W        W19266   4.614   3.828   1.086  0.4142  0.4437  0.2422
 3650W        W19267  10.656  12.412  13.029 -0.2846 -0.0776  0.1187
 3651W        W19268  13.464   1.476  12.499  0.0362  0.0511  0.1045
 3652W        W19269  15.766  13.704  10.991  0.1379  0.0632 -0.3129
 3653W        W19270   7.405   8.562   0.630  0.0888  0.0319 -0.0532
 3654W        W19271   4.039   1.678  12.650  0.0939 -0.2497 -0.0428
 3655W        W19272   6.662   9.861   2.258 -0.1849 -0.2157  0.0880
 3656W        W19273   5.991  11.848   0.327  0.0685  0.0847  0.0250
 3657W        W19274   2.569   9.466  14.859 -0.1194  0.1341  0.4187
 3658W        W19275   6.985   6.620  13.475 -0.1559 -0.1412  0.0157
 3659W        W19276  15.665  14.960   4.456  0.0207 -0.2439 -0.1448
 3660W        W19277   9.404  18.191  10.821 -0.1171  0.2951  0.1891
 3661W        W19278  13.214  11.244  14.721 -0.0328  0.4748 -0.1654
 3662W        W19279   6.822   1.168   2.132  0.2997 -0.3055  0.2074
 3663W        W19280  11.367   2.220   4.836 -0.2434 -0.0911  0.0754
 3664W        W19281  16.008   6.645   0.391 -0.0853 -0.3654 -0.0142
 3665W        W19282  12.877   1.425   9.994  0.0009 -0.0463  0.1267
 3666W        W19283  11.817   9.092   4.636  0.1716 -0.2751  0.0872
 3667W        W19284   8.894  17.529  11.461  0.0144  0.2047  0.1315
 3668W        W19285  19.021  17.151  12.306  0.2022  0.0958  0.1272
 3669W        W19286  17.935  10.695   3.857 -0.0168 -0.2979  0.0593
 3670W        W19287   0.854  16.823   0.815 -0.2269  0.1684 -0.1114
 3671W        W19288   5.094  11.027  10.816 -0.0534 -0.0437 -0.0130
 3672W        W19289   0.200   5.348   3.707 -0.4173 -0.1253 -0.0335
 3673W        W19290  13.138   9.432  12.489 -0.0401 -0.0228 -0.2309
 3674W        W19291  15.974  14.005   5.291  0.0235 -0.2274  0.0645
 3675W        W19292   2.070  12.501   2.760 -0.0167 -0.1054  0.1014
 3676W        W19293   6.646  12.648  15.036  0.0886  0.1669  0.2756
 3677W        W19294   0.831   6.312  14.806 -0.0362 -0.2263  0.2002
 3678W        W19295   0.133  17.799  10.501 -0.1025 -0.1690 -0.0413
 3679W        W19296   9.432  16.363  10.201  0.0917 -0.1011 -0.1693
 3680W        W19297  13.452  12.138   1.592  0.1386  0.0549  0.1726
 3681W        W19298  14.045   8.194   0.013  0.0301 -0.2060  0.0233
 3682W        W19299  15.312   5.269   3.848 -0.2234  0.2704 -0.0183
 3683W        W19300  12.623   8.434  14.652  0.1022  0.1176  0.0491
 3684W        W19301   8.285   5.369   1.885 -0.0399 -0.1775  0.3236
 3685W        W19302   6.752   1.907   2.927 -0.1712 -0.1067 -0.0284
 3686W        W19303   0.707   2.133   4.432 -0.1496  0.2529  0.1585
 3687W        W19304  17.206   9.608   1.852  0.3352 -0.1588  0.2298
 3688W        W19305   6.184   6.232   3.456  0.0834 -0.2944 -0.2754
 3689W        W19306  14.888  16.225   4.856 -0.1279  0.0023 -0.0647
 3690W        W19307   0.849  11.029   9.368  0.0139 -0.0134  0.1383
 3691W        W19308   3.276   4.726  11.222 -0.4698  0.1395 -0.1311
 3692W        W19309  16.259   0.265   3.183  0.0965  0.2861  0.1382
 3693W        W19310   6.155   8.239   5.390 -0.1412  0.0251  0.1166
 3694W        W19311   9.951  13.577  13.270  0.0506 -0.2056 -0.0558
 3695W        W19312   6.151   6.630   0.513  0.1775  0.1725 -0.1093
 3696W        W19313  16.164  13.357  11.471  0.4116 -0.1147 -0.1675
 3697W        W19314   2.565  12.935  12.614 -0.2246  0.1407  0.3926
 3698W        W19315   4.864   9.324   3.664 -0.2154 -0.0613 -0.1906
 3699W        W19316  16.456   8.225  14.510  0.2124 -0.0391 -0.2195
 3700W        W19317   8.817  13.912  12.405  0.1257  0.0238  0.1405
 3701W        W19318   2.588   8.293   3.381  0.3074  0.1245  0.1494
 3702W        W19319   2.876   1.574   2.873  0.0803 -0.3965  0.3465
 3703W        W19320   6.003  10.652   5.638 -0.0573 -0.4736  0.0119
 3704W        W19321  15.851   3.026  13.953  0.2217  0.0162  0.1025
 3705W        W19322   1.003  13.956   9.644 -0.2258  0.0667 -0.4511
 3706W        W19323   1.356  16.843  11.655 -0.1741 -0.2243  0.2931
 3707W        W19324   5.497   3.341   5.406 -0.0393 -0.0040 -0.2084
 3708W        W19325  15.274   7.561  15.120 -0.4105  0.0541 -0.1791
 3709W        W19326  17.728   2.395  11.423  0.1625 -0.1376  0.0264
 3710W        W19327  10.941   7.031  11.461  0.1622  0.1708 -0.0252
 3711W        W19328  18.238   3.714   1.600  0.1084  0.0279 -0.1388
 3712W        W19329  18.865   5.619  12.559  0.3067  0.0511  0.0144
 3713W        W19330   3.288   7.153  14.791  0.1989  0.0202 -0.1024
 3714W        W19331  12.292  10.909   4.275 -0.1405 -0.0595  0.1751
 3715W        W19332  13.650  16.204   4.561 -0.0562 -0.0699 -0.0044
 3716W        W19333  15.077   8.591   9.839  0.0249 -0.2040  0.0453
 3717W        W19334   5.468   8.132   3.647  0.1374  0.1174 -0.1650
 3718W        W19335  11.069   0.177  10.464  0.1436 -0.2275 -0.4678
 3719W        W19336   0.897   4.252   0.724 -0.1315 -0.4814  0.0414
 3720W        W19337   2.154   7.871  14.567 -0.1652  0.2289  0.3784
 3721W        W19338  16.465   6.934   4.853  0.0396 -0.0142 -0.3401
 3722W        W19339   4.606   5.676   0.844  0.1556 -0.1110 -0.0244
 3723W        W19340   5.720  18.964  12.640 -0.0218 -0.1302 -0.0719
 3724W        W19341  14.779  18.369  12.789  0.2655 -0.5270  0.1490
 3725W        W19342  17.340  13.725   1.173 -0.3444 -0.0183  0.3279
 3726W        W19343  11.609  16.810   3.978  0.0063 -0.0191  0.0295
 3727W        W19344   1.417   3.481   1.132  0.2080 -0.1339 -0.0413
 3728W        W19345  18.419  16.981  14.180  0.5135  0.0315  0.2837
 3729W        W19346   2.689   3.536  12.398 -0.1520  0.0011  0.1106
 3730W        W19347  10.607  14.575   2.573  0.1440  0.0981 -0.2030
 3731W        W19348   0.910  18.076  12.761  0.2000  0.0050 -0.3049
 3732W        W19349   9.237   0.944  11.456 -0.2367 -0.2230 -0.0141
 3733W        W19350  14.853  17.204  11.928  0.3046  0.0578 -0.0515
 3734W        W19351   0.637   3.266  10.709  0.1828  0.0918 -0.0581
 3735W        W19352   3.353   1.069  11.059  0.4278 -0.1549  0.0308
 3736W        W19353   5.218   4.919  13.494 -0.1023 -0.2151  0.0272
 3737W        W19354   8.456   0.501  14.997  0.0380 -0.0307 -0.0811
 3738W        W19355   2.682   8.750   9.727 -0.0418  0.0426  0.0161
 3739W        W19356  11.172   4.211   0.183  0.1535  0.2335 -0.0553
 3740W        W19357  10.737   2.317   3.147 -0.1096  0.0740 -0.0441
 3741W        W19358  12.280  13.230  11.016 -0.2767 -0.0960 -0.3353
 3742W        W19359  17.472   9.994  13.190 -0.1255  0.3533 -0.2193
 3743W        W19360   0.876   0.436  13.928  0.0483 -0.4014  0.2293
 3744W        W19361   1.961   6.380  13.651  0.0379  0.1678  0.3084
 3745W        W19362   1.124   8.210   1.169 -0.0418 -0.1040  0.0810
 3746W        W19363  10.067   7.368   0.054  0.4055  0.1430 -0.0286
 3747W        W19364   0.958   0.414   3.600 -0.0749 -0.0181  0.0251
 3748W        W19365  11.838  14.111   2.554  0.2768  0.0916 -0.0006
 3749W        W19366  13.607  15.485   3.309  0.4028  0.3429  0.2583
 3750W        W19367   4.726   3.903  12.309 -0.4469  0.3576 -0.1526
 3751W        W19368  17.067  12.393   3.328 -0.2100 -0.2250 -0.3133
 3752W        W19369   1.451   1.543   4.429  0.3452  0.1459  0.0377
 3753W        W19370  16.827  13.711  10.835 -0.0919 -0.2356 -0.3317
 3754W        W19371   6.271   4.656  12.864  0.0625  0.2021  0.0830
 3755W        W19372   2.067  15.628  14.150 -0.0434 -0.0507  0.0157
 3756W        W19373  11.793   4.955  11.504  0.0478  0.1723 -0.0645
 3757W        W19374   7.469  16.039  12.358 -0.0651 -0.0496  0.0666
 3758W        W19375   5.301   8.083  12.215  0.1919  0.1702  0.4818
 3759W        W19376   7.307   6.874  13.116  0.0598 -0.0324 -0.2645
 3760W        W19377   4.323  14.528   5.519  0.2296 -0.2095  0.0169
 3761W        W19378   3.915   5.590  13.108 -0.2953  0.0950  0.0328
 3762W        W19379   1.316   7.007   1.222 -0.0460 -0.0578  0.2802
 3763W        W19380  13.521   1.362  10.942 -0.1083 -0.2540  0.4833
 3764W        W19381   4.303  14.504  11.063  0.2496 -0.1306 -0.2315
 3765W        W19382  14.792   6.928  10.760  0.1250  0.2216  0.3080
 3766W        W19383   0.684   8.275  12.790 -0.2844 -0.2270  0.3754
 3767W        W19384   5.878   7.413   4.254  0.0189 -0.1615 -0.3648
 3768W        W19385  12.902  18.662  11.290 -0.2046  0.2301 -0.1510
 3769W        W19386  11.337  15.076   2.062  0.0483 -0.3318 -0.0455
 3770W        W19387  17.930  17.689  13.693  0.0730 -0.2010  0.1673
 3771W        W19388   0.633  17.658   2.869 -0.1538 -0.2595 -0.1331
 3772W        W19389  15.752  11.879  13.266 -0.1165  0.1441  0.1868
 3773W        W19390  15.991  17.864  14.927 -0.2415  0.0073 -0.1166
 3774W        W19391   2.729   6.045   0.117 -0.1445 -0.2889 -0.0185
 3775W        W19392   6.409   1.079  11.796  0.0222 -0.1394 -0.0226
 3776W        W19393  16.963  14.867   1.334 -0.0229 -0.1967 -0.1413
 3777W        W19394   4.134   9.506  14.163 -0.0345  0.0333  0.1667
 3778W        W19395   3.908  12.812  11.658  0.0901  0.3560  0.0957
 3779W        W19396   9.618  15.549   1.302  0.2230  0.3070 -0.0271
 3780W        W19397   0.402   9.535  10.969 -0.1394 -0.3860 -0.0732
 3781W        W19398   1.989   0.662   2.529  0.2975 -0.0541 -0.1797
 3782W        W19399  15.151   3.940   4.269  0.1335  0.0485 -0.2667
 3783W        W19400   5.815   9.874  13.508  0.0843 -0.0408 -0.1381
 3784W        W19401  15.750   2.189  11.904 -0.3825  0.0167 -0.1710
 3785W        W19402  11.466   4.271  10.362 -0.1168 -0.1902 -0.0689
 3786W        W19403  17.405   2.383   0.871 -0.0045  0.0888  0.0504
 3787W        W19404   1.153  16.504   0.561 -0.1549 -0.1077 -0.3606
 3788W        W19405   6.034  10.975   2.645 -0.3707 -0.1226  0.1332
 3789W        W19406   4.605  12.369  11.041 -0.5197  0.3459  0.1055
 3790W        W19407   7.807   5.527   2.006  0.1266 -0.0178 -0.0927
 3791W        W19408   9.571  14.363   3.065 -0.2332  0.2198 -0.0672
 3792W        W19409   2.752   2.786  13.665 -0.2690  0.2139 -0.3861
 3793W        W19410   9.494   2.501   4.044  0.1997 -0.0567 -0.0111
 3794W        W19411   7.600   5.918  11.476 -0.0271 -0.3132  0.2797
 3795W        W19412  15.089  17.843   2.395  0.0366  0.2595 -0.3450
 3796W        W19413   6.464  17.931   0.369 -0.0780 -0.0936 -0.1212
 3797W        W19414  18.861   2.965   2.005  0.2004 -0.2109  0.2363
 3798W        W19415  11.626  12.528   1.038 -0.0192 -0.1547  0.0224
 3799W        W19416  11.808  14.884   1.970 -0.0397 -0.1860 -0.3668
 3800W        W19417  15.423  14.791   3.261 -0.1980  0.2652 -0.4141
 3801W        W19418   0.791   6.043   3.327 -0.0129 -0.1744 -0.0065
 3802W        W19419   5.546  14.587   4.481  0.1436  0.0548  0.0223
 3803W        W19420  16.492  17.552  11.264  0.0533  0.1554  0.1669
 3804W        W19421  18.408  19.019   3.420  0.2274 -0.1235 -0.1566
 3805W        W19422   9.929   9.247  11.957 -0.0111 -0.2371 -0.0058
 3806W        W19423  12.642   7.774  10.968 -0.0921 -0.1456  0.1027
 3807W        W19424  10.241   4.833   2.087  0.0987 -0.1861 -0.0622
 3808W        W19425  16.144  16.172  13.142  0.1155 -0.0524 -0.3531
 3809W        W19426   1.911  17.236   2.548  0.1967  0.1444 -0.2814
 3810W        W19427  13.142  11.288  13.000  0.0527  0.3205 -0.1411
 3811W        W19428  10.033  16.993  15.140 -0.3951  0.1911  0.0995
 3812W        W19429   5.173   0.848   2.679  0.1647 -0.0462 -0.0073
 3813W        W19430  14.508   4.899  13.772 -0.3011 -0.0229 -0.1994
 3814W        W19431   9.230   9.444  12.618 -0.2566 -0.2198 -0.1876
 3815W        W19432   0.860   7.660  11.164  0.1570 -0.1299  0.2826
 3816W        W19433   2.951   4.743  15.208  0.2521 -0.1441 -0.2003
 3817W        W19434   6.888   3.356  10.993  0.0113 -0.0271 -0.0803
 3818W        W19435  16.929   2.552   5.419  0.1680  0.2631  0.1406
 3819W        W19436   0.868   6.634  12.365  0.2045 -0.1015 -0.2002
 3820W        W19437  11.280   9.956  13.657 -0.2252 -0.3325  0.1861
 3821W        W19438  19.020   8.633   5.164 -0.0796  0.1513 -0.1141
 3822W        W19439   1.601   6.552   2.854  0.1110 -0.1880  0.0277
 3823W        W19440   8.396  12.954   3.511  0.0386  0.3205  0.0248
 3824W        W19441   7.202   7.991  14.469 -0.1170 -0.2556  0.3088
 3825W        W19442   4.965   9.552   2.424  0.0494 -0.0736  0.1022
 3826W        W19443   8.715  17.082  14.040  0.5124 -0.0673 -0.1623
 3827W        W19444  12.562   6.229  15.222  0.1604 -0.1183  0.0429
 3828W        W19445  13.143   4.751   1.678  0.2974  0.2878  0.1823
 3829W        W19446  10.471  17.948  13.233 -0.0569 -0.2097  0.1574
 3830W        W19447  15.713  12.687   2.296  0.2153  0.0241 -0.0164
 3831W        W19448  18.111   6.996  12.792  0.2997 -0.1334 -0.0693
 3832W        W19449   6.070  15.393   3.079 -0.2563 -0.0969  0.2963
 3833W        W19450   2.895   2.445   4.854 -0.2306 -0.0355 -0.1017
 3834W        W19451   0.102  17.589  14.207  0.0413 -0.1586 -0.1650
 3835W        W19452   6.937  10.539   4.630  0.1336  0.0662 -0.1160
 3836W        W19453  15.787  17.232  12.915  0.0542 -0.2023 -0.1619
 3837W        W19454  10.105  12.416   1.545  0.0045 -0.4386  0.2642
 3838W        W19455   3.269  10.958   4.515  0.0335 -0.3628 -0.0070
 3839W        W19456   5.181   7.602  12.616 -0.0983  0.1015 -0.0997
 3840W        W19457   6.519   9.168  13.115  0.1552  0.0517  0.0690
 3841W        W19458  11.628   6.505  14.268 -0.1649 -0.3382  0.1212
 3842W        W19459  15.345   3.614  13.263  0.0788 -0.0054  0.0058
 3843W        W19460   2.402  15.357  11.494 -0.0374  0.0813 -0.1404
 3844W        W19461   0.125   7.482   1.382 -0.3842  0.1340  0.1202
 3845W        W19462  10.991  16.793   2.015  0.0475 -0.0704  0.1161
 3846W        W19463  15.668   5.254   3.214  0.0085 -0.2157 -0.1867
 3847W        W19464  17.928   2.764   4.304 -0.0767 -0.0455 -0.0752
 3848W        W19465   1.709   7.739  12.718 -0.0325  0.4601  0.0063
 3849W        W19466   4.990   6.766   1.204 -0.2194  0.3046 -0.2859
 3850W        W19467   6.862   6.896   5.210  0.1538  0.2871  0.0692
 3851W        W19468  13.629   9.187  13.728  0.0595 -0.0645  0.3383
 3852W        W19469  15.540   6.122   3.386 -0.2053  0.4630  0.1861
 3853W        W19470  16.842  10.061   0.190 -0.1065 -0.0852 -0.5346
 3854W        W19471  15.652  10.466   0.608 -0.0422  0.1965 -0.2970
 3855W        W19472   2.124   0.195   5.431 -0.3420 -0.2804 -0.0684
 3856W        W19473   1.870   0.653   3.637 -0.2500 -0.2344  0.1559
 3857W        W19474   8.980  12.190   4.577  0.1717  0.3613 -0.0197
 3858W        W19475   3.685   9.809  14.334 -0.1224  0.0449  0.1288
 3859W        W19476  15.200  15.388   2.047 -0.1188 -0.0095  0.0971
 3860W        W19477  13.333   3.798  11.417  0.2510 -0.2999 -0.3040
 3861W        W19478  15.668   4.442  10.381 -0.0506  0.0343 -0.1517
 3862W        W19479  10.763   4.408  14.928  0.0084 -0.0088 -0.1511
 3863W        W19480   3.268   8.888  10.345  0.2556  0.0705  0.2004
 3864W        W19481  16.618  15.273   0.284 -0.1846  0.1442 -0.2548
 3865W        W19482  12.585  13.249  12.969 -0.2999  0.2368  0.2245
 3866W        W19483  18.122  11.233  12.976  0.0662 -0.0691 -0.0937
 3867W        W19484   5.124  13.441  11.741 -0.1179  0.1602 -0.1582
 3868W        W19485   5.154  10.331  12.378  0.0362 -0.1754 -0.1642
 3869W        W19486   3.559  11.983   3.357 -0.5968 -0.7690  0.1215
 3870W        W19487  16.230  17.962   0.135  0.2211 -0.1451  0.3668
 3871W        W19488  14.894  15.057   5.124  0.1032  0.2838 -0.0267
 3872W        W19489   1.100  13.054   3.097  0.1273 -0.2499 -0.0250
 3873W        W19490   7.865  16.382  12.387  0.0514 -0.0699  0.3144
 3874W        W19491   5.801   4.830   2.883 -0.0512  0.1829 -0.0929
 3875W        W19492  15.923  14.174   1.848 -0.0273 -0.1861 -0.1106
 3876W        W19493  18.554   6.340   2.731  0.4221 -0.0518  0.1825
 3877W        W19494   5.180  13.309   1.230 -0.2310  0.0048  0.1984
 3878W        W19495  12.058   4.214  15.043 -0.0439  0.0215  0.0281
 3879W        W19496   3.507  17.880  13.236 -0.3072  0.0034 -0.2226
 3880W        W19497   9.216   7.151  12.306  0.2073 -0.0206  0.0276
 3881W        W19498   0.384   4.327   4.626 -0.1525 -0.0977  0.0309
 3882W        W19499  16.064  11.897   0.332 -0.1822 -0.1581 -0.0272
 3883W        W19500   6.789   8.546  11.478  0.0210 -0.1250  0.1569
 3884W        W19501  10.127  16.324   3.779 -0.0507 -0.1143  0.3060
 3885W        W19502   3.554  14.693  11.882 -0.0548  0.0535  0.0337
 3886W        W19503   8.737   3.837  11.610  0.0994  0.2489  0.4985
 3887W        W19504   1.255  10.428   3.625 -0.0981 -0.4245 -0.0881
 3888W        W19505   3.297  10.442   9.527 -0.0313  0.0002 -0.2237
 3889W        W19506   9.728  12.647  11.743  0.0789 -0.0445 -0.2963
 3890W        W19507   3.296   3.825  14.386 -0.1160  0.0644 -0.0362
 3891W        W19508   7.142   8.851  12.374 -0.0862  0.1703  0.2877
 3892W        W19509   4.587   2.924  12.422 -0.1758 -0.0712 -0.0385
 3893W        W19510  14.726   5.379  12.462 -0.0149 -0.2333 -0.2695
 3894W        W19511   4.032   6.495   4.459  0.3125  0.3159  0.0101
 3895W        W19512  12.327  13.548  14.926  0.0300  0.4545 -0.0394
 3896W        W19513  12.488  11.113  11.625 -0.3376  0.0335 -0.3670
 3897W        W19514   0.430   8.378  14.677  0.0889  0.0115 -0.0216
 3898W        W19515   8.848   0.195   0.689 -0.2810  0.0855 -0.0054
 3899W        W19516  13.372  13.413   4.343  0.1749  0.0497  0.1251
 3900W        W19517   7.065   2.570  12.222 -0.1255  0.0370 -0.0962
 3901W        W19518   6.195  18.090   2.008  0.0236 -0.3045 -0.1819
 3902W        W19519   5.620  10.787   3.946 -0.1307  0.0723 -0.1338
 3903W        W19520   0.665  15.843   0.751  0.3220  0.1870  0.0748
 3904W        W19521   7.487  17.880  13.528 -0.1784  0.0129 -0.2637
 3905W        W19522   7.557   6.070   4.520  0.0699  0.1256  0.5336
 3906W        W19523  14.612  18.202  11.269 -0.3576 -0.2788  0.3880
 3907W        W19524  14.969  14.375   4.267 -0.2502  0.1725 -0.0611
 3908W        W19525   1.703   1.121   5.212  0.3781 -0.1740 -0.1961
 3909W        W19526   2.892   3.363   2.217 -0.0214 -0.0327  0.0959
 3910W        W19527   4.237   0.675  11.712 -0.3503  0.1306 -0.0641
 3911W        W19528   8.648   7.339  14.397  0.0795  0.1746 -0.1399
 3912W        W19529   3.261  13.966  13.777  0.0824  0.2694  0.3740
 3913W        W19530   2.855  15.119  10.874  0.0592 -0.0215  0.0784
 3914W        W19531   5.392  18.806  11.982  0.0161 -0.0360  0.1519
 3915W        W19532  10.829   1.942   0.704 -0.0757  0.1062 -0.0340
 3916W        W19533  16.965  12.123  11.261 -0.1146 -0.2223 -0.1216
 3917W        W19534   8.142  11.968   0.919 -0.1403  0.0786  0.1682
 3918W        W19535  10.809  18.610   2.683  0.1326 -0.2018 -0.0816
 3919W        W19536   2.435  15.282   3.152 -0.0214  0.1914  0.1362
 3920W        W19537   7.225  16.728   4.912  0.1549  0.0727  0.0682
 3921W        W19538   4.556  16.959   4.914  0.3593  0.2321  0.1491
 3922W        W19539  16.910  18.005  11.191 -0.2563 -0.2606  0.0361
 3923W        W19540   7.125  14.000   0.727  0.0699 -0.2303 -0.2105
 3924W        W19541   8.217  17.822   1.330  0.1383  0.1024 -0.2169
 3925W        W19542   5.590   9.875  12.299 -0.0932  0.0561 -0.1611
 3926W        W19543   0.069   7.399  14.272  0.0031  0.1450 -0.0876
 3927W        W19544   6.658   8.521   1.114 -0.0569  0.0047  0.1343
 3928W        W19545   9.923  11.702  12.814 -0.0474 -0.1956  0.0369
 3929W        W19546   4.816  10.309  10.200 -0.0167  0.1023  0.3418
 3930W        W19547  10.532   3.920   1.509  0.2337 -0.0395  0.0386
 3931W        W19548   8.261  16.294  15.035  0.2059 -0.1097  0.1306
 3932W        W19549  18.811   2.490   2.183 -0.3031 -0.1082  0.0932
 3933W        W19550   0.549  17.634   0.668  0.0658  0.3247 -0.0439
 3934W        W19551  12.790  15.227   2.706 -0.0006 -0.0872 -0.0854
 3935W        W19552   4.781   0.379   2.564  0.2703 -0.3003 -0.0770
 3936W        W19553  11.864   0.893   3.018  0.3210 -0.1752  0.0948
 3937W        W19554  10.146  18.786  14.500  0.0264 -0.0919 -0.0182
 3938W        W19555   7.128  13.331  14.569  0.0716  0.0322  0.0581
 3939W        W19556   4.140  12.104  10.687 -0.0049 -0.0166  0.3607
 3940W        W19557  18.896  14.703  11.123 -0.4184  0.2027  0.3974
 3941W        W19558   2.973  13.223   3.223 -0.2862  0.0140 -0.2873
 3942W        W19559  17.185   2.497  12.381  0.1345  0.1345 -0.0027
 3943W        W19560   6.211   9.982  14.506  0.1946  0.1444 -0.1270
 3944W        W19561  17.893  10.010  14.000  0.1686 -0.1189 -0.1143
 3945W        W19562  14.221   1.440   4.123 -0.2325 -0.1081  0.0233
 3946W        W19563  15.603   0.933  13.222  0.2607 -0.2525  0.0917
 3947W        W19564  14.209   2.015  13.808  0.0214  0.3305  0.2647
 3948W        W19565   9.556   9.061   2.623 -0.2742  0.3159  0.1101
 3949W        W19566  18.128   4.723   4.202  0.1957  0.2085 -0.0024
 3950W        W19567  17.983   8.556  13.068 -0.0238  0.1918  0.1122
 3951W        W19568  12.823   0.726  14.999 -0.1038 -0.0574  0.2193
 3952W        W19569   0.280   7.409   5.114  0.0203 -0.0878 -0.2948
 3953W        W19570   0.519  11.184  13.119 -0.1117  0.0172 -0.3311
 3954W        W19571   3.213  14.834   0.531 -0.0694 -0.0845  0.4544
 3955W        W19572  18.902   0.248  10.341 -0.1435  0.1944 -0.0042
 3956W        W19573  17.820  13.488   2.978 -0.0643  0.0195  0.0859
 3957W        W19574   7.609  13.991   2.152 -0.1475  0.1178  0.4054
 3958W        W19575  12.218  14.810   2.254  0.1055 -0.2421 -0.1666
 3959W        W19576  10.577   2.414   1.680  0.0731  0.4221 -0.3112
 3960W        W19577   4.147  12.482   2.733  0.1008 -0.0921 -0.2152
 3961W        W19578  16.797  15.315  14.114  0.1292  0.0028  0.0808
 3962W        W19579   6.248   8.167   4.337  0.1518  0.0628 -0.0605
 3963W        W19580   9.880  13.446   4.206  0.0048 -0.3267  0.3018
 3964W        W19581   6.841  13.501   2.255  0.1631 -0.0735  0.1946
 3965W        W19582  16.396   9.405   4.878  0.2856  0.2885 -0.0008
 3966W        W19583  13.579   7.326   1.699 -0.1784 -0.1513  0.0240
 3967W        W19584   2.270  19.010  12.106  0.0825  0.1768 -0.3253
 3968W        W19585  17.026  15.907   3.619 -0.2175 -0.1744  0.2155
 3969W        W19586  13.172   8.592   3.815  0.3142 -0.1834 -0.0552
 3970W        W19587  16.203  17.556   4.729  0.0543  0.1222 -0.2279
 3971W        W19588   3.850   9.661  13.711 -0.1388 -0.0565 -0.1386
 3972W        W19589   2.250   2.086   4.364  0.1047 -0.2896 -0.1363
 3973W        W19590  10.495  11.471  11.882  0.0764  0.0262 -0.3143
 3974W        W19591  11.935   8.256   1.321  0.2256  0.1335  0.2356
 3975W        W19592   7.293  11.643  13.671 -0.1377 -0.1832  0.0412
 3976W        W19593   5.707   7.699  12.398 -0.0230  0.1654 -0.0166
 3977W        W19594   8.520  16.917   4.666 -0.2066  0.0180 -0.2377
 3978W        W19595  16.397  10.334   3.769 -0.1461 -0.3364  0.1524
 3979W        W19596   9.378  16.942   3.402  0.0827  0.4195  0.0817
 3980W        W19597  13.955  14.772   1.059 -0.2757 -0.2673  0.3406
 3981W        W19598  11.863  13.261   5.037  0.1740  0.2196  0.4098
 3982W        W19599   3.179   8.870  12.626 -0.3411 -0.3146 -0.0406
 3983W        W19600  13.732   6.349  12.070  0.4761 -0.0237  0.1459
 3984W        W19601  12.594  18.087   0.218 -0.4144  0.2404  0.2467
 3985W        W19602   5.639   7.866  11.929  0.1517  0.3098 -0.1058
 3986W        W19603   1.065  15.139   1.433  0.2977  0.1471 -0.3529
 3987W        W19604   5.339  17.543  13.915 -0.0363 -0.1459 -0.4258
 3988W        W19605   5.282   6.305  12.830 -0.1030  0.0365  0.0629
 3989W        W19606   2.460  15.628   1.235 -0.1597 -0.2692  0.2550
 3990W        W19607  15.711  12.545  14.332  0.0417 -0.0719 -0.0257
 3991W        W19608  17.758  17.443  12.718  0.0123  0.0295  0.0365
 3992W        W19609   3.482   0.526   2.940 -0.1650  0.0762 -0.2941
 3993W        W19610  11.460   5.879   4.116  0.2172  0.0020  0.2884
 3994W        W19611  12.596   5.786  10.341  0.2503 -0.0482 -0.0123
 3995W        W19612   0.841  11.246   4.735  0.2977  0.1442 -0.0880
 3996W        W19613   5.094  11.011   0.870 -0.2055 -0.0263 -0.2914
 3997W        W19614   5.141  10.595   4.120  0.1535  0.2105 -0.0536
 3998W        W19615   5.000  18.963  10.509 -0.1692  0.0924  0.1693
 3999W        W19616  11.439   4.439   0.752  0.2569  0.0354  0.0002
 4000W        W19617  11.400  17.940   5.231 -0.0769 -0.2052  0.2296
 4001W        W19618   3.634  17.817   3.672  0.1443 -0.1209 -0.0089
 4002W        W19619  16.791  10.043  13.047  0.1323  0.1717  0.0256
 4003W        W19620   6.117  12.637  10.900 -0.1097 -0.1460  0.1316
 4004W        W19621   6.171  12.187  10.640 -0.0892  0.0987  0.1220
 4005W        W19622   6.687  12.034   3.155  0.1776 -0.0313  0.1319
 4006W        W19623  14.883   5.657  13.416  0.2432  0.3144  0.1515
 4007W        W19624  17.641   5.594  12.810 -0.3510  0.2501 -0.2405
 4008W        W19625   1.672  15.524   2.727 -0.0807 -0.1658 -0.0086
 4009W        W19626   3.879  11.566   1.683  0.0151 -0.2505  0.0607
 4010W        W19627  10.009  14.425   4.417 -0.1417  0.1183 -0.2837
 4011W        W19628   2.614  11.031  14.599  0.0574  0.1697 -0.0358
 4012W        W19629  12.340  15.734  10.942 -0.0618  0.2148 -0.2925
 4013W        W19630   0.398   0.632   4.224 -0.0195 -0.0883  0.1832
 4014W        W19631  14.932   9.405   1.304  0.2153 -0.4034  0.0078
 4015W        W19632  11.367   0.491  14.902  0.0925  0.3064 -0.0741
 4016W        W19633   3.878  17.414   0.312 -0.1991 -0.3234 -0.1916
 4017W        W19634  16.637  13.377  14.902  0.1870  0.0119  0.0022
 4018W        W19635  17.723  15.705   0.457 -0.0488 -0.1713 -0.3347
 4019W        W19636   6.728  16.287   4.075 -0.0579 -0.0379 -0.0278
 4020W        W19637  17.000   9.944  10.869 -0.3309 -0.3739 -0.1229
 4021W        W19638   4.437   7.640  10.304 -0.1656  0.2329 -0.0781
 4022W        W19639  12.262   4.678  11.513  0.1117  0.1039  0.2425
 4023W        W19640   5.142  17.291  12.493 -0.0181 -0.0683  0.1839
 4024W        W19641  15.706   3.398  11.382 -0.6579  0.1570  0.0073
 4025W        W19642   8.076   4.904  11.827 -0.1005  0.0457  0.0135
 4026W        W19643  17.528   8.244   2.642 -0.0541  0.0330 -0.2876
 4027W        W19644   4.131  11.484   0.049  0.0578 -0.3261 -0.1027
 4028W        W19645  13.217   2.702  12.415  0.0902 -0.1396 -0.2591
 4029W        W19646   0.610   1.688   3.634  0.1549 -0.1630  0.1020
 4030W        W19647   0.475  18.748  13.496 -0.3258 -0.1781  0.0985
 4031W        W19648   9.966   2.446  10.591 -0.0943 -0.2017 -0.0882
 4032W        W19649  15.604  10.201   4.587 -0.0291  0.3325 -0.0938
 4033W        W19650  11.157  12.044  13.758 -0.2416 -0.1169  0.4816
 4034W        W19651   0.201   4.804   3.059  0.1122  0.1936 -0.4155
 4035W        W19652   5.432   4.162  13.536 -0.3438  0.0381  0.1781
 4036W        W19653   2.025  15.176  11.215  0.0949  0.2659  0.0860
 4037W        W19654  18.643   9.030  15.152  0.0650  0.0136 -0.1624
 4038W        W19655   3.827  12.341  12.691 -0.0618  0.0717  0.0533
 4039W        W19656  11.562   1.635   1.994 -0.1525 -0.2113  0.0513
 4040W        W19657   0.966  12.148  14.686 -0.0496  0.0036  0.1014
 4041W        W19658   1.162  15.107   4.038  0.2766  0.1614 -0.0819
 4042W        W19659   6.688   3.135   1.937  0.0700 -0.0302  0.1433
 4043W        W19660  12.246  12.062  13.112  0.2070  0.1235  0.0335
 4044W        W19661  12.033   6.657   3.846 -0.0065 -0.0618  0.2744
 4045W        W19662   1.394   3.362   5.005  0.4896 -0.1020 -0.0777
 4046W        W19663   8.728  17.954  12.443 -0.0202  0.0324 -0.1444
 4047W        W19664  18.817   9.567   2.296  0.5176  0.0127  0.0186
 4048W        W19665   6.798   7.528  12.831 -0.1573 -0.2627 -0.0254
 4049W        W19666  10.166   5.306   0.183 -0.1525 -0.1512 -0.2967
 4050W        W19667  14.071  15.467  14.290 -0.2449  0.2577 -0.1275
 4051W        W19668  11.208  11.711   0.645 -0.2642 -0.0389 -0.0955
 4052W        W19669  17.599  15.010   0.454  0.1654  0.2474  0.3490
 4053W        W19670   2.840   0.088  12.683  0.1097 -0.0934  0.2169
 4054W        W19671   6.382   0.396   1.627 -0.0597 -0.3290 -0.0847
 4055W        W19672   0.718   1.926   0.613  0.3660 -0.2250  0.0489
 4056W        W19673  16.765  14.307  13.150 -0.1299  0.0770  0.6211
 4057W        W19674   7.189   9.083   1.958  0.1680 -0.0526  0.0690
 4058W        W19675   6.985   7.473   2.030 -0.0934 -0.0457 -0.2944
 4059W        W19676  12.678  12.923  11.245 -0.2142  0.1744 -0.4461
 4060W        W19677  11.591  13.312  11.358 -0.0096 -0.0951 -0.2096
 4061W        W19678   8.648   4.276   5.452 -0.1676  0.0656  0.2202
 4062W        W19679  13.921  14.322  12.965  0.0890 -0.2694  0.2725
 4063W        W19680   2.013  18.740   5.446  0.2257  0.1122  0.1787
 4064W        W19681   6.514   3.675   1.913  0.0243 -0.2434 -0.2890
 4065W        W19682   4.999  16.655   3.563 -0.0521  0.2378 -0.0414
 4066W        W19683   2.581  13.586  13.325 -0.1237  0.1890  0.3498
 4067W        W19684   9.542  12.842  10.775 -0.0066 -0.1413  0.1232
 4068W        W19685   4.882  12.566  12.920 -0.1403 -0.1264 -0.3132
 4069W        W19686   0.699   7.986   0.288 -0.0577  0.1982 -0.3356
 4070W        W19687   2.601  16.498  14.190 -0.0192  0.0644 -0.1089
 4071W        W19688   8.916  12.913  12.491 -0.0468 -0.2608 -0.2767
 4072W        W19689   5.007   1.685  14.806 -0.2775 -0.0492 -0.0491
 4073W        W19690  10.540  16.166  12.280 -0.1058  0.1054  0.0017
 4074W        W19691   9.755  16.808  14.677 -0.1395  0.1372 -0.0865
 4075W        W19692  16.492   0.529  11.526  0.0687 -0.1169 -0.1639
 4076W        W19693   0.904   1.741  11.734 -0.1147 -0.3430  0.3061
 4077W        W19694  10.051   5.155  11.136 -0.1062  0.0875  0.3073
 4078W        W19695  16.222   8.754   4.034 -0.0510 -0.3959 -0.0495
 4079W        W19696   6.417  14.397   0.745 -0.2084  0.0362  0.3690
 4080W        W19697  16.206   5.600  15.133  0.3853  0.2029  0.0837
 4081W        W19698  14.413   5.692   0.093 -0.1314 -0.1599  0.3136
 4082W        W19699  17.874   3.250  13.101  0.0619 -0.0166  0.1635
 4083W        W19700   1.893   2.345  11.122 -0.0095 -0.0648 -0.3237
 4084W        W19701   7.596  17.413   0.738  0.3989  0.0691  0.2088
 4085W        W19702   2.635   5.373   1.508 -0.1737  0.1173  0.0622
 4086W        W19703   1.273   9.578  14.168  0.0546  0.1143 -0.0139
 4087W        W19704   2.734  14.551  10.978 -0.1514  0.3269 -0.0763
 4088W        W19705   9.710  12.111   2.439  0.0556 -0.1156  0.0288
 4089W        W19706   3.208  11.503   2.627  0.3551  0.2603 -0.1839
 4090W        W19707   8.545  10.809   4.453 -0.2864 -0.3874 -0.0108
 4091W        W19708  15.525  14.936  14.070 -0.0675  0.0574  0.0038
 4092W        W19709   7.182  15.189   3.077 -0.1036  0.1239 -0.0166
 4093W        W19710  12.844   2.569   3.137  0.0599 -0.1738 -0.1271
 4094W        W19711  14.672   3.870   4.903  0.0502  0.0572  0.0654
 4095W        W19712   5.636   1.643   4.914  0.0573  0.1458  0.2125
 4096W        W19713   6.505  17.123   5.264 -0.4243  0.1167  0.1123
 4097W        W19714  14.381  15.858  12.887 -0.0655  0.0227 -0.0783
 4098W        W19715   9.750   3.082   1.849 -0.0526 -0.2113  0.0539
 4099W        W19716  12.340   3.778  14.260 -0.2072  0.3050 -0.0836
 4100W        W19717   5.321   8.989   4.601 -0.0503 -0.2396 -0.0416
 4101W        W19718   9.197  14.790   3.077 -0.0337 -0.3023 -0.2081
 4102W        W19719   7.427   3.534  13.309 -0.1316  0.2221  0.3549
 4103W        W19720   9.385   2.122   1.015 -0.3071 -0.2108  0.1180
 4104W        W19721   4.916  11.953   3.161 -0.0637 -0.4170  0.0765
 4105W        W19722  17.075  10.069  13.927 -0.0878 -0.1304  0.3188
 4106W        W19723   2.983   9.342   1.763 -0.0403  0.2446  0.0770
 4107W        W19724   4.930  11.774  13.506 -0.0190  0.0452  0.0623
 4108W        W19725  16.526   9.803  15.166 -0.1807  0.1494 -0.2547
 4109W        W19726   9.598  14.515   9.985 -0.0515 -0.3368 -0.0554
 4110W        W19727   0.694   3.856   3.966  0.2391  0.2030 -0.4467
 4111W        W19728   4.077  15.773   3.139  0.1348  0.4553 -0.3830
 4112W        W19729  10.173   6.534   5.008  0.3550  0.2736 -0.0353
 4113W        W19730   8.052  17.061   4.678 -0.0754  0.3336  0.1294
 4114W        W19731   3.264   7.645   4.374  0.0834  0.2580 -0.1589
 4115W        W19732  10.199  13.750  13.671  0.0764 -0.1897  0.0176
 4116W        W19733   7.808   3.255   4.356 -0.0624  0.0606 -0.0570
 4117W        W19734  13.653   0.395  11.625  0.0101  0.1761 -0.2325
 4118W        W19735   2.712  16.181  15.152  0.1395  0.3497  0.0887
 4119W        W19736  16.031  12.851  10.504 -0.0496  0.0530  0.0475
 4120W        W19737   3.442   9.436  10.306  0.3422 -0.4068 -0.0955
 4121W        W19738  12.090  10.542   3.972  0.0808 -0.1944  0.0159
 4122W        W19739   9.598  11.635   4.053  0.2294 -0.0025  0.2399
 4123W        W19740  14.867  15.898  13.078 -0.2423  0.3530  0.0824
 4124W        W19741  13.968  18.021   5.089 -0.0494  0.0292 -0.1346
 4125W        W19742   0.554   2.265   0.242  0.3237  0.0530 -0.1234
 4126W        W19743   0.095   4.482  13.608  0.3694  0.0578  0.0604
 4127W        W19744   9.313   4.702   3.821  0.2271  0.1498  0.0779
 4128W        W19745  15.736   7.533  11.200  0.5100  0.0316 -0.0362
 4129W        W19746  18.818  15.486  15.092 -0.1856 -0.3697 -0.0260
 4130W        W19747   9.864  17.791   1.545 -0.0120  0.0322  0.1127
 4131W        W19748  10.559  17.480  12.214 -0.0278  0.1080 -0.0819
 4132W        W19749   4.851  12.541   0.636 -0.1722 -0.2892 -0.0819
 4133W        W19750   3.855   4.160  13.733  0.1504 -0.0982  0.2439
 4134W        W19751  17.516   3.826  13.583  0.1388  0.2122 -0.1539
 4135W        W19752   4.983  15.552  14.255  0.3710  0.0298 -0.1721
 4136W        W19753   9.738   4.047   4.203  0.1015 -0.2246 -0.4319
 4137W        W19754  16.699   1.480  13.619 -0.0018 -0.1006 -0.2844
 4138W        W19755  11.389  14.282   2.630 -0.1224 -0.1980 -0.2025
 4139W        W19756  17.052   3.493   9.799  0.2294  0.3203  0.1063
 4140W        W19757   0.985   2.244   1.525  0.0039 -0.2355 -0.1039
 4141W        W19758   5.773  13.720   3.896 -0.1090  0.0046  0.0164
 4142W        W19759  10.703   0.921  13.940 -0.5363 -0.0153  0.2697
 4143W        W19760  14.366   7.381  14.868 -0.0030  0.0977 -0.0636
 4144W        W19761   1.445   2.761   1.046  0.1635  0.2747 -0.1027
 4145W        W19762   1.034   4.602  11.004  0.2233  0.0882  0.2149
 4146W        W19763   4.167  14.692  15.016  0.0250  0.1210 -0.3371
 4147W        W19764   9.613   9.119   3.922 -0.1891 -0.0017  0.0948
 4148W        W19765  17.449   8.980  11.068 -0.0590 -0.1313  0.0620
 4149W        W19766  18.558  11.186  12.662 -0.1779  0.0006  0.0135
 4150W        W19767   7.589   6.172  14.048 -0.3776 -0.3145 -0.1569
 4151W        W19768   8.260   2.472  12.570 -0.0190  0.1429 -0.2071
 4152W        W19769   3.164   6.881   0.484  0.1236 -0.1311  0.2675
 4153W        W19770  13.508   3.900   2.867 -0.1023 -0.0819  0.3082
 4154W        W19771   9.052   3.150   4.863 -0.3454  0.2515  0.1310
 4155W        W19772   2.001  11.526  11.867  0.1484  0.0585 -0.0025
 4156W        W19773   0.224  14.847  13.625  0.2146  0.0377  0.0648
 4157W        W19774   3.922   8.309  11.960 -0.0016  0.2047  0.1240
 4158W        W19775  13.031  15.445   4.210 -0.1573 -0.0658  0.5162
 4159W        W19776  10.817   3.293  10.937  0.3463  0.1704 -0.2514
 4160W        W19777  15.600  12.418  12.783  0.0298 -0.1457 -0.0922
 4161W        W19778  11.440   4.909  12.543 -0.2539 -0.0133 -0.0323
 4162W        W19779  12.754   2.189  13.642  0.1900  0.0163  0.1829
 4163W        W19780   7.831   9.606   5.045 -0.1037  0.3853 -0.0637
 4164W        W19781  13.795  16.463   4.100  0.0407 -0.0120 -0.2673
 4165W        W19782  11.369  11.206  11.644  0.2805 -0.0956  0.1895
 4166W        W19783  18.251   4.504  13.163  0.1398 -0.0667 -0.3472
 4167W        W19784  11.561   8.261   0.201  0.0828  0.0498  0.0424
 4168W        W19785  15.342  16.570   0.555 -0.1107  0.1054 -0.0749
 4169W        W19786   8.896  17.713   2.344  0.0601  0.1665 -0.0849
 4170W        W19787  10.005  19.039  14.968  0.0096 -0.0049 -0.2674
 4171W        W19788   7.911  16.821  14.395 -0.0217  0.0034 -0.0034
 4172W        W19789   8.518  10.494  11.965 -0.1028 -0.2704 -0.2885
 4173W        W19790  11.302   6.984  13.164  0.0563  0.0681 -0.0739
 4174W        W19791  13.468   4.921   0.116 -0.1155 -0.0852  0.1214
 4175W        W19792  14.990  12.396   9.292 -0.0297 -0.2858  0.2751
 4176W        W19793  12.426   2.458   0.547  0.1316 -0.3534 -0.1933
 4177W        W19794   7.823   3.841  15.149  0.0680  0.3093  0.2449
 4178W        W19795   8.202  16.689   4.323  0.0961 -0.0010  0.0526
 4179W        W19796   8.308   8.145   2.800  0.1909 -0.2546  0.1618
 4180W        W19797  10.165  15.503   3.449  0.1485  0.0962 -0.4395
 4181W        W19798   4.395   1.543   2.345 -0.2255  0.2971  0.0175
 4182W        W19799   6.251  12.460   5.049 -0.1780 -0.0226 -0.0295
 4183W        W19800   9.755  12.125  11.971 -0.0645  0.0988  0.0850
 4184W        W19801  16.959  15.836  11.866  0.0615 -0.0949  0.4572
 4185W        W19802  16.143   0.509   4.533 -0.2724 -0.1160  0.0220
 4186W        W19803  11.371   5.039  14.260 -0.0217 -0.1460  0.1211
 4187W        W19804  13.391  14.654  13.267  0.0212  0.1160 -0.1244
 4188W        W19805  16.863  11.305   1.271  0.1011 -0.0792  0.3887
 4189W        W19806  17.524   7.866   2.984  0.2301  0.0490  0.0548
 4190W        W19807   5.557  13.689  13.810 -0.2275 -0.0244 -0.1495
 4191W        W19808  11.802   7.598  12.048 -0.1221  0.0701 -0.1110
 4192W        W19809  17.209   8.290  14.146  0.1501 -0.1091  0.1684
 4193W        W19810  13.834  12.345  13.546  0.1127 -0.0363 -0.0095
 4194W        W19811  12.098   1.977   3.201 -0.3051 -0.0040  0.2606
 4195W        W19812  14.409   5.517   3.620  0.0119 -0.1730 -0.0745
 4196W        W19813   2.184  17.554   2.319 -0.2698  0.1193 -0.1915
 4197W        W19814   9.840   7.769   1.970 -0.0670  0.0279 -0.0732
 4198W        W19815   3.450  12.157  10.495 -0.0276 -0.0982  0.1539
 4199W        W19816  14.088  14.803   2.779 -0.2589  0.3235  0.2897
 4200W        W19817   3.601   6.631  14.699  0.2803 -0.2255 -0.0885
 4201W        W19818   6.970   0.434   4.315 -0.5045  0.1182  0.2805
 4202W        W19819  15.220   5.105   3.442 -0.0703  0.1305  0.0850
 4203W        W19820  16.717   2.349   2.070 -0.1265  0.1822 -0.2478
 4204W        W19821   2.498  17.504   5.203  0.4761  0.2746 -0.0720
 4205W        W19822  11.504   3.952  10.773  0.0287  0.0001  0.2458
 4206W        W19823   8.714   7.591  13.450  0.1536 -0.1000 -0.1326
 4207W        W19824   5.990  12.370   2.070  0.2608 -0.2376 -0.2061
 4208W        W19825  15.992  17.805  13.862 -0.1696  0.2575  0.0846
 4209W        W19826   3.420   3.828  14.923  0.0789 -0.3348 -0.1387
 4210W        W19827  10.523  18.825  14.149 -0.1582  0.1289 -0.2882
 4211W        W19828  11.317  14.571  14.074  0.2681 -0.0365  0.1650
 4212W        W19829   1.367  18.494   1.554 -0.0208 -0.0373  0.1272
 4213W        W19830  10.881   5.181  14.335  0.0210 -0.0696 -0.1199
 4214W        W19831  12.577  15.660   2.847  0.0827  0.3788  0.0931
 4215W        W19832  17.422   6.810   2.103  0.1715 -0.1180  0.3642
 4216W        W19833   5.473   2.912   2.133  0.0516  0.1398  0.1470
 4217W        W19834  10.224  12.052   5.133 -0.2885 -0.2971  0.1283
 4218W        W19835  18.832   0.807   3.717 -0.0375  0.0066 -0.0638
 4219W        W19836   0.449  11.834  10.405 -0.2338  0.0844  0.0443
 4220W        W19837   0.674  12.784   2.938  0.1433  0.1783 -0.2488
 4221W        W19838   5.142  15.769  10.809  0.1070  0.0760 -0.0596
 4222W        W19839  16.639   4.434  14.708  0.3108  0.0816 -0.0288
 4223W        W19840   2.149  12.095  10.657  0.3955 -0.1036 -0.0298
 4224W        W19841  16.148   9.459  11.019 -0.0048 -0.2289  0.1317
 4225W        W19842   5.180   5.559   4.113 -0.1149 -0.3527 -0.0501
 4226W        W19843  14.332  11.297   4.132 -0.0133  0.1640 -0.1412
 4227W        W19844   7.779  15.142   1.932  0.1888 -0.0521 -0.0952
 4228W        W19845   2.364  10.453   5.238  0.2290  0.1897  0.3862
 4229W        W19846   1.472  11.182  12.175  0.2892  0.0101  0.1168
 4230W        W19847  12.714  18.090  13.667  0.0751 -0.0783  0.0681
 4231W        W19848  17.616   9.667   4.781 -0.0652  0.2378  0.0483
 4232W        W19849  10.941   9.098  11.589 -0.2107  0.2142  0.2085
 4233W        W19850  13.310  18.854   1.847 -0.2065 -0.1519 -0.0776
 4234W        W19851   8.387   9.637   0.051 -0.0893  0.1784  0.0169
 4235W        W19852  13.998  12.634   4.284 -0.2183  0.1967  0.5204
 4236W        W19853  15.459  18.977  13.183  0.0454  0.1040  0.2278
 4237W        W19854   3.538  16.526  14.930  0.3327  0.2805  0.0546
 4238W        W19855  18.218   1.671   3.694  0.0952 -0.1006  0.2879
 4239W        W19856   9.402   7.964   4.625  0.2140  0.0967  0.0842
 4240W        W19857   4.922   7.016   1.718  0.0685  0.0780 -0.0794
 4241W        W19858  17.163  11.269  12.218 -0.1353 -0.1744 -0.3180
 4242W        W19859  18.665   4.158  12.587 -0.3754 -0.0043 -0.0092
 4243W        W19860   7.057   4.121   2.760  0.2507  0.0924 -0.1032
 4244W        W19861  14.163   7.540   0.777  0.0364  0.1551  0.1626
 4245W        W19862  16.407  12.129   2.146 -0.4555  0.0883  0.0105
 4246W        W19863   8.237  10.520   0.625  0.4651 -0.2034 -0.2115
 4247W        W19864   1.057   2.768   2.471 -0.1264  0.1244 -0.1286
 4248W        W19865   6.361  16.114   5.486 -0.0507 -0.1487  0.2478
 4249W        W19866   2.762   6.148  12.317 -0.2520  0.3595  0.1117
 4250W        W19867  11.204   1.167   3.840  0.1719 -0.1101 -0.2354
 4251W        W19868   1.425   8.885  14.915 -0.0849 -0.0380  0.2998
 4252W        W19869  10.483  11.929  14.836 -0.0837  0.3217 -0.1179
 4253W        W19870   0.362   7.009  13.559 -0.0116  0.3008 -0.0901
 4254W        W19871  11.224  16.957   4.256  0.2186  0.0596 -0.2723
 4255W        W19872   6.304   0.119  15.137 -0.3767 -0.0437  0.0327
 4256W        W19873   2.114   0.831   4.978 -0.1019  0.1337  0.2245
 4257W        W19874   0.395  12.348   0.090  0.0078 -0.1198  0.2139
 4258W        W19875  12.383  16.545   4.967  0.0693  0.1603  0.1613
 4259W        W19876  15.515   3.753  10.861  0.2941 -0.1345  0.1330
 4260W        W19877   4.325  13.354  14.514  0.0598 -0.0827  0.1112
 4261W        W19878   5.947  13.649  12.232  0.2793 -0.2846  0.1558
 4262W        W19879   5.923   2.676   4.068  0.2394  0.0225  0.0279
 4263W        W19880   1.533   9.093   1.856 -0.1372  0.1406 -0.1859
 4264W        W19881   7.935   8.956  12.410 -0.0444 -0.0753  0.2317
 4265W        W19882  18.361   5.711  12.535  0.0456 -0.0383 -0.0034
 4266W        W19883  17.868  15.205   2.023 -0.2621 -0.1092 -0.2283
 4267W        W19884   2.423  12.716  12.119  0.0243 -0.0638  0.1746
 4268W        W19885   9.034   4.824   2.841 -0.2679  0.1393  0.3761
 4269W        W19886  10.805   0.177   4.416 -0.1818 -0.4466 -0.1304
 4270W        W19887   6.991  11.208  13.332 -0.0564  0.1536  0.0014
 4271W        W19888  10.194  15.334   0.546  0.0597 -0.0763 -0.0847
 4272W        W19889   4.918   2.034  13.425 -0.3034  0.0309 -0.3882
 4273W        W19890  18.715   8.156   1.307  0.2046  0.0334 -0.0144
 4274W        W19891  10.768   0.249  13.212 -0.0365  0.2817 -0.1449
 4275W        W19892  10.436  15.349  11.793 -0.0135 -0.3055  0.1135
 4276W        W19893  16.074   2.058   3.622 -0.3034  0.1733  0.1996
 4277W        W19894   3.877  16.643  12.474  0.0916  0.0863 -0.0094
 4278W        W19895   9.509  12.497   2.152  0.3083  0.0741 -0.1501
 4279W        W19896   6.803  16.423   5.509  0.0253 -0.0496 -0.2151
 4280W        W19897  11.871   2.328   1.698 -0.2442 -0.0780  0.0018
 4281W        W19898  10.280  12.606   5.897  0.1321 -0.0053  0.0003
 4282W        W19899  12.545   2.970  10.812  0.1559  0.0664  0.2427
 4283W        W19900   4.705  14.860   2.358  0.0608  0.0911  0.1480
 4284W        W19901  10.952  16.749   2.514 -0.0465  0.1760 -0.0155
 4285W        W19902  11.810  10.386   2.984 -0.1852 -0.1727  0.0833
 4286W        W19903  14.398  17.066  12.717 -0.2517 -0.1724  0.2506
 4287W        W19904  11.600  17.194   1.263 -0.2274 -0.0276 -0.2936
 4288W        W19905  14.913   7.024   2.759 -0.1527 -0.1497  0.0484
 4289W        W19906   8.803   7.853   1.408 -0.2004 -0.1223  0.2583
 4290W        W19907  18.190   4.006   3.054  0.1530 -0.1681  0.0326
 4291W        W19908   5.224   5.765   3.548 -0.0038 -0.0990 -0.2021
 4292W        W19909  16.568   5.755  12.860 -0.3337  0.0422 -0.2257
 4293W        W19910  11.479  18.930   2.079 -0.1136  0.1458 -0.0073
 4294W        W19911   9.428   9.488   4.639 -0.0146 -0.0307 -0.3428
 4295W        W19912   4.639  15.377   4.622 -0.1171  0.0527  0.0954
 4296W        W19913  13.527  15.935  14.984 -0.2501 -0.5121  0.1281
 4297W        W19914  16.596   0.148   5.101  0.1619  0.0599 -0.0593
 4298W        W19915  15.454  10.096  12.279 -0.0475 -0.2003 -0.1818
 4299W        W19916  14.924  17.686  13.200  0.0392 -0.3378 -0.0646
 4300W        W19917  18.860   8.134   4.969 -0.3809  0.1785 -0.1765
 4301W        W19918   1.085  14.444   2.727  0.0595 -0.1240 -0.0682
 4302W        W19919   2.241  13.720  12.974 -0.0491  0.2002 -0.1160
 4303W        W19920  17.245  10.857  13.531  0.4495 -0.2241  0.1197
 4304W        W19921  16.995  13.941   0.729  0.2909  0.0182 -0.5666
 4305W        W19922  11.983   7.584  13.470 -0.1894  0.0185  0.3075
 4306W        W19923  17.154   5.734  12.996  0.1130 -0.3213  0.2058
 4307W        W19924   4.707   4.436   4.810  0.0892 -0.1860 -0.0651
 4308W        W19925  17.990  12.860   3.459 -0.2216 -0.3066 -0.0623
 4309W        W19926  12.490   7.016   1.485 -0.3885 -0.0023  0.0943
 4310W        W19927   5.709   6.510   3.490  0.1664  0.0066 -0.1403
 4311W        W19928  11.542  15.171   1.116  0.0826 -0.2609 -0.0655
 4312W        W19929   0.646   3.970   0.348 -0.1218 -0.1409  0.1844
 4313W        W19930  17.654  14.606   1.938  0.1232 -0.1473 -0.3218
 4314W        W19931   9.084   5.248  11.287  0.1896  0.2607 -0.0275
 4315W        W19932  12.604   7.844   1.898 -0.0114  0.1599 -0.2856
 4316W        W19933  15.706   8.594   3.215 -0.1988  0.2278 -0.0941
 4317W        W19934  11.141   2.739   4.898  0.4639  0.0762  0.0119
 4318W        W19935  16.710   7.205   3.026 -0.3286 -0.1965  0.0275
 4319W        W19936   5.141   7.024   4.460 -0.2398 -0.2326  0.2164
 4320W        W19937  18.248  15.363  10.839  0.0072  0.0394 -0.2285
 4321W        W19938  12.807  10.137  15.031  0.3678  0.2912 -0.1977
 4322W        W19939   8.548  15.589  12.295 -0.1781  0.3423 -0.0595
 4323W        W19940   6.011  12.946   4.951  0.0524  0.1262 -0.3436
 4324W        W19941  17.714  14.825   3.267 -0.1546 -0.1018  0.2254
 4325W        W19942  12.771   7.822  11.596 -0.3147 -0.2075 -0.1879
 4326W        W19943  15.882   9.368   3.295 -0.1151  0.2759 -0.3372
 4327W        W19944   3.569   5.783   4.546  0.5062 -0.0657  0.0666
 4328W        W19945   4.462   4.649  15.105  0.0427  0.3420 -0.1286
 4329W        W19946   2.052  17.612  10.757  0.1634  0.1744 -0.3433
 4330W        W19947  12.837  12.843   4.848  0.4601 -0.2030  0.2509
 4331W        W19948  13.434   0.847  13.729  0.2123 -0.1735  0.0234
 4332W        W19949  11.277   6.730   3.171  0.1091  0.1286  0.1040
 4333W        W19950  18.412   1.418   4.589  0.3057 -0.0291  0.1648
 4334W        W19951   9.220  13.993  14.865  0.2791  0.1317  0.1330
 4335W        W19952   3.325   4.174  14.003 -0.0436 -0.0193  0.1069
 4336W        W19953  16.252   8.207   3.998 -0.0543 -0.1025  0.3771
 4337W        W19954   3.663   5.681   1.123  0.3718 -0.0331 -0.0872
 4338W        W19955   0.948   8.720  12.039  0.0898 -0.0077  0.0979
 4339W        W19956   2.406  14.832   4.969  0.0805  0.0014  0.2996
 4340W        W19957   1.552   2.820  13.981  0.0929  0.1387  0.1632
 4341W        W19958   0.582   0.200  13.365  0.0355  0.1494  0.3445
 4342W        W19959   0.317   9.977  10.797  0.1584 -0.1564  0.1507
 4343W        W19960  14.009   0.726  12.502 -0.0729 -0.1324 -0.1635
 4344W        W19961   2.422   8.270  13.196  0.0157 -0.1673  0.0175
 4345W        W19962   8.110   7.245   0.396 -0.0575 -0.2465 -0.0312
 4346W        W19963   6.941  15.611   3.348  0.1724 -0.1543 -0.2283
 4347W        W19964  12.076   7.141  13.276  0.0913 -0.0852  0.3281
 4348W        W19965   6.732  17.129   0.377  0.0557  0.0514  0.2227
 4349W        W19966   5.811   2.547   0.348  0.5885  0.2432 -0.2990
 4350W        W19967   0.634  10.847  10.267 -0.2309 -0.2817  0.1266
 4351W        W19968  12.002  16.454   0.422  0.2665 -0.3162  0.1267
 4352W        W19969   0.616   4.334  11.899 -0.0829  0.2410 -0.0809
 4353W        W19970   6.883   0.780  13.869  0.0466 -0.1300  0.1343
 4354W        W19971  18.462   2.328  13.555 -0.0201  0.0187  0.0024
 4355W        W19972  12.695  10.479  11.598  0.2614 -0.0901  0.0238
 4356W        W19973   9.986   6.020   0.600 -0.0275  0.2149 -0.1778
 4357W        W19974  13.332  11.648   3.198 -0.2966  0.2144 -0.3189
 4358W        W19975  18.153  10.447  13.764  0.0113  0.0541 -0.1388
 4359W        W19976  17.766   8.453   9.957 -0.0449 -0.0072 -0.3194
 4360W        W19977  13.881   0.514   2.178 -0.1020 -0.1365 -0.2329
 4361W        W19978  12.995  15.936  13.717  0.0278 -0.2262  0.1758
 4362W        W19979  14.795  18.171  13.304 -0.4348 -0.0599  0.0725
 4363W        W19980  13.418   0.781   2.019 -0.0940 -0.2093 -0.1442
 4364W        W19981  16.697  16.435   3.811 -0.0700 -0.0198 -0.0412
 4365W        W19982   2.174  13.871  12.051  0.0423 -0.0210  0.0886
 4366W        W19983  10.849   4.553   4.654 -0.1726  0.1389  0.3139
 4367W        W19984  18.652  17.955   3.064  0.2166  0.2011 -0.0242
 4368W        W19985  10.282  17.045  14.683 -0.1121 -0.1530  0.1471
 4369W        W19986  12.884   4.804  13.292 -0.2830 -0.0951 -0.0634
 4370W        W19987  11.688  18.932  14.073  0.1240  0.0722 -0.2163
 4371W        W19988   1.753   0.115  12.603  0.0362 -0.1966 -0.0035
 4372W        W19989  11.843   8.921  12.177  0.2468  0.0010 -0.3076
 4373W        W19990   0.212  12.295  12.838 -0.5110 -0.2810  0.1353
 4374W        W19991  11.256   6.193   1.721  0.0579 -0.2362 -0.0421
 4375W        W19992  14.787  11.011   2.535  0.0664 -0.0888  0.2437
 4376W        W19993  16.779  11.669  13.373  0.1682  0.0630  0.0715
 4377W        W19994  18.736   7.971   1.805  0.0493  0.1169  0.0298
 4378W        W19995  12.662   8.876  14.408  0.0712  0.5130 -0.0988
 4379W        W19996   2.469  15.165   4.525 -0.1007 -0.1129  0.1342
 4380W        W19997   5.933  17.630  12.596  0.0646  0.2235 -0.2294
 4381W        W19998   4.047   2.554  12.498 -0.2121 -0.0485 -0.2044
 4382W        W19999   7.088   4.188  12.728 -0.2656 -0.1356 -0.0367
 4383W        W20000  19.021  16.838   1.209  0.0133 -0.1875 -0.0898
 4384W        W20001   1.521   4.731  12.812 -0.2645  0.0264 -0.2638
 4385W        W20002  17.984  12.978   2.841 -0.3657  0.0693 -0.1171
 4386W        W20003   9.435   2.097  14.718  0.2368 -0.3318 -0.0628
 4387W        W20004   9.103   8.679   2.540 -0.1956  0.1672  0.2333
 4388W        W20005  12.246   8.922  10.215  0.1207  0.0584  0.2711
 4389W        W20006  18.627  12.894   2.630 -0.1445  0.1668 -0.2574
 4390W        W20007   8.997   4.275   4.098 -0.0256 -0.1385  0.0559
 4391W        W20008  15.994   1.313   2.497 -0.1120  0.2886  0.4184
 4392W        W20009  11.647   4.047  12.316  0.0527 -0.2437 -0.2535
 4393W        W20010   6.155  13.480   1.303 -0.1873 -0.1197  0.2824
 4394W        W20011   6.233  18.652   9.960 -0.1915 -0.0194 -0.0774
 4395W        W20012  13.101  14.253  12.538  0.0707 -0.0260  0.1527
 4396W        W20013   9.651   3.641   5.660  0.2486 -0.1385 -0.1167
 4397W        W20014   6.055   6.061  11.910  0.2150  0.0772  0.0787
 4398W        W20015  16.853   1.035  15.094  0.0258  0.1676 -0.0629
 4399W        W20016   2.326  11.052   2.681 -0.1936  0.1597  0.1413
 4400W        W20017   4.223   4.452  13.838  0.0289  0.0321  0.0130
 4401W        W20018  13.211  14.999  13.873 -0.0486 -0.1230 -0.3656
 4402W        W20019   8.653   6.611   1.371  0.0493 -0.1679  0.2366
 4403W        W20020   5.915  16.605   0.911  0.0829  0.0276 -0.0684
 4404W        W20021  13.908  10.530  13.864 -0.2814  0.0300  0.1476
 4405W        W20022   4.871   2.727   0.155  0.2615  0.0087 -0.1027
 4406W        W20023  14.993   1.390   4.005 -0.0964 -0.0198 -0.0641
 4407W        W20024  15.161  17.125  10.027  0.1805 -0.2292 -0.3795
 4408W        W20025   5.879  15.295   0.799 -0.1385 -0.3096 -0.4570
 4409W        W20026  15.904   1.570   2.915 -0.1226  0.0937 -0.1839
 4410W        W20027   0.615  18.157   5.620  0.0587  0.2329 -0.0320
 4411W        W20028  14.310  10.425   3.152  0.3006  0.1517 -0.2447
 4412W        W20029   5.018  10.883   2.548 -0.1392  0.0645  0.0794
 4413W        W20030   3.106  14.594  13.447  0.0727 -0.0055  0.1537
 4414W        W20031   6.547   9.516  13.787  0.2064 -0.0421  0.0414
 4415W        W20032   2.038   8.358   4.565  0.0861 -0.0544  0.0575
 4416W        W20033   2.658   4.360  11.958 -0.2736  0.1656  0.2189
 4417W        W20034   5.075  17.978  14.785  0.2033 -0.1794  0.3868
 4418W        W20035   3.332   7.625  12.095  0.1404  0.2038 -0.1073
 4419W        W20036  15.455   5.490   2.842  0.3934 -0.1432 -0.0419
 4420W        W20037   8.949   3.895   4.895  0.3424 -0.0430 -0.2089
 4421W        W20038  17.247   8.849  13.494  0.2933  0.3906  0.1898
 4422W        W20039   6.998  10.655   4.040  0.0064  0.0192 -0.1563
 4423W        W20040   2.303   9.030  14.192  0.0449 -0.0159  0.1414
 4424W        W20041   6.535   4.079   0.241  0.0064 -0.2045  0.0395
 4425W        W20042  17.037  16.473  10.117 -0.0763 -0.0333  0.1726
 4426W        W20043   9.581  14.459  10.796 -0.2801  0.1894  0.3678
 4427W        W20044  12.730  17.666   3.508  0.2709  0.5500  0.1096
 4428W        W20045  14.234   3.616  14.397 -0.0487 -0.1516  0.3948
 4429W        W20046   9.653  18.667  14.348 -0.0347  0.3652 -0.2823
 4430W        W20047  16.344   3.234   3.629 -0.1639  0.2996  0.4242
 4431W        W20048   0.519  17.089  14.788  0.0803  0.1036 -0.0372
 4432W        W20049   9.621   7.725  14.209  0.0223  0.1059  0.3289
 4433W        W20050  11.524   8.943   3.254  0.1961  0.1169 -0.1537
 4434W        W20051  14.036   0.100   4.482  0.1270 -0.2229 -0.3674
 4435W        W20052  15.802  12.458   3.204 -0.1419  0.1483  0.0179
 4436W        W20053  13.328   7.985  14.543 -0.0164  0.1752 -0.0244
 4437W        W20054   8.725   1.368   2.867 -0.0301 -0.0508 -0.2619
 4438W        W20055  17.586   4.405  11.311 -0.0125  0.0702  0.1552
 4439W        W20056   0.264   4.253  10.395  0.1555 -0.1588  0.2411
 4440W        W20057  13.338  11.289  12.406 -0.0318 -0.2211 -0.0742
 4441W        W20058  15.690   9.010  11.230 -0.2312 -0.1634 -0.1440
 4442W        W20059  17.100   9.648  12.969 -0.1359 -0.0134 -0.0942
 4443W        W20060   2.939   9.294  10.177  0.1987 -0.0445  0.5463
 4444W        W20061   5.754  17.405  10.504 -0.0558 -0.0366  0.0692
 4445W        W20062  10.580  11.702  10.067  0.0462  0.0971  0.0110
 4446W        W20063  11.031  17.913   3.115 -0.0666  0.0094 -0.4744
 4447W        W20064   7.672   8.524   0.170 -0.1807  0.0311  0.0972
 4448W        W20065   0.366   7.380   2.429  0.0920 -0.2141 -0.0014
 4449W        W20066   6.290  12.954  14.969  0.0059  0.0983 -0.3983
 4450W        W20067  17.024   3.429  10.365  0.2624 -0.3686 -0.0919
 4451W        W20068  15.343  11.453   4.884  0.1790  0.0136  0.0336
 4452W        W20069  14.443  12.119   3.168 -0.0075 -0.0100  0.1366
 4453W        W20070  18.833  14.264  11.418  0.0036 -0.1186  0.0157
 4454W        W20071   6.419   3.713  13.705 -0.2522  0.0079 -0.1565
 4455W        W20072   0.634   9.838   3.918 -0.1134  0.0768 -0.0223
 4456W        W20073   5.579   2.187   4.194 -0.1380  0.0524  0.2516
 4457W        W20074  18.737  11.830   0.102  0.3665  0.1927 -0.0384
 4458W        W20075  11.689   8.957   2.755 -0.0691  0.4544 -0.0297
 4459W        W20076   7.553   2.545  12.272  0.1980 -0.2703  0.1643
 4460W        W20077  16.320  18.900   4.123  0.4042  0.1516 -0.4771
 4461W        W20078  13.572  18.895  11.530 -0.2241  0.0955 -0.1453
 4462W        W20079   3.473  12.960  10.777 -0.1311 -0.0708  0.3790
 4463W        W20080   5.104   5.955  13.993  0.0855 -0.1234  0.1242
 4464W        W20081   8.846   1.624   4.550 -0.1381 -0.0415  0.1869
 4465W        W20082  16.736   9.365   1.412 -0.0914 -0.0746 -0.0766
 4466W        W20083   7.798  18.371   4.522 -0.2875  0.3088  0.0018
 4467W        W20084  13.341   3.060   0.837  0.2308  0.0991  0.3763
 4468W        W20085   6.736  17.351   1.674 -0.0371 -0.0299  0.0298
 4469W        W20086   5.151   5.451   2.604  0.1082 -0.0919  0.1155
 4470W        W20087  10.871   2.072   4.706  0.0174  0.1612 -0.0241
 4471W        W20088   4.161  12.460  15.274 -0.2961  0.1680  0.0552
 4472W        W20089  17.712   1.719  13.585  0.1453  0.3206 -0.4157
 4473W        W20090   6.533   6.343  14.909  0.0072  0.1173 -0.0454
 4474W        W20091  14.123   3.489  13.573 -0.0871 -0.2104  0.0542
 4475W        W20092  18.950   1.325  14.699 -0.2564 -0.1612  0.0451
 4476W        W20093  12.822   5.647   9.896 -0.3649  0.1702  0.0258
 4477W        W20094  17.798   9.551  14.139  0.0088 -0.1991  0.3759
 4478W        W20095   4.798  12.312   3.944 -0.1069 -0.0082  0.1459
 4479W        W20096   9.538   5.450   1.298 -0.0536  0.3406  0.3592
 4480W        W20097   7.607   5.380  12.822  0.4736 -0.0236 -0.0382
 4481W        W20098  13.499   5.336   2.867 -0.1293  0.0890 -0.0093
 4482W        W20099   8.909  16.964   2.648  0.3664  0.0718  0.1760
 4483W        W20100  16.278  13.842  11.250  0.1587 -0.0129  0.1765
 4484W        W20101  16.054  15.368  15.199  0.1334 -0.2951 -0.2885
 4485W        W20102   2.465   7.931   9.558 -0.2556  0.1193 -0.0524
 4486W        W20103  15.933   3.132   1.561  0.0265  0.1585 -0.0840
 4487W        W20104   9.730  10.108  14.057 -0.3882  0.0486 -0.3238
 4488W        W20105   8.067  12.981  11.504 -0.4161  0.2754 -0.2104
 4489W        W20106   3.395  12.255  11.455  0.3610 -0.0545 -0.2211
 4490W        W20107   4.600  16.335  13.323 -0.0826 -0.3878 -0.2730
 4491W        W20108  11.927   6.912   4.477  0.1815  0.2273  0.1407
 4492W        W20109   8.721   0.037   1.261  0.0159 -0.2844  0.3443
 4493W        W20110   7.411  11.216  13.867  0.0332 -0.0873 -0.4158
 4494W        W20111  13.466  18.411  15.227  0.3537 -0.2095  0.2392
 4495W        W20112  15.709   1.317  12.977  0.2460 -0.2141 -0.0179
 4496W        W20113  18.023   2.091  14.857 -0.1131  0.1377  0.0475
 4497W        W20114  10.458   0.608  11.944  0.0487 -0.2877  0.1277
 4498W        W20115  16.372  10.407  10.267 -0.0904 -0.1421 -0.2044
 4499W        W20116   8.857   2.190   9.336 -0.3348  0.1070  0.2281
 4500W        W20117   3.842  15.115  12.648 -0.1659  0.1842 -0.0506
 4501W        W20118  13.986   6.502   1.953  0.0025  0.0737  0.1450
 4502W        W20119   7.863   5.494   0.145  0.0910  0.3329 -0.2007
 4503W        W20120  17.995   4.167   0.793 -0.0461 -0.1283  0.1383
 4504W        W20121   4.791  14.662  14.331 -0.0599 -0.0254  0.0049
 4505W        W20122  11.787  17.734   5.501  0.0160 -0.1359 -0.0059
 4506W        W20123  15.716  13.645   5.626  0.3661  0.1247  0.0921
 4507W        W20124  18.701  11.077  15.174 -0.1618 -0.2165 -0.1940
 4508W        W20125   1.549   1.648   1.920 -0.0757  0.0753  0.2881
 4509W        W20126  14.689   9.600  12.081  0.1869  0.3268 -0.2045
 4510W        W20127  15.382   0.468   0.530  0.0161  0.1705 -0.0829
 4511W        W20128  14.905  11.473  10.749  0.3937 -0.0023 -0.0037
 4512W        W20129  15.931   6.500  13.152 -0.2438  0.3514 -0.1299
 4513W        W20130   9.294  16.005   5.099 -0.1555  0.1794 -0.1529
 4514W        W20131  18.763   5.738   5.393  0.0797  0.1116  0.1577
 4515W        W20132   8.757  17.981  12.965  0.1231  0.4103  0.0650
 4516W        W20133  11.680  14.957  12.091  0.0844 -0.2094  0.2495
 4517W        W20134  13.690   2.933  11.009  0.0501  0.2057  0.0726
 4518W        W20135  12.201  12.686   1.252  0.0350 -0.2009  0.1301
 4519W        W20136  16.207   0.350  10.260 -0.1644 -0.2067  0.3442
 4520W        W20137   4.092   5.606   4.799  0.0663 -0.0060 -0.3417
 4521W        W20138  15.706  10.739  11.522 -0.1043 -0.0192 -0.1003
 4522W        W20139   7.152  14.798   4.303 -0.0906 -0.0146 -0.0212
 4523W        W20140  15.211   8.238   0.905  0.0243  0.1052 -0.1220
 4524W        W20141   7.236   2.065   0.490 -0.0067 -0.1989  0.2241
 4525W        W20142  10.390  15.514   2.479 -0.2519 -0.1242  0.0487
 4526W        W20143   3.722  16.172  11.055  0.3730  0.1259 -0.2395
 4527W        W20144  18.888   0.384  11.988  0.1161 -0.0994 -0.3356
 4528W        W20145  15.852  15.697   1.966 -0.0148 -0.0583  0.2962
 4529W        W20146   7.060  15.295  14.951 -0.0274 -0.0272 -0.0857
 4530W        W20147  17.536  14.133   2.028  0.1884  0.1688  0.2034
 4531W        W20148  17.335   8.741  12.377  0.0407 -0.0913 -0.1751
 4532W        W20149   0.452   7.616   0.962  0.0198  0.0296  0.0907
 4533W        W20150  13.027  15.222   4.712 -0.0767 -0.2074  0.0095
 4534W        W20151  12.171  16.823  14.680 -0.1480  0.3062  0.0055
 4535W        W20152   7.601   7.426   2.589 -0.0614 -0.4981 -0.2060
 4536W        W20153   6.298   6.922  11.743 -0.2253 -0.1734  0.0407
 4537W        W20154  18.371   5.407   2.511 -0.0437  0.1398  0.2669
 4538W        W20155  18.925   1.777   9.967  0.1901 -0.0928  0.1448
 4539W        W20156   3.374  17.706  15.008  0.2016 -0.0887 -0.0790
 4540W        W20157   9.005   1.024   3.749  0.0678  0.2759  0.0330
 4541W        W20158   3.085  17.933  12.138  0.0616  0.0306 -0.3130
 4542W        W20159  10.974   4.105   1.688 -0.3120 -0.0271 -0.3022
 4543W        W20160   3.293   5.521   0.709  0.2731  0.1381 -0.1348
 4544W        W20161  13.714  18.138   2.446  0.1493 -0.4690  0.2084
 4545W        W20162  13.309   5.247  14.991  0.0334  0.1973 -0.0552
 4546W        W20163  11.402  15.055  14.198 -0.2190 -0.0059 -0.3296
 4547W        W20164  14.246   2.153   0.910  0.1459  0.1266  0.2013
 4548W        W20165   7.528  13.651  12.566 -0.0894  0.2347 -0.4947
 4549W        W20166   4.566  12.192   2.822  0.0896 -0.2145 -0.0203
 4550W        W20167   8.735   6.834  12.714  0.0962  0.0561 -0.0022
 4551W        W20168  11.087   0.359   9.956  0.4038 -0.0323  0.0918
 4552W        W20169   9.776   6.102  10.851 -0.3506  0.4664  0.0132
 4553W        W20170  17.780  11.336   5.073  0.1621 -0.2148  0.1882
 4554W        W20171  13.873  16.772  15.021  0.1752  0.1189  0.1432
 4555W        W20172   1.505  10.815  13.621  0.0309  0.0432  0.0260
 4556W        W20173   6.440   4.001   5.921 -0.1837 -0.1493 -0.0736
 4557W        W20174  13.765  13.622  14.584 -0.2424 -0.1342 -0.1505
 4558W        W20175   7.124  18.834  13.044 -0.2288 -0.0047  0.2366
 4559W        W20176  15.474   1.854  13.641  0.1916  0.1531 -0.0054
 4560W        W20177  15.471  16.551   4.025 -0.1039 -0.3577 -0.2871
 4561W        W20178   9.339   1.487   4.014  0.0183  0.0453 -0.1139
 4562W        W20179   1.292  13.395   2.204  0.0990  0.0277  0.0003
 4563W        W20180  19.023  17.371  10.685  0.0590  0.0778  0.2318
 4564W        W20181  13.615  11.942   5.210 -0.1178 -0.1619  0.0064
 4565W        W20182   6.534  12.238   1.840  0.1256 -0.5757 -0.0082
 4566W        W20183  15.379  14.153   2.541  0.0917  0.1466  0.1714
 4567W        W20184   9.839  18.129   9.982  0.2114 -0.0179 -0.0317
 4568W        W20185   3.231   5.338   1.668 -0.2477  0.0044  0.3105
 4569W        W20186   7.517   0.277  14.731  0.0349  0.0189  0.1578
 4570W        W20187  18.928  15.184   0.863  0.1504  0.2497 -0.1636
 4571W        W20188   8.306  16.377   1.908 -0.1027 -0.0054 -0.2014
 4572W        W20189   4.179   0.063   6.480 -0.1308 -0.1892  0.0904
 4573W        W20190   6.348  13.196   4.644 -0.0234 -0.2026  0.2526
 4574W        W20191   4.137   5.298  11.347  0.3892 -0.2265 -0.1078
 4575W        W20192  15.400   0.411   3.502  0.2211 -0.0469 -0.2176
 4576W        W20193   6.338  10.538   1.541  0.3177 -0.1031 -0.0164
 4577W        W20194   0.226  16.835   3.716 -0.1593  0.0438  0.3248
 4578W        W20195  15.768   3.820  15.089  0.1372  0.1671  0.0490
 4579W        W20196   1.170  10.814   0.015 -0.1593  0.1366  0.1004
 4580W        W20197  15.414  17.197   2.512 -0.1029  0.4826 -0.0888
 4581W        W20198   3.525   2.480   2.640 -0.1521 -0.1619 -0.0802
 4582W        W20199  13.292   9.839  11.672  0.0243  0.1004  0.0195
 4583W        W20200   6.809  17.697   4.105 -0.2949 -0.1065 -0.0939
 4584W        W20201  10.787   4.048   4.338  0.2671  0.0462 -0.1086
 4585W        W20202   2.942  17.010   0.149  0.3510  0.0721  0.4017
 4586W        W20203  15.160  16.615   4.682  0.5319  0.1880 -0.0852
 4587W        W20204  16.462   3.218  13.073 -0.0258 -0.0522 -0.3862
 4588W        W20205   0.544   4.289  13.491  0.1333  0.0532 -0.0192
 4589W        W20206   5.489   7.016   3.562 -0.0394 -0.2636  0.1133
 4590W        W20207   0.965   4.981   3.315  0.0357  0.0429  0.1822
 4591W        W20208  16.211   2.049   4.374  0.0652  0.5792  0.0348
 4592W        W20209   6.201  10.128  13.216  0.4187 -0.0335 -0.2231
 4593W        W20210   7.681   6.553   9.423  0.3252  0.0813 -0.1573
 4594W        W20211   5.028   6.804   4.048  0.1177 -0.0203 -0.1582
 4595W        W20212   3.482   9.640  11.302 -0.0983  0.1187 -0.3951
 4596W        W20213  10.060   7.730   5.776 -0.0286  0.0737  0.2403
 4597W        W20214  15.506  17.580  14.115 -0.2142 -0.1324 -0.0827
 4598W        W20215   5.670  18.524   1.275 -0.0101 -0.0315  0.2015
 4599W        W20216   6.239  10.644   0.411 -0.1826 -0.0084  0.2079
 4600W        W20217   5.222   9.466  12.899 -0.3360 -0.3563 -0.3143
 4601W        W20218   1.843   9.871   4.244 -0.1264  0.0242  0.0655
 4602W        W20219  10.382   9.431   2.939 -0.2727 -0.2411 -0.1577
 4603W        W20220  10.305   6.497  15.077 -0.0693 -0.0946 -0.1037
 4604W        W20221  10.748   7.736  12.254 -0.2513 -0.2156  0.2470
 4605W        W20222  14.764  10.969  12.262  0.0221  0.0354 -0.0180
 4606W        W20223  14.416   1.280   0.018 -0.0645 -0.0243  0.1477
 4607W        W20224   0.070  12.012   2.513  0.0090  0.2259 -0.0683
 4608W        W20225  14.164   3.175   1.862 -0.1622 -0.4769  0.0143
 4609W        W20226  15.578   4.927   2.830  0.4383  0.0329 -0.2188
 4610W        W20227  16.935   6.952  15.212 -0.1868  0.3130 -0.3648
 4611W        W20228   7.496   6.406  11.516  0.0238 -0.0666  0.0161
 4612W        W20229  14.662   1.613   5.525  0.2897 -0.1599  0.3410
 4613W        W20230   1.432   7.887  15.197  0.2506 -0.1298  0.1772
 4614W        W20231   6.787   3.535   2.269  0.1585 -0.2099 -0.4182
 4615W        W20232  14.644   9.741  13.924 -0.0619  0.1360 -0.1344
 4616W        W20233   1.257   5.850  13.173  0.0619  0.1341  0.1521
 4617W        W20234  13.960   2.351   1.846  0.1810  0.2721 -0.1530
 4618W        W20235   1.254   7.811   4.929 -0.5684 -0.2086 -0.0231
 4619W        W20236   4.015   7.768   2.881  0.0983  0.0856 -0.0870
 4620W        W20237  10.974   7.741   0.308 -0.0187 -0.0480 -0.0114
 4621W        W20238   1.859  13.981  13.582 -0.0343 -0.0745  0.1089
 4622W        W20239   1.587  11.063   5.317  0.0368 -0.2441 -0.2571
 4623W        W20240  11.690  16.452   3.306  0.1464 -0.1672  0.2204
 4624W        W20241  15.286   8.333   2.509 -0.3551 -0.0098  0.2730
 4625W        W20242  16.048  14.944  10.588  0.1206 -0.3985 -0.0541
 4626W        W20243   3.013   9.656   5.296  0.2984 -0.2059  0.1326
 4627W        W20244   5.578   1.625  14.098  0.0670  0.3174  0.0904
 4628W        W20245  10.931  10.405   1.543 -0.4032 -0.1117 -0.2050
 4629W        W20246   0.386  14.826   1.815  0.1026 -0.1256  0.0447
 4630W        W20247  15.305   7.786  14.663 -0.1025  0.1013  0.1837
 4631W        W20248   7.566  14.055  14.597 -0.0381  0.0814 -0.3384
 4632W        W20249   2.174   0.138  11.121 -0.1576 -0.1658  0.1301
 4633W        W20250   5.437   6.267   2.350  0.3567 -0.0292 -0.2544
 4634W        W20251   1.611   0.053   3.111  0.0258  0.0691  0.5481
 4635W        W20252  18.842   2.041  13.777 -0.0329  0.0576  0.0373
 4636W        W20253   7.773  11.793   3.224  0.1829 -0.1606  0.1229
 4637W        W20254  14.578  17.902  12.871  0.2422  0.2678 -0.3661
 4638W        W20255   6.043   6.268  11.032 -0.4232 -0.1431 -0.0151
 4639W        W20256  18.054  13.958  13.131  0.0268 -0.1544 -0.2804
 4640W        W20257   6.096  15.372  15.208  0.2247 -0.4715  0.0173
 4641W        W20258   2.751   6.642   2.480  0.0404  0.1562 -0.0494
 4642W        W20259   7.336  15.294   0.806  0.0588  0.1716 -0.1461
 4643W        W20260   9.818   3.748   0.554  0.2989  0.0410  0.0120
 4644W        W20261   5.265  13.107  14.326  0.0118  0.0467  0.0983
 4645W        W20262   5.584  12.865  15.285  0.1913 -0.1976  0.0087
 4646W        W20263   8.239   9.315   1.804 -0.0314  0.1139  0.1383
 4647W        W20264   4.509   5.586  14.589  0.1269 -0.3475 -0.0974
 4648W        W20265  14.761  17.525  10.635 -0.0092  0.3451  0.1133
 4649W        W20266   0.121  10.120  14.199  0.0561  0.1359 -0.1655
 4650W        W20267   2.614  16.420  10.589  0.0786  0.2261 -0.1173
 4651W        W20268  12.317  18.050   4.167 -0.0343  0.0674 -0.3180
 4652W        W20269   6.100   6.175   5.511  0.2569 -0.2799  0.1830
 4653W        W20270   8.632  14.936  13.168  0.1094 -0.0968  0.2359
 4654W        W20271   8.391  14.399   3.595 -0.2600  0.1240  0.2511
 4655W        W20272   1.879  14.839   0.381 -0.0850  0.1289 -0.1520
 4656W        W20273   9.967   1.033   4.948 -0.1318  0.0720  0.0781
 4657W        W20274   6.713   7.477  10.580  0.0100 -0.2227 -0.2578
 4658W        W20275  11.603   4.432   2.796 -0.2830 -0.1734  0.1138
 4659W        W20276  15.746   9.005   4.162 -0.2544  0.0693 -0.1890
 4660W        W20277   8.441   9.312  13.564 -0.0470 -0.2442  0.3556
 4661W        W20278   3.350  15.670  13.402 -0.0681 -0.0754  0.0186
 4662W        W20279  11.772  12.462  14.500  0.2325  0.0508  0.0142
 4663W        W20280  13.594  15.425  11.080  0.0230 -0.3439  0.4019
 4664W        W20281   8.403   6.920   2.410 -0.2429 -0.2461 -0.2031
 4665W        W20282   7.864  17.148  10.611 -0.0452  0.1084  0.1336
 4666W        W20283   8.634   8.378  13.847  0.2331  0.0592 -0.1278
 4667W        W20284  12.254   1.189   5.431  0.1375 -0.0440  0.2300
 4668W        W20285   3.541   6.174   0.154 -0.0367 -0.0052  0.1749
 4669W        W20286  15.675   2.754  12.036 -0.2301 -0.0440  0.1731
 4670W        W20287   0.863   7.424   0.600  0.2225  0.4681 -0.2384
 4671W        W20288  14.021   6.645   4.895  0.1603  0.0271  0.0270
 4672W        W20289   7.115   9.719  12.148  0.2779 -0.0849  0.1017
 4673W        W20290   5.362   2.966   4.756  0.1107 -0.3330 -0.2162
 4674W        W20291   5.985   8.429  13.672 -0.3910 -0.4191  0.0621
 4675W        W20292  13.512   2.401   2.296  0.2062 -0.1583 -0.4403
 4676W        W20293  14.635   8.851   4.710 -0.2908 -0.1182 -0.4387
 4677W        W20294   1.328  15.072   0.509 -0.3600 -0.1124 -0.1067
 4678W        W20295   8.115   9.927   3.902 -0.1143  0.2648 -0.3053
 4679W        W20296   1.257  15.864   2.815  0.0031  0.0840  0.0983
 4680W        W20297  10.618  18.961  10.605 -0.1748 -0.2445 -0.0490
 4681W        W20298  18.972  11.252   5.731 -0.0099  0.2095  0.2624
 4682W        W20299  11.467   3.104   5.086 -0.2286 -0.2701 -0.1332
 4683W        W20300  10.145   0.116  14.207 -0.1716 -0.0343  0.1756
 4684W        W20301   7.337   8.982   0.250 -0.1572 -0.1150 -0.1451
 4685W        W20302   0.923  11.803   0.308  0.2194  0.1226  0.1337
 4686W        W20303  16.867   1.490   1.438 -0.0944  0.0676  0.0733
 4687W        W20304   2.901  13.561   0.411  0.3511 -0.0685  0.0771
 4688W        W20305   8.367   5.509   0.707  0.0376  0.1910  0.1249
 4689W        W20306  11.588  14.801   2.807 -0.0201 -0.0391  0.0728
 4690W        W20307  17.688  14.518   0.308  0.2287 -0.2399 -0.1155
 4691W        W20308  13.935  13.380  11.407  0.0662  0.1328 -0.3278
 4692W        W20309   7.502  18.793   0.566 -0.2461  0.0164 -0.1350
 4693W        W20310   5.848   8.829   1.578 -0.0670  0.1862  0.1644
 4694W        W20311  14.734   1.669   3.118 -0.3730 -0.1404 -0.0402
 4695W        W20312   8.157   3.075  12.685 -0.0735  0.2184 -0.0613
 4696W        W20313   9.722   3.835   0.051  0.1864 -0.1804 -0.1825
 4697W        W20314  13.853   6.087   4.377  0.0407 -0.2868  0.1340
 4698W        W20315  18.001  11.284   3.209  0.0803  0.2425  0.0906
 4699W        W20316   3.871  13.387  14.729  0.1130 -0.1383  0.0971
 4700W        W20317   1.645  14.783  10.369 -0.4169 -0.2855  0.1795
 4701W        W20318   5.186  15.788   4.041 -0.1626 -0.2579  0.1775
 4702W        W20319  11.553   1.322   4.330  0.0974  0.0889 -0.1236
 4703W        W20320   3.828   9.037  11.187  0.1599  0.3004  0.2144
 4704W        W20321   4.996   5.288   1.074 -0.0264 -0.5514 -0.0596
 4705W        W20322   0.075   1.767  12.772 -0.0698  0.3564 -0.2730
 4706W        W20323  15.028   3.683  11.002 -0.2041  0.1242 -0.1184
 4707W        W20324  16.510  17.618   0.616 -0.0417 -0.0141  0.1592
 4708W        W20325   2.402  10.340  12.435 -0.2550  0.0358  0.1140
 4709W        W20326   7.847   8.100   5.191  0.1163 -0.0378 -0.1134
 4710W        W20327  13.623   8.469   0.044  0.1309 -0.3489  0.3141
 4711W        W20328  18.734   7.328  14.533  0.0119 -0.0346 -0.3225
 4712W        W20329  18.350   5.714   3.434 -0.3562  0.0598  0.1982
 4713W        W20330  10.353   6.261   3.527 -0.1751  0.1535  0.1225
 4714W        W20331  14.452   7.521  11.333 -0.3551 -0.0729 -0.0028
 4715W        W20332  12.535   3.831  11.900 -0.1334  0.2352 -0.3458
 4716W        W20333   6.759  11.428  12.469  0.1808  0.1896  0.2453
 4717W        W20334   1.766   2.590  15.257  0.0457  0.1945  0.0248
 4718W        W20335  10.990  11.556  12.972  0.2493  0.1931  0.0718
 4719W        W20336  10.811  17.396  14.727 -0.0034  0.2508  0.3166
 4720W        W20337   3.403   5.468   3.697  0.1675  0.1844 -0.2745
 4721W        W20338   0.466   3.250   9.920  0.2206  0.0669 -0.0883
 4722W        W20339   3.290   5.766  14.219  0.1063  0.0241  0.0525
 4723W        W20340  10.559  13.995   2.986  0.0728 -0.2386 -0.0585
 4724W        W20341   6.234  14.932  15.140 -0.1145 -0.0265  0.2395
 4725W        W20342   2.862   3.359  11.152  0.2082  0.3093  0.0309
 4726W        W20343   9.420   7.676  14.706  0.0165  0.0802 -0.0514
 4727W        W20344   6.035  17.072   5.049 -0.0990 -0.1248 -0.1849
 4728W        W20345   2.387  13.003   9.782  0.4608 -0.2330 -0.2423
 4729W        W20346   6.865  11.612   2.812  0.1419  0.0541 -0.0690
 4730W        W20347   8.339   7.972  13.672 -0.2493  0.0743 -0.1407
 4731W        W20348  14.456   7.457   0.377  0.2310  0.1981 -0.2246
 4732W        W20349  15.445  17.871  14.661  0.1955  0.2048 -0.0355
 4733W        W20350  12.572   3.910   3.555 -0.0289 -0.1393  0.0042
 4734W        W20351  11.067   2.400   0.720  0.3970 -0.1960 -0.0587
 4735W        W20352   8.558   6.461  11.796 -0.0872 -0.1347 -0.1789
 4736W        W20353   8.473   2.870  11.399  0.1311  0.0171 -0.3211
 4737W        W20354   7.829  17.971   0.765  0.1125  0.1120 -0.1651
 4738W        W20355  16.217   6.348  15.245  0.0325 -0.0902  0.1952
 4739W        W20356  12.256   8.113  14.142  0.1017 -0.2627 -0.3043
 4740W        W20357   6.436  16.805  11.148 -0.0003 -0.1067 -0.0258
 4741W        W20358   3.314  15.083   2.181 -0.3475 -0.0573  0.1126
 4742W        W20359  10.702  18.799  12.065 -0.1464  0.2640 -0.2664
 4743W        W20360  15.456   0.345  12.351 -0.3034 -0.1372 -0.1271
 4744W        W20361  15.778  18.058  11.826  0.1416 -0.0062 -0.0208
 4745W        W20362   8.173   0.912  15.188 -0.2382  0.0303  0.0334
 4746W        W20363   0.799  17.488  13.562  0.1025 -0.0437  0.0378
 4747W        W20364   7.542  15.620  14.865  0.1728  0.0036 -0.1109
 4748W        W20365   8.736  12.187   1.215 -0.0567  0.3024 -0.0444
 4749W        W20366  16.508  15.209  10.469 -0.1511 -0.0410 -0.1915
 4750W        W20367  12.677  17.306   2.291 -0.0364  0.0247  0.0044
 4751W        W20368   5.680   5.805   0.399  0.1592 -0.0131 -0.3444
 4752W        W20369   3.363  13.662  11.960 -0.0808  0.0648  0.1857
 4753W        W20370   4.334   8.714  11.935  0.0774  0.1699 -0.0960
 4754W        W20371  15.808   4.648   2.005  0.0407  0.1132 -0.0781
 4755W        W20372  14.155   2.801  12.688 -0.3071 -0.2455  0.2651
 4756W        W20373   3.044  17.837   2.027 -0.1049 -0.4305 -0.2874
 4757W        W20374   7.108  12.937   3.980  0.4971 -0.2865  0.0446
 4758W        W20375   4.472  18.973  11.510 -0.1601  0.1986 -0.1658
 4759W        W20376  15.364   7.465  11.555 -0.2497 -0.2917  0.0936
 4760W        W20377  12.153  16.226   2.333  0.0391 -0.2443 -0.2127
 4761W        W20378  16.384   5.672   4.803  0.1538  0.0041 -0.0910
 4762W        W20379  18.577  14.371  12.274  0.1201 -0.3875 -0.0530
 4763W        W20380  12.234   3.972   4.944 -0.0184  0.1312 -0.1472
 4764W        W20381   2.420   7.509  11.104 -0.0398  0.1545 -0.0028
 4765W        W20382  10.664  11.072   2.749  0.2604  0.1730 -0.1401
 4766W        W20383  18.058  17.958  12.726  0.0231 -0.0625 -0.2792
 4767W        W20384   1.203  16.532   3.722  0.3297  0.0605 -0.0607
 4768W        W20385   4.429   0.014   3.361 -0.2562  0.7374 -0.0236
 4769W        W20386  13.603   1.046   4.832 -0.0496  0.1809  0.0428
 4770W        W20387  18.625  16.834  14.641  0.0554 -0.0544  0.3184
 4771W        W20388  17.544   2.768  14.451 -0.0675  0.1625  0.0263
 4772W        W20389  13.670   7.313   1.209 -0.2988 -0.0807 -0.0562
 4773W        W20390  15.794  16.030  12.821  0.0491  0.1341  0.2008
 4774W        W20391  17.655  15.448  13.899  0.1712  0.2709 -0.1954
 4775W        W20392  17.884  18.991  10.878 -0.0960  0.2379  0.1079
 4776W        W20393  19.027   2.615  11.096 -0.2791 -0.0968 -0.2107
 4777W        W20394   6.851  11.870   0.760  0.2774  0.0617  0.1503
 4778W        W20395  11.177  13.459   1.115 -0.0620 -0.0206 -0.3869
 4779W        W20396  15.756   9.746   1.137  0.1752 -0.2468 -0.1944
 4780W        W20397  14.129  15.598   3.954  0.1021  0.1233 -0.1126
 4781W        W20398   6.125   9.568   4.993 -0.2136  0.4384 -0.2444
 4782W        W20399   8.316  18.609  14.275  0.1485  0.1218 -0.1259
 4783W        W20400   0.344   2.013  13.574  0.3098  0.0689  0.3789
 4784W        W20401  17.031   1.930  12.434  0.1557 -0.0548 -0.1348
 4785W        W20402  14.034  10.658   0.021 -0.1732  0.0888  0.0821
 4786W        W20403  17.727   7.231   2.008  0.0790 -0.1341  0.1248
 4787W        W20404  11.699  14.816  13.829 -0.1031  0.1952  0.0857
 4788W        W20405   7.331  12.451   3.802 -0.2893 -0.1124  0.0142
 4789W        W20406  16.265  15.526   4.098  0.0592 -0.0029 -0.1518
 4790W        W20407  14.864  16.042   0.733 -0.1873  0.0848  0.0837
 4791W        W20408   2.004  17.468   3.268 -0.1190  0.0982  0.2667
 4792W        W20409  17.292   4.587   5.744 -0.1678  0.1640  0.2174
 4793W        W20410  10.280  12.106  11.206 -0.3527 -0.0410  0.2615
 4794W        W20411  16.864   3.233  12.810 -0.0956 -0.1573 -0.0484
 4795W        W20412   0.380   1.207   3.273 -0.1349 -0.0435  0.0472
 4796W        W20413   8.012   4.189   4.297 -0.1861  0.1087  0.0675
 4797W        W20414  18.437   8.383  13.053 -0.2535  0.0725  0.1627
 4798W        W20415   3.576  18.501   3.195  0.0182  0.2899 -0.0388
 4799W        W20416  10.945   2.202  11.875 -0.2508  0.0386 -0.1764
 4800W        W20417  18.237  10.116  11.648 -0.2508  0.2339 -0.1665
 4801W        W20418   0.313   0.272  13.848  0.1669  0.0383 -0.0920
 4802W        W20419   0.220  12.944   2.916  0.2488 -0.2022  0.1987
 4803W        W20420  11.614  12.992  10.481 -0.2041  0.1505 -0.1696
 4804W        W20421   4.467   1.438  12.422 -0.0506 -0.1294  0.1065
 4805W        W20422  11.632  16.760   4.512 -0.1463  0.1850 -0.0665
 4806W        W20423   5.350  13.752   4.894 -0.0307 -0.0219  0.0293
 4807W        W20424  16.365  16.573   0.770 -0.1470 -0.1782  0.2169
 4808W        W20425  11.186  14.695   2.383  0.1046 -0.0393  0.0971
 4809W        W20426   6.040   9.757   1.819  0.1032 -0.3304 -0.1998
 4810W        W20427  16.279   2.613  14.440 -0.0511  0.1805 -0.0579
 4811W        W20428   6.612  16.446   3.246 -0.1459 -0.0418  0.0664
 4812W        W20429   1.379  15.523   1.360 -0.0842  0.0158  0.4350
 4813W        W20430  16.575   0.225  15.007 -0.0556 -0.1000 -0.2118
 4814W        W20431  13.968   4.557   3.120 -0.0341  0.1465  0.0279
 4815W        W20432  11.065  16.977  14.530 -0.0002 -0.0043  0.3118
 4816W        W20433  17.384  15.288   0.157  0.0049  0.2049  0.1488
 4817W        W20434  12.113   6.905   3.247 -0.0673  0.1455  0.2637
 4818W        W20435  11.971   9.744  11.301 -0.0915 -0.1753 -0.0118
 4819W        W20436   2.120  14.541  10.458  0.0007  0.0271  0.3629
 4820W        W20437   1.579  14.505  13.330 -0.2259 -0.1101 -0.2687
 4821W        W20438   3.087   5.143   3.959 -0.0485 -0.0196  0.3100
 4822W        W20439   9.632  16.553   3.758  0.1734  0.1904  0.0373
 4823W        W20440   5.629  10.696   4.508  0.0759 -0.2637  0.3078
 4824W        W20441   8.917  16.266   5.948  0.0429  0.2568  0.2194
 4825W        W20442  14.958   0.359   3.193  0.1104 -0.2254  0.2870
 4826W        W20443  11.596  11.017  12.726 -0.4016  0.4817  0.1424
 4827W        W20444   8.285   8.773  10.326 -0.0922  0.3002  0.0717
 4828W        W20445   2.822   8.097  13.863 -0.0593  0.3513 -0.1367
 4829W        W20446   3.541   2.693   5.287 -0.0708 -0.1678  0.0476
 4830W        W20447   3.805   8.686  11.659  0.1245  0.0765 -0.1368
 4831W        W20448  15.410  11.821   1.955 -0.3586 -0.1030 -0.0683
 4832W        W20449  15.166  16.205   9.546 -0.1823 -0.0879 -0.1425
 4833W        W20450   3.495  17.252   3.325 -0.1753  0.1089 -0.0081
 4834W        W20451  15.326  17.249  12.682 -0.1619  0.2717  0.0483
 4835W        W20452  12.541   8.508   3.879  0.0897  0.2576 -0.2142
 4836W        W20453  17.962   6.460   0.522  0.0538 -0.0492 -0.0879
 4837W        W20454  12.642  14.990   4.400 -0.3198  0.1716  0.1568
 4838W        W20455   2.915  11.978   5.039 -0.1994  0.2125  0.1682
 4839W        W20456  18.391  16.990  11.475  0.0223 -0.2546  0.0736
 4840W        W20457   5.266  14.953  14.922  0.1476  0.0484  0.2185
 4841W        W20458   2.317  17.984   3.803 -0.0769  0.0519 -0.4233
 4842W        W20459   1.067   2.894   4.020  0.0441 -0.0080 -0.1313
 4843W        W20460  12.695   4.400   0.792 -0.1668  0.1165 -0.0048
 4844W        W20461   3.520   3.822   2.691  0.1348  0.0570 -0.1755
 4845W        W20462  14.918  12.690   3.778 -0.2597 -0.0920 -0.0380
 4846W        W20463  17.403  14.912   2.783  0.1997 -0.0131 -0.1854
 4847W        W20464  10.012  14.902  14.360 -0.2907  0.1619 -0.0954
 4848W        W20465   8.717   8.340  14.348 -0.1479  0.1242 -0.2275
 4849W        W20466  14.635  16.089   2.159 -0.0848 -0.0795  0.1055
 4850W        W20467   9.920   8.985  13.156 -0.1369  0.3664  0.1646
 4851W        W20468  13.564  17.130   9.639 -0.1324  0.0544  0.1234
 4852W        W20469   1.658   4.521   2.067  0.1165 -0.0999 -0.0665
 4853W        W20470  18.999   7.880  14.225  0.0258  0.0231  0.0287
 4854W        W20471   0.447  11.560   1.140 -0.0762  0.0396 -0.1021
 4855W        W20472  16.020   3.392   3.262  0.5211 -0.2100 -0.1191
 4856W        W20473   7.140   8.285   9.942 -0.2678 -0.0376  0.1446
 4857W        W20474  13.538   9.051   0.836 -0.2244  0.1470 -0.2075
 4858W        W20475  10.769   6.788   5.428 -0.1488 -0.0766  0.0704
 4859W        W20476  15.732  17.387  12.431 -0.1169  0.1738 -0.0162
 4860W        W20477   8.517   9.897   2.720  0.0917  0.1653 -0.1123
 4861W        W20478   9.980  16.086   0.965 -0.2924 -0.0516 -0.1974
 4862W        W20479   3.590  12.811  12.123  0.0084  0.0196 -0.0080
 4863W        W20480   2.084   3.911  14.779  0.0154 -0.2812 -0.0292
 4864W        W20481   8.680   8.711  14.652  0.0769 -0.3654  0.1262
 4865W        W20482   9.905   6.574  14.605  0.0208 -0.2624 -0.1832
 4866W        W20483  13.249  17.410   4.546 -0.0272 -0.1924 -0.0914
 4867W        W20484   8.600  15.654   3.638 -0.0585 -0.1387  0.0498
 4868W        W20485   7.790   3.319   2.359 -0.0010 -0.4326  0.0356
 4869W        W20486   8.944  12.317   9.876 -0.0631 -0.0500 -0.1258
 4870W        W20487  17.579   3.531   2.329  0.0660 -0.0541  0.4250
 4871W        W20488  17.007   8.700  11.028  0.0234  0.0205 -0.0352
 4872W        W20489   9.730  16.077   1.841 -0.2636  0.2233 -0.2428
 4873W        W20490  18.207   7.046  15.258  0.0893 -0.1118  0.2139
 4874W        W20491  18.551   5.735  10.910 -0.0206 -0.0313  0.0345
 4875W        W20492   2.179   1.765  12.754 -0.0416  0.4671  0.1965
 4876W        W20493  10.785   0.180   1.197  0.0276 -0.4476  0.0609
 4877W        W20494   9.393  16.427   3.277 -0.1128 -0.0742  0.2710
 4878W        W20495   8.869   6.768   0.798  0.0787  0.3260  0.2771
 4879W        W20496   7.332  15.080  12.139  0.1191  0.1337 -0.0338
 4880W        W20497  11.374   0.522   4.686  0.1786  0.2040  0.2064
 4881W        W20498   4.101  10.661   0.311  0.3089  0.1760  0.0922
 4882W        W20499   8.072  10.092   2.691 -0.1034 -0.1066 -0.0920
 4883W        W20500   9.602  10.526  14.357 -0.0788  0.0691 -0.1349
 4884W        W20501  12.586  12.615   3.858 -0.3441  0.3219  0.1210
 4885W        W20502   2.473   3.579  14.734  0.1959  0.2316  0.1254
 4886W        W20503   0.510   4.484  14.001  0.0642  0.0048  0.0977
 4887W        W20504   8.349  12.131  13.654  0.0050 -0.0646 -0.2692
 4888W        W20505   4.225  16.756  14.524 -0.3106  0.2020  0.0435
 4889W        W20506  13.899  14.509   0.647  0.0394 -0.1272  0.0964
 4890W        W20507  17.624  14.241  13.081 -0.0763 -0.0688  0.3386
 4891W        W20508  13.728  11.562   3.498  0.0998 -0.2416 -0.0266
 4892W        W20509  12.435   3.951   0.731  0.5191 -0.2119 -0.0161
 4893W        W20510   9.457  12.433   1.667 -0.4164 -0.0899 -0.1692
 4894W        W20511  17.976   3.529  11.533 -0.1897 -0.3223  0.1114
 4895W        W20512   9.127  16.254  11.033  0.0651  0.1710  0.0307
 4896W        W20513  18.261   9.730   4.115 -0.0653  0.0288 -0.0294
 4897W        W20514   2.904  16.857  11.584  0.1246 -0.2552 -0.2320
 4898W        W20515   5.020  16.821  14.172 -0.1576 -0.0052  0.0819
 4899W        W20516  12.813   2.408   4.238  0.1469  0.4623 -0.0050
 4900W        W20517  17.861   0.507   2.974 -0.1829  0.0499 -0.0659
 4901W        W20518  16.147  11.079  15.236  0.0260  0.0139 -0.5463
 4902W        W20519   3.194   2.639   1.553 -0.1478 -0.2660 -0.1885
 4903W        W20520  13.521   4.182   3.782 -0.3983 -0.0036 -0.0956
 4904W        W20521  11.243   3.246  11.936 -0.0036  0.0662  0.0825
 4905W        W20522  10.569   1.007   4.334  0.2601 -0.2293  0.0048
 4906W        W20523   6.396  16.523   3.718  0.0087  0.2830 -0.1423
 4907W        W20524  12.011   4.498   2.518  0.0515 -0.0171 -0.1134
 4908W        W20525  10.124  12.773  12.905  0.0141  0.1993 -0.0586
 4909W        W20526   4.004   2.219   5.760  0.3223 -0.1640  0.0756
 4910W        W20527   7.708   0.840  12.618 -0.0001 -0.0678  0.2840
 4911W        W20528   1.877  11.221   2.429  0.1429  0.2487 -0.1415
 4912W        W20529   3.780  11.279  14.437 -0.0574 -0.0310 -0.0733
 4913W        W20530  16.207  14.172   9.662  0.3462 -0.1481 -0.0965
 4914W        W20531  17.755  10.578  12.776 -0.3797 -0.0734  0.2755
 4915W        W20532  11.924   1.144   2.536  0.0698 -0.1386 -0.3338
 4916W        W20533  12.691  13.402   2.645  0.0728 -0.1757 -0.1780
 4917W        W20534  16.641   2.023   2.984  0.0534 -0.0782 -0.0223
 4918W        W20535  14.313   9.981  12.761  0.2403 -0.2990 -0.0838
 4919W        W20536  11.891   2.832   9.590 -0.1208  0.0284  0.0335
 4920W        W20537  18.517   4.821  11.402  0.0264  0.1234  0.1887
 4921W        W20538   6.996  19.000  14.480 -0.1689 -0.0654  0.3701
 4922W        W20539  13.053   3.225   5.572  0.2519  0.1037  0.0990
 4923W        W20540   8.124  15.215   0.069  0.0442 -0.3419  0.0093
 4924W        W20541   4.066   8.287   2.766  0.0608 -0.1837  0.1831
 4925W        W20542   4.206   3.938   5.344  0.4396 -0.2669 -0.2980
 4926W        W20543  16.243   7.316  14.576  0.0726  0.0082  0.0960
 4927W        W20544  14.556   7.352  12.763  0.0657  0.1714  0.3911
 4928W        W20545  16.006   3.563  13.192 -0.0731  0.0652 -0.2147
 4929W        W20546   0.393   3.451   4.182 -0.2301 -0.0550  0.2157
 4930W        W20547  13.201   4.527  12.837  0.0324 -0.0273 -0.0985
 4931W        W20548  12.335  10.425   4.417 -0.2105  0.3486 -0.0826
 4932W        W20549  10.783   9.259   1.020 -0.0906 -0.0311 -0.1622
 4933W        W20550  13.182   4.167  11.133  0.4512  0.5167  0.5781
 4934W        W20551   1.548   7.034   0.450  0.2811 -0.1979  0.0634
 4935W        W20552  10.838   3.592  14.675  0.4035 -0.0004  0.2299
 4936W        W20553  13.846   9.885  11.163  0.2856  0.2874 -0.3977
 4937W        W20554  10.276  13.326   0.949  0.4047  0.2194  0.2558
 4938W        W20555  16.024  15.157  12.210 -0.1025  0.0275 -0.3245
 4939W        W20556  18.551  13.481  11.574  0.2541 -0.1178  0.0587
 4940W        W20557  11.433  18.711  15.287  0.0080  0.2954 -0.1255
 4941W        W20558  15.297   3.932   0.634 -0.2009  0.1112  0.0872
 4942W        W20559   0.987  10.144   4.112 -0.0666 -0.1699  0.2673
 4943W        W20560   4.388  19.001  14.588 -0.3408 -0.1128  0.2088
 4944W        W20561  18.819  17.885  10.874  0.1956 -0.1204  0.1176
 4945W        W20562   6.103  10.286  11.435  0.1623 -0.2334 -0.2685
 4946W        W20563  17.046   6.953   1.773  0.0526  0.0712  0.0925
 4947W        W20564  13.642   4.288  13.144  0.0593 -0.3020 -0.1334
 4948W        W20565  13.566  12.266   3.618  0.2990  0.4478  0.1861
 4949W        W20566  15.886   0.163  13.108  0.0002  0.0986 -0.3342
 4950W        W20567   0.386  16.313  15.036  0.1661 -0.2335 -0.1101
 4951W        W20568   3.845   1.187   4.570 -0.2434  0.0591 -0.0582
 4952W        W20569  11.656   2.757   2.925 -0.0158 -0.3420 -0.2438
 4953W        W20570   5.549  14.907  12.186  0.2618  0.0199 -0.0152
 4954W        W20571   8.187   4.531   3.968  0.0270 -0.2070  0.2038
 4955W        W20572   6.758   7.234  10.153  0.1222  0.0574  0.1593
 4956W        W20573  13.621  18.990  12.149 -0.1793 -0.1244 -0.1751
 4957W        W20574   0.067   8.082   1.558 -0.0909 -0.1106 -0.1523
 4958W        W20575   8.248  10.097  11.864 -0.2997 -0.0375  0.2024
 4959W        W20576   0.812  14.265   2.332  0.0130  0.0192  0.0652
 4960W        W20577  18.389   5.311  10.733 -0.0528  0.3590 -0.0406
 4961W        W20578   4.200  12.202  12.413  0.2166  0.2428 -0.6851
 4962W        W20579  13.905   2.470   3.876 -0.1669 -0.1116  0.1592
 4963W        W20580  17.064  16.982   1.617  0.1809  0.1357 -0.4085
 4964W        W20581  12.568  11.603   2.029  0.3365 -0.2345 -0.2044
 4965W        W20582  15.299   3.974   1.594 -0.1727 -0.0787 -0.0173
 4966W        W20583  11.276   1.779   0.558  0.3218  0.0197 -0.2506
 4967W        W20584   6.719   7.218  12.043  0.1263 -0.0358  0.3856
 4968W        W20585  13.805  16.851  14.459 -0.0718  0.1047 -0.0633
 4969W        W20586   8.456  10.321   2.451  0.0527  0.0703  0.0634
 4970W        W20587  10.572  11.454  12.395 -0.1555 -0.2034  0.0540
 4971W        W20588  14.988   0.668  12.796  0.0380  0.1428  0.0647
 4972W        W20589   8.950   0.196  13.762 -0.1817 -0.0700 -0.1783
 4973W        W20590   1.523  15.550  10.467 -0.2531  0.2625  0.0706
 4974W        W20591  11.343   4.610  11.476 -0.0394  0.2309  0.2033
 4975W        W20592  12.602  12.637   5.916  0.0013  0.1363  0.0308
 4976W        W20593  17.194   0.761   2.465 -0.0469  0.2051  0.0491
 4977W        W20594  18.514   9.793  10.780  0.3160 -0.3782  0.3169
 4978W        W20595  15.726  16.642   3.261  0.1732  0.3380 -0.2334
 4979W        W20596  17.866   9.245   3.458 -0.1045 -0.3868 -0.0231
 4980W        W20597  14.567  19.055   4.537 -0.0648 -0.2076  0.0251
 4981W        W20598   5.382  13.419   2.320 -0.0740 -0.1518 -0.1619
 4982W        W20599  16.238   5.647  13.221  0.0609  0.1337 -0.1318
 4983W        W20600  15.280  18.389   0.204 -0.1705 -0.1845  0.1487
 4984W        W20601   4.904  17.060   1.717 -0.2535 -0.0417 -0.1503
 4985W        W20602   3.051  11.382  11.114 -0.0951 -0.0607 -0.2971
 4986W        W20603  10.426  14.689  14.670  0.1565 -0.0192  0.0970
 4987W        W20604   3.189   5.314  10.964  0.0316  0.2920 -0.3547
 4988W        W20605  10.248   7.793   1.317  0.1562  0.1156 -0.0636
 4989W        W20606   1.944   2.717  11.921 -0.3438 -0.3128  0.2864
 4990W        W20607  12.041  10.253   2.254  0.0218  0.1106 -0.1434
 4991W        W20608  10.595  18.593  10.975 -0.1166  0.1371 -0.1881
 4992W        W20609  12.813  18.524   2.893  0.2737 -0.0827  0.1420
 4993W        W20610  15.448   9.042  11.689 -0.3522  0.4619  0.2312
 4994W        W20611  17.889  13.242  11.662 -0.2181 -0.0373  0.3198
 4995W        W20612  14.285   4.335  13.098  0.0624 -0.0256 -0.3236
 4996W        W20613   1.892   1.216   2.348 -0.3705 -0.0277  0.1405
 4997W        W20614  17.068   7.140   1.235  0.0121 -0.3685 -0.2570
 4998W        W20615  15.948   9.688   1.609  0.1949 -0.2502 -0.1896
 4999W        W20616   3.147  11.310   2.163 -0.2124  0.1620  0.3509
 5000W        W20617  18.092  11.579   3.667 -0.0523  0.3504 -0.1612
 5001W        W20618   2.362  16.229  11.027  0.3845 -0.1030  0.0787
 5002W        W20619  10.575  14.411   0.371 -0.1765 -0.0729 -0.2644
 5003W        W20620   8.593   7.222   0.726  0.1310  0.1975  0.1981
 5004W        W20621   0.792  16.278   1.724 -0.0146  0.3084 -0.0573
 5005W        W20622   3.606   2.395   4.449 -0.0932 -0.2691 -0.1835
 5006W        W20623  13.774  11.279   2.540  0.2134  0.0452  0.2838
 5007W        W20624  16.767  15.687  13.669  0.2471  0.2514  0.3396
 5008W        W20625   9.077  10.534   4.613  0.0190  0.1348  0.2075
 5009W        W20626   7.853   1.946  13.485 -0.2528  0.0130  0.1760
 5010W        W20627  13.328  17.503   3.012 -0.1152 -0.1328 -0.2197
 5011W        W20628   1.307   2.321  13.858  0.1217 -0.1145 -0.0327
 5012W        W20629   1.788   2.314   4.330  0.1800 -0.1769  0.3791
 5013W        W20630   5.416   3.772   1.597  0.0012 -0.1808 -0.0503
 5014W        W20631   8.245  15.511  14.348 -0.0650 -0.3289  0.3120
 5015W        W20632   6.625   5.331   1.195 -0.0903  0.2565 -0.0030
 5016W        W20633   0.997  17.909   1.527  0.0864  0.1997 -0.1396
 5017W        W20634  18.623   1.646   4.218  0.1712 -0.1895  0.0742
 5018W        W20635   7.477  11.228  11.338 -0.0075  0.1293  0.0094
 5019W        W20636  18.345   6.099   1.105 -0.3253 -0.0143  0.1865
 5020W        W20637  12.319   6.202  12.083  0.2015  0.0419 -0.0424
 5021W        W20638  14.007  16.350  14.665 -0.1120  0.1709  0.5596
 5022W        W20639   2.099   7.526   1.796 -0.0509  0.1290 -0.0068
 5023W        W20640   7.120   6.095  11.233 -0.2607 -0.5515  0.3823
 5024W        W20641  17.135  16.282   0.902  0.3178  0.0504  0.1992
 5025W        W20642   2.146   3.507   2.699  0.0272  0.0729  0.2037
 5026W        W20643   6.199   8.243   1.114  0.0407  0.0846 -0.1938
 5027W        W20644  18.798   3.795  12.108 -0.0133  0.1431  0.0859
 5028W        W20645   7.206   5.378  12.363  0.0635 -0.1113 -0.1058
 5029W        W20646   1.236   1.242  10.906 -0.2356 -0.2439  0.1157
 5030W        W20647   6.439   0.279  11.341 -0.2693  0.0356  0.1629
 5031W        W20648   9.649   8.277  13.033  0.0460  0.1109  0.1040
 5032W        W20649   3.226   1.797  14.935 -0.2450 -0.0511 -0.0219
 5033W        W20650   0.293  15.440  14.481  0.0450  0.1542  0.1042
 5034W        W20651   9.288   3.058  11.492  0.1030 -0.0017 -0.0960
 5035W        W20652  11.349  10.085  13.161 -0.0665 -0.1097  0.2011
 5036W        W20653  11.727  13.429  12.733 -0.2351  0.2737  0.0744
 5037W        W20654  14.801   2.472  10.945 -0.1224 -0.0494  0.0051
 5038W        W20655   5.421  16.547   5.397  0.3677  0.1183  0.0758
 5039W        W20656  14.659   5.890   1.762 -0.1609 -0.0819 -0.0546
 5040W        W20657   2.726   7.911   2.125  0.1822  0.1891 -0.2000
 5041W        W20658  14.894   8.906  13.738  0.0780  0.2603 -0.4966
 5042W        W20659  12.083   3.290   4.165 -0.0582  0.0430 -0.0149
 5043W        W20660  15.234  10.872   2.843  0.0833 -0.0113 -0.2453
 5044W        W20661   0.604   6.217  12.634  0.0265 -0.1378 -0.1656
 5045W        W20662  11.112   2.789   3.736  0.1404  0.3754 -0.0883
 5046W        W20663  11.681  17.047  11.679  0.2981  0.1792 -0.0146
 5047W        W20664   1.264  18.110   2.365 -0.1522  0.0418  0.0565
 5048W        W20665   8.179  12.157  11.999 -0.2733 -0.1111  0.1512
 5049W        W20666   9.229  18.407   2.308  0.1472  0.1118 -0.0779
 5050W        W20667   6.022   5.609  13.742  0.1766  0.3908 -0.1762
 5051W        W20668   8.355   0.792   2.317 -0.3135 -0.1086  0.2097
 5052W        W20669   8.107  16.796   0.490 -0.2059  0.3221  0.1172
 5053W        W20670  12.649  16.092  14.462  0.3505  0.1175 -0.1699
 5054W        W20671   5.256   0.136  11.763 -0.0679  0.2576  0.2501
 5055W        W20672   6.587  17.601   0.016  0.1814  0.0465  0.1121
 5056W        W20673   0.965  11.701  10.309  0.2241  0.1987  0.1281
 5057W        W20674   2.495  16.016   3.832  0.3589 -0.1625 -0.0383
 5058W        W20675   9.818  17.126   4.383 -0.3354 -0.0003  0.0644
 5059W        W20676   3.870   6.596  13.240  0.0824 -0.1731 -0.2345
 5060W        W20677   8.950   2.080   0.676  0.1096 -0.4574 -0.0884
 5061W        W20678  18.551   6.979   1.811 -0.3264 -0.1557 -0.0411
 5062W        W20679  11.518  17.805   5.932  0.0102  0.0582  0.2794
 5063W        W20680   7.868   7.039  10.751  0.0431  0.0942  0.0958
 5064W        W20681  14.124   9.276   1.890  0.0562 -0.1951  0.0612
 5065W        W20682   6.937   0.399  11.362  0.0267  0.2440 -0.1360
 5066W        W20683   8.166   0.239   2.665 -0.0287 -0.0422 -0.0240
 5067W        W20684  16.881   2.466   0.711 -0.1180  0.2737 -0.2129
 5068W        W20685  18.731  14.385  13.874  0.0053  0.3371  0.3101
 5069W        W20686   1.213  10.537  14.542  0.0929  0.0935  0.0468
 5070W        W20687   9.413  10.350   4.043 -0.1049 -0.0501  0.1986
 5071W        W20688  12.907   6.873  14.935  0.0097  0.0930 -0.0711
 5072W        W20689  15.389  12.433  13.932 -0.2838  0.0653  0.0504
 5073W        W20690   7.039  16.105  11.071  0.0979  0.3877 -0.3628
 5074W        W20691   0.014   8.582   3.882 -0.1012  0.4442  0.1108
 5075W        W20692  12.252  16.596   0.021 -0.3330 -0.1713 -0.2005
 5076W        W20693  16.469  10.051  14.753  0.2651 -0.3904 -0.1812
 5077W        W20694  10.153  15.130  14.797 -0.3001 -0.2667 -0.1984
 5078W        W20695   5.818  11.679   4.354 -0.1780  0.0487  0.3401
 5079W        W20696  11.247  12.865  15.079  0.0521 -0.1308  0.2859
 5080W        W20697   4.712   9.431   1.632 -0.0160  0.2875  0.0372
 5081W        W20698  14.346   5.669   1.424  0.5846 -0.1435 -0.1738
 5082W        W20699  13.005   3.242  10.530  0.3279 -0.0221 -0.2885
 5083W        W20700  14.222   4.889  10.936  0.2015  0.0575 -0.1216
 5084W        W20701   6.459  15.109   3.710  0.1866 -0.1893  0.1568
 5085W        W20702  12.311   3.040  14.962  0.0578 -0.1942 -0.1266
 5086W        W20703   7.608   7.135  11.931 -0.0333  0.3942 -0.3544
 5087W        W20704   0.739  16.010  10.613 -0.4943 -0.2094  0.0758
 5088W        W20705  11.602  15.883   0.076  0.1468 -0.3185  0.2142
 5089W        W20706   9.968  13.067  13.381 -0.1770 -0.0193  0.1260
 5090W        W20707   1.393  18.858  12.884  0.0054 -0.0378  0.1835
 5091W        W20708   5.094   9.821  15.153  0.2079 -0.2434 -0.2929
 5092W        W20709  14.721  10.336  12.840  0.3540  0.0529  0.1379
 5093W        W20710  15.082   8.760   3.363  0.2004  0.0819  0.1728
 5094W        W20711   3.605  13.127   4.839  0.4015 -0.1748  0.1773
 5095W        W20712   2.959   0.855   5.502  0.1725 -0.0735 -0.0272
 5096W        W20713   1.659   3.379  11.705  0.2098 -0.0338  0.2119
 5097W        W20714   4.220  12.886  11.216 -0.1107 -0.0274  0.2271
 5098W        W20715   6.842   5.217  11.582  0.1904  0.2782  0.2041
 5099W        W20716   5.467  18.403   0.801 -0.2257  0.1248  0.1225
 5100W        W20717   4.996  13.417   2.000 -0.2751 -0.0724 -0.3656
 5101W        W20718  13.000  16.540  12.426  0.0199 -0.2119  0.1350
 5102W        W20719   1.934   9.494  12.369  0.0730 -0.0264 -0.4679
 5103W        W20720   5.945   5.986   3.087 -0.0640  0.0516 -0.0049
 5104W        W20721  12.834  13.499  14.792  0.2185 -0.1569  0.2631
 5105W        W20722  14.299  11.187   2.665  0.0316  0.0217  0.0881
 5106W        W20723  12.090   0.696   4.857 -0.1214 -0.1030 -0.0582
 5107W        W20724   3.012  12.532  12.906  0.1856 -0.1279  0.3331
 5108W        W20725   3.419  12.298  13.151 -0.0362  0.0889  0.1616
 5109W        W20726   6.966   5.296   2.790  0.1124 -0.3216  0.0258
 5110W        W20727   8.833   5.739  14.399 -0.0198  0.1989 -0.1946
 5111W        W20728  11.239   0.921   3.023 -0.3161  0.4917  0.2135
 5112W        W20729  17.882   3.054  14.220  0.2856 -0.0842 -0.0578
 5113W        W20730  16.033   3.216  12.795  0.2518 -0.2342 -0.3570
 5114W        W20731   9.128   8.947  12.597 -0.0909 -0.1372 -0.2496
 5115W        W20732  17.284  18.459   4.461  0.3638 -0.0066  0.2547
 5116W        W20733  16.388  14.359  12.792  0.0793  0.0009 -0.0416
 5117W        W20734  13.332   5.057  14.553  0.3385 -0.0396 -0.2654
 5118W        W20735  14.141   4.307  14.308  0.3341  0.3111 -0.1005
 5119W        W20736   5.052   8.462  13.770 -0.0254 -0.0873 -0.0229
 5120W        W20737   0.794  18.776  14.320 -0.2085  0.3028  0.0979
 5121W        W20738  13.452  13.076  11.497 -0.3120 -0.0644  0.1459
 5122W        W20739  11.038   6.681  14.546 -0.3831 -0.1600 -0.0339
 5123W        W20740   6.300  17.992  11.666 -0.2121  0.2023  0.1208
 5124W        W20741   4.850   6.298  15.018  0.0090  0.0204  0.2576
 5125W        W20742  16.097   1.941   0.295  0.0106  0.2831 -0.1559
 5126W        W20743  13.721   4.699  11.188 -0.0563  0.0754 -0.0933
 5127W        W20744   8.383   2.095   2.590 -0.5195  0.0567 -0.2190
 5128W        W20745  15.663  18.044   0.018  0.0537 -0.0143  0.3331
 5129W        W20746  16.989  11.746  14.546  0.0297 -0.1464  0.1682
 5130W        W20747  12.415   5.304  12.230  0.1611  0.1413  0.0763
 5131W        W20748  11.393   6.032  13.323 -0.2490  0.0361 -0.5251
 5132W        W20749  15.077   0.162  13.001 -0.0400  0.1399  0.0654
 5133W        W20750  14.459   8.953   1.967 -0.4299  0.0495 -0.3256
 5134W        W20751  18.062  17.125   3.900 -0.1801 -0.0194  0.0125
 5135W        W20752  17.405   5.263   0.739 -0.2102 -0.2449 -0.3065
 5136W        W20753  13.008  10.846  11.674 -0.1692  0.0759 -0.0477
 5137W        W20754   7.181  10.168   3.479  0.0716  0.3823  0.1955
 5138W        W20755  10.161  10.716  12.681  0.0086 -0.2412 -0.3270
 5139W        W20756   7.163   2.278   2.372  0.0129  0.0257 -0.1648
 5140W        W20757  17.107   7.854   2.626 -0.4278 -0.0207 -0.2849
 5141W        W20758  17.604   7.470  14.616 -0.0066 -0.1060 -0.2737
 5142W        W20759   2.209  14.413  11.693  0.1569  0.0747 -0.2324
 5143W        W20760  13.941  16.551   2.692 -0.5904  0.3693  0.2408
 5144W        W20761  13.421   2.583   2.917 -0.1614 -0.0280 -0.0224
 5145W        W20762  15.796   9.252   1.992  0.1829  0.0594  0.1396
 5146W        W20763  15.354   7.880   1.776 -0.0283  0.2197 -0.1217
 5147W        W20764  13.197   1.297  10.550  0.2507 -0.2590  0.2587
 5148W        W20765   3.931  13.108   0.276  0.2671 -0.0122 -0.1765
 5149W        W20766  18.780  12.592  10.493 -0.2607  0.2237  0.0780
 5150W        W20767   1.597   8.825  10.795 -0.2283 -0.1553  0.1231
 5151W        W20768   1.628   0.970  11.558  0.2047  0.1092  0.0005
 5152W        W20769  15.268  12.360   5.013 -0.3368  0.1412 -0.0371
 5153W        W20770  10.619  16.454   2.040  0.2365  0.2559 -0.0688
 5154W        W20771   0.060   4.278  13.125 -0.0614  0.0171 -0.4723
 5155W        W20772  15.867   1.389  14.351 -0.1983  0.2547 -0.3246
 5156W        W20773  15.449   6.499   4.232  0.2460  0.1681  0.0795
 5157W        W20774  18.160   9.913  12.572 -0.0571  0.0788  0.1503
 5158W        W20775  18.079   7.058   3.807  0.2157 -0.1840  0.2332
 5159W        W20776   0.006  14.331  10.811 -0.0365 -0.0731 -0.0016
 5160W        W20777   1.699   8.310  12.658 -0.0046  0.0832  0.2751
 5161W        W20778  15.458  12.712   1.881 -0.2611 -0.0916 -0.0633
 5162W        W20779  18.478   3.088  13.289  0.0043 -0.1061  0.0592
 5163W        W20780   1.852   1.113  14.189 -0.2483  0.2130  0.1568
 5164W        W20781  18.823  10.315  12.363  0.2383  0.0657 -0.0269
 5165W        W20782   7.509  17.770  10.894  0.4297  0.1729 -0.1958
 5166W        W20783  12.726  14.984  14.678  0.2012  0.1468  0.1462
 5167W        W20784  12.811   4.745  13.915 -0.0696 -0.2530  0.0651
 5168W        W20785  15.856   3.910   3.439  0.2489 -0.1389 -0.0754
 5169W        W20786  17.683  12.612   2.657  0.0619 -0.2141 -0.0144
 5170W        W20787   2.026   7.917   4.119  0.2338  0.0754  0.0694
 5171W        W20788   9.186  10.347  14.568  0.0220  0.2253  0.0422
 5172W        W20789  10.767  15.795  13.776 -0.0656  0.1361  0.2617
 5173W        W20790  17.800  14.522   4.955  0.2047  0.1115 -0.0212
 5174W        W20791  19.029  10.564   0.007  0.0743  0.1487 -0.1234
 5175W        W20792   4.708   5.623  14.138 -0.1211  0.1171 -0.2869
 5176W        W20793  12.579   1.298   3.442  0.1719  0.2516 -0.0522
 5177W        W20794  14.263  15.777   4.471  0.0877 -0.1793 -0.0001
 5178W        W20795   0.738   8.509   2.745 -0.1715 -0.2764  0.0072
 5179W        W20796   2.287   4.327   3.177  0.0791 -0.3468  0.3709
 5180W        W20797   1.787   4.127   3.906  0.4330 -0.1668  0.0707
 5181W        W20798   1.380   4.363   0.589 -0.2620 -0.0321  0.1914
 5182W        W20799  13.929   1.348  14.375 -0.0675 -0.0605 -0.1227
 5183W        W20800  10.776   0.392  14.553 -0.3015  0.1159  0.0380
 5184W        W20801  11.268   4.836   2.899  0.1942 -0.3725  0.2286
 5185W        W20802   7.214  11.024  14.311 -0.0010  0.2747  0.3724
 5186W        W20803   8.088   1.189   3.658  0.2945 -0.1334 -0.0478
 5187W        W20804  12.830  15.517   0.668 -0.2104  0.0032  0.0862
 5188W        W20805   3.849  15.823   2.723  0.5138  0.0589  0.0256
 5189W        W20806  13.051   0.503   0.815  0.1446  0.0177  0.3576
 5190W        W20807  13.018   4.365   4.505  0.0544  0.1717  0.1328
 5191W        W20808   2.999  15.692   1.198  0.0151  0.1258  0.3728
 5192W        W20809  14.530   8.614   3.372 -0.0518  0.0303  0.1530
 5193W        W20810   8.978  13.562  14.701 -0.3364 -0.2743 -0.0989
 5194W        W20811   3.154   1.143   3.750 -0.0852 -0.0824 -0.1900
 5195W        W20812   5.122   2.801  11.199  0.1824 -0.2147  0.1562
 5196W        W20813  15.914  10.033   3.002  0.0304 -0.0154 -0.3640
 5197W        W20814   9.922   4.508   4.127 -0.2125 -0.1626  0.1781
 5198W        W20815   3.814  10.222  14.754  0.1795  0.0311  0.3200
 5199W        W20816   8.518   4.396   1.695  0.3149  0.2331  0.2561
 5200W        W20817  12.232  18.048  13.356  0.1615  0.2205 -0.2883
 5201W        W20818  15.155   6.066  13.524  0.1586  0.2714  0.2410
 5202W        W20819   7.260   0.972   0.347  0.0385 -0.4218 -0.0102
 5203W        W20820  14.601  16.312   5.470  0.3746  0.0947 -0.0911
 5204W        W20821  18.658  17.947  13.018  0.2437 -0.3929  0.1684
 5205W        W20822   4.264  12.946   2.803  0.0558  0.0628  0.3711
 5206W        W20823   0.371   8.352  11.187 -0.1330 -0.0638 -0.1007
 5207W        W20824   5.961   5.051   0.159  0.2642  0.0712  0.1109
 5208W        W20825  11.281  12.905   3.778 -0.1532  0.3829  0.0849
 5209W        W20826  11.296  15.131  10.685 -0.0897 -0.1069  0.1278
 5210W        W20827   3.467   3.503   3.819  0.0161  0.2091 -0.0945
 5211W        W20828  13.118  10.410  13.421  0.1208  0.0479  0.3019
 5212W        W20829   6.411  12.475  13.040 -0.1389 -0.1569 -0.0044
 5213W        W20830   5.527   6.282   3.010 -0.0895 -0.1956  0.2232
 5214W        W20831   4.804   3.267   0.227 -0.2786 -0.2722  0.1645
 5215W        W20832   1.632   2.697   5.568  0.0406 -0.3065 -0.0023
 5216W        W20833   1.221  14.593   0.686  0.1256 -0.0154 -0.0427
 5217W        W20834   2.723  18.364   0.925  0.2309  0.0987 -0.1647
 5218W        W20835   2.552   1.859  10.621 -0.1900  0.3530 -0.0411
 5219W        W20836   2.356  17.138   3.224 -0.2881  0.1104  0.0747
 5220W        W20837   2.160   0.082  10.159 -0.1524  0.1693 -0.0891
 5221W        W20838  13.968   3.647   1.155 -0.0112  0.0609 -0.0366
 5222W        W20839   8.952  12.451   5.045 -0.2831 -0.0931  0.0282
 5223W        W20840   8.135  18.695  10.251  0.0748  0.1260  0.2079
 5224W        W20841  10.337   5.812  14.248 -0.1166  0.4017  0.0342
 5225W        W20842  11.101  12.997   2.093  0.2122  0.6011 -0.2615
 5226W        W20843  13.272   5.667  12.567 -0.2116  0.0227 -0.3690
 5227W        W20844   7.888  14.519   4.412 -0.1819  0.1764  0.1320
 5228W        W20845   8.775  16.475  10.775 -0.1762 -0.0947  0.3428
 5229W        W20846  12.296   3.401  13.919  0.0556 -0.0321 -0.3707
 5230W        W20847  19.013  18.536  13.570 -0.2981  0.1698 -0.2331
 5231W        W20848  17.408   1.292   0.036 -0.0248 -0.0815  0.0465
 5232W        W20849  13.341   7.268   0.682  0.1122 -0.2934 -0.3169
 5233W        W20850  11.600  18.659   0.524 -0.0873 -0.2587 -0.1425
 5234W        W20851  11.476   7.716   0.549 -0.0011 -0.0027  0.0981
 5235W        W20852  10.717   2.661  12.748 -0.1510 -0.1689  0.0972
 5236W        W20853   6.688  13.317  13.438 -0.0946 -0.1734 -0.2043
 5237W        W20854   5.142  15.662   4.772  0.1683 -0.2109  0.0365
 5238W        W20855  16.541   7.555  12.762 -0.1947 -0.0347  0.3442
 5239W        W20856  15.318  12.047  12.940  0.0088 -0.1022 -0.0359
 5240W        W20857   5.033  18.813  13.872 -0.4478 -0.0496 -0.1201
 5241W        W20858  12.647  15.340  13.364  0.0265 -0.0685 -0.1320
 5242W        W20859   4.166   4.444   0.665  0.0456  0.3292 -0.0389
 5243W        W20860   2.720  12.899   1.299 -0.2187 -0.0561 -0.0553
 5244W        W20861  17.309  14.387   3.683  0.3648 -0.0465  0.4973
 5245W        W20862  14.994   4.765  14.520  0.3603 -0.0714  0.1192
 5246W        W20863  14.448   9.855  13.208 -0.0610 -0.2302  0.0113
 5247W        W20864   4.648  15.759  11.264 -0.0980  0.0946  0.1110
 5248W        W20865   2.649  16.039   0.302  0.1455  0.2785 -0.1683
 5249W        W20866   9.708   5.490  15.034  0.0866 -0.0026  0.0713
 5250W        W20867   7.446   3.255  12.043 -0.1649 -0.2665 -0.0807
 5251W        W20868   4.932  11.439  10.508  0.1507  0.2095  0.1937
 5252W        W20869  15.679   4.128  12.547 -0.1544  0.2695  0.0122
 5253W        W20870  18.905  16.059   2.666 -0.0951 -0.1118  0.1104
 5254W        W20871   8.933  16.852  10.439 -0.1583  0.0656  0.0932
 5255W        W20872  14.218   5.010   0.932 -0.0475 -0.2111  0.0603
 5256W        W20873  15.183   2.289   0.182  0.1194  0.2824  0.1855
 5257W        W20874   1.981   0.887  14.894  0.1168  0.0475 -0.2020
 5258W        W20875  15.992  12.103  10.848  0.3678 -0.1215  0.2342
 5259W        W20876  16.941  12.806   4.106 -0.1561 -0.0239  0.1799
 5260W        W20877  17.022   6.284   4.164  0.1009 -0.2572  0.0103
 5261W        W20878   7.050   9.149   2.746 -0.3225 -0.0501 -0.4342
 5262W        W20879  17.480   7.056  13.804 -0.2884 -0.1314  0.2246
 5263W        W20880  12.138   2.282  12.833  0.0395 -0.4130 -0.1402
 5264W        W20881  19.055   0.408   1.963  0.3044 -0.2513 -0.0823
 5265W        W20882   1.816  18.757   3.710  0.0697 -0.2469 -0.1972
 5266W        W20883  16.773  13.209  13.378 -0.1626  0.3295 -0.3055
 5267W        W20884  18.817  17.966   4.780  0.2263 -0.2129  0.0018
 5268W        W20885   6.693   3.601  12.244 -0.1135 -0.1285  0.1240
 5269W        W20886   7.870  14.630  13.708  0.0697  0.0981 -0.0813
 5270W        W20887  16.126  12.417   4.877 -0.1710 -0.2191  0.0763
 5271W        W20888   1.862  10.181   3.863  0.3355  0.1339 -0.0858
 5272W        W20889  12.932  17.798   1.112 -0.0761  0.1214 -0.0093
 5273W        W20890   6.001   5.228  14.740 -0.1622  0.2216 -0.1223
 5274W        W20891  15.913   3.829   4.280 -0.2868  0.1187  0.1163
 5275W        W20892  18.739  12.070   2.051  0.0195  0.0035  0.1997
 5276W        W20893   1.635  15.505  11.055 -0.0912 -0.2125 -0.2257
 5277W        W20894  15.748  17.163   3.401  0.2116 -0.2819 -0.0120
 5278W        W20895   0.641   2.526   4.102 -0.3136  0.0705  0.0650
 5279W        W20896   4.448   7.570   5.017 -0.1219 -0.1355 -0.0048
 5280W        W20897  16.512  19.036   2.903 -0.1292 -0.1472  0.0135
 5281W        W20898   2.346   2.282   1.959  0.0124  0.3789  0.0615
 5282W        W20899   6.587   7.975  13.600 -0.4869  0.1543  0.0958
 5283W        W20900  10.192  16.974   9.747  0.0511 -0.2483  0.1884
 5284W        W20901   5.441   9.348   2.322  0.1129  0.1390 -0.0827
 5285W        W20902   1.246  13.992  11.172  0.0350 -0.0628 -0.1649
 5286W        W20903  14.326   5.243   0.442 -0.0168  0.1290 -0.3185
 5287W        W20904   4.371   8.044   5.195 -0.1683  0.1126 -0.0970
 5288W        W20905   0.256   9.562  14.390  0.2369  0.2161 -0.1981
 5289W        W20906   7.838   2.246   0.276  0.0957 -0.1292 -0.0169
 5290W        W20907   6.041  18.739   2.710  0.1369  0.1286 -0.1135
 5291W        W20908  11.324  14.503   1.911 -0.1164 -0.2688  0.2736
 5292W        W20909   6.152  14.376   1.827 -0.2056 -0.0373 -0.3001
 5293W        W20910   7.992   0.773  13.073 -0.0864 -0.4027  0.3037
 5294W        W20911  11.910   5.194  12.342 -0.1962 -0.0188 -0.1572
 5295W        W20912   5.652  13.715   5.268  0.2877  0.0893  0.0515
 5296W        W20913  17.481  10.732   3.577 -0.1110  0.2756 -0.0000
 5297W        W20914   6.439   0.554  12.619 -0.2373  0.1985  0.0981
 5298W        W20915   7.952  14.844   1.584 -0.0582 -0.2275 -0.4783
 5299W        W20916   1.123   1.469   2.666  0.1668  0.0939 -0.0120
 5300W        W20917  13.221  10.957   4.521 -0.0373 -0.0147  0.0979
 5301W        W20918   5.647  12.380   3.727  0.1747 -0.1440 -0.1089
 5302W        W20919  13.789   0.169  14.560 -0.0536  0.0695 -0.2261
 5303W        W20920   6.738   3.842   9.999  0.2069  0.0020  0.2007
 5304W        W20921  14.813  12.299   4.857  0.1855  0.0878  0.0810
 5305W        W20922  14.173   4.624  14.903 -0.1763 -0.0034  0.0349
 5306W        W20923  12.099   8.631   1.764 -0.1476 -0.1072  0.0121
 5307W        W20924   6.619   0.744   2.024 -0.5015  0.3009 -0.0626
 5308W        W20925  18.809  12.435   3.022 -0.0791 -0.0735 -0.1624
 5309W        W20926   1.978   3.131   3.852  0.2581  0.2371  0.1445
 5310W        W20927   0.033  11.985  15.069  0.0447 -0.0994  0.0424
 5311W        W20928  12.100   6.048   2.922  0.0082  0.0707 -0.1368
 5312W        W20929  12.814   7.026  11.153 -0.5102 -0.0088 -0.0441
 5313W        W20930  13.288  16.706   0.454 -0.1315  0.1207 -0.0716
 5314W        W20931   3.126  13.086   1.881  0.1251  0.0615 -0.2513
 5315W        W20932  16.907   6.008   2.080  0.2205  0.2276  0.0203
 5316W        W20933   9.532   7.964  10.740 -0.0179  0.1311  0.0337
 5317W        W20934   8.894   0.462   3.148  0.5646 -0.2333 -0.0011
 5318W        W20935   7.966   1.373  13.964  0.0560 -0.2419 -0.3933
 5319W        W20936  18.003   0.926   9.920 -0.0009 -0.0572 -0.0365
 5320W        W20937  15.529   2.183   1.415  0.3492  0.3761 -0.2973
 5321W        W20938   1.812  10.529  11.884  0.2663 -0.0642 -0.2041
 5322W        W20939  13.904  12.304  13.041  0.0785 -0.1141  0.0733
 5323W        W20940   9.402   4.794  12.213  0.4793  0.0829  0.1694
 5324W        W20941   7.310   4.273   0.959 -0.0237  0.1089  0.1391
 5325W        W20942  15.462   3.154   2.377 -0.0642  0.0613 -0.3765
 5326W        W20943   2.987   2.611  14.673 -0.0929  0.0088 -0.4902
 5327W        W20944   8.626  12.567   4.674 -0.0198  0.0133 -0.1119
 5328W        W20945   2.071  16.483   2.969  0.0974 -0.2719  0.2556
 5329W        W20946   9.044   5.828   0.257 -0.2250 -0.1597  0.0495
 5330W        W20947  14.616   9.133   1.022  0.0072 -0.3260  0.1976
 5331W        W20948   9.281   9.263   0.621 -0.2299 -0.0162  0.3510
 5332W        W20949  10.786  14.493   3.111 -0.1138  0.0363  0.0296
 5333W        W20950   4.520   0.229   0.630  0.3357 -0.2917 -0.1253
 5334W        W20951  11.941   5.451  11.065  0.0317 -0.0709  0.2061
 5335W        W20952  12.023   8.103  11.930 -0.2492  0.2090  0.0243
 5336W        W20953   6.089   0.976  14.230 -0.4645 -0.0920 -0.4779
 5337W        W20954   9.289   9.574   3.772 -0.1627 -0.1331  0.3295
 5338W        W20955  14.963  12.423   2.806 -0.0565 -0.2481  0.0644
 5339W        W20956   4.552   4.068   0.616  0.0974 -0.0307  0.0870
 5340W        W20957  18.207   0.109   3.924 -0.1735 -0.3351 -0.2301
 5341W        W20958   5.245   0.886  15.059 -0.1164  0.2793 -0.1278
 5342W        W20959   2.339  16.924   2.777 -0.0695 -0.1244  0.2417
 5343W        W20960  10.154  16.747  12.539  0.0429  0.0354  0.0902
 5344W        W20961  16.903  10.425   3.014  0.2250  0.2091 -0.2711
 5345W        W20962  18.792   1.842  14.652  0.0418  0.1750 -0.1511
 5346W        W20963  14.742   1.868   5.071 -0.1096  0.0897 -0.0957
 5347W        W20964  17.448  11.346   0.701  0.1165 -0.2162 -0.3139
 5348W        W20965  13.087  17.613  12.003  0.6685  0.1330 -0.0600
 5349W        W20966   9.860   1.904   2.072 -0.0543  0.4512  0.1311
 5350W        W20967  15.768   2.374   0.105  0.4835  0.2506 -0.1302
 5351W        W20968  15.820   1.755  14.007 -0.0875  0.3098 -0.0881
 5352W        W20969  17.616  13.247   4.924  0.0684 -0.0250 -0.2136
 5353W        W20970   3.109   3.833  11.267 -0.1046 -0.0704  0.2709
 5354W        W20971   1.776  14.754   4.355  0.2136 -0.0198  0.0697
 5355W        W20972  10.602   2.578  14.070  0.0720 -0.1952  0.0354
 5356W        W20973  18.603   3.834  15.251 -0.3001 -0.0565 -0.0578
 5357W        W20974  10.340   5.049  11.547  0.0019  0.1293 -0.1386
 5358W        W20975   3.646  17.141  11.693 -0.2143 -0.1351  0.0437
 5359W        W20976  13.893  10.518   0.843 -0.0461  0.2896  0.1175
 5360W        W20977   6.217   4.950  13.297 -0.0853  0.3914  0.0483
 5361W        W20978   0.257   3.272   3.152 -0.0141 -0.0279 -0.1693
 5362W        W20979  10.936  16.215  13.607 -0.0853 -0.5297  0.0346
 5363W        W20980   6.444   8.150   3.745 -0.1074 -0.2489  0.1896
 5364W        W20981  10.712  17.063   4.092 -0.1615 -0.4400  0.0814
 5365W        W20982   4.926  15.910  15.126 -0.2905 -0.0027  0.3394
 5366W        W20983  10.052  10.708   1.455 -0.0312  0.2763 -0.3489
 5367W        W20984   0.853  15.159  13.562 -0.1243 -0.0416  0.1755
 5368W        W20985  17.815  17.155   2.247  0.1275 -0.2244 -0.0068
 5369W        W20986  15.418  17.595  15.160  0.1597 -0.1109 -0.2239
 5370W        W20987   7.548  16.658   2.340 -0.4733  0.0789  0.0716
 5371W        W20988  11.537  18.619   4.588  0.1125 -0.2815 -0.1970
 5372W        W20989  11.317  13.144  13.006  0.1290  0.1551  0.0574
 5373W        W20990  18.937  13.778  12.889  0.1212  0.0641 -0.1182
 5374W        W20991  18.487   4.660  12.386  0.1838  0.1476  0.0143
 5375W        W20992   1.656  12.589  12.282  0.0454  0.2714 -0.0230
 5376W        W20993   9.307  13.886   1.144 -0.0592 -0.1826 -0.0715
 5377W        W20994   2.414  17.319  11.583 -0.0967 -0.0134  0.3692
 5378W        W20995  10.313   2.658  10.879  0.4394  0.2367  0.3128
 5379W        W20996   8.295  18.188   4.120 -0.0542  0.1893 -0.1445
 5380W        W20997   8.513   5.185  12.542  0.1116  0.1089  0.1999
 5381W        W20998  15.718   8.091   2.687 -0.2040  0.1242  0.0578
 5382W        W20999  16.067  18.618  14.208 -0.0763  0.1120  0.0211
 5383W        W21000   9.822  18.792   4.140  0.0651  0.2587 -0.3113
 5384W        W21001   1.640  12.125  10.103 -0.1494 -0.2402 -0.2362
 5385W        W21002   5.693   9.379   5.266  0.1957 -0.4891 -0.0353
 5386W        W21003  15.054  18.788   4.404  0.3680  0.0817  0.1215
 5387W        W21004   0.011  13.688   3.364  0.0125  0.0061 -0.0670
 5388W        W21005   4.159  16.909  10.405  0.2217 -0.2855  0.1328
 5389W        W21006   8.237   0.011   0.082 -0.1422 -0.4240 -0.0435
 5390W        W21007  12.271   1.884  12.068 -0.1896  0.3283  0.1662
 5391W        W21008  13.309  18.046   2.158  0.0158 -0.2336 -0.1218
 5392W        W21009   0.460  14.488  10.802  0.0063 -0.3625  0.0876
 5393W        W21010  12.326  15.729  11.489  0.0600 -0.1002 -0.0751
 5394W        W21011   9.903  18.630   9.908  0.2522 -0.0822  0.0688
 5395W        W21012   4.112   7.830  14.628  0.3141 -0.1822  0.2290
 5396W        W21013   5.457  13.776   1.929 -0.0843 -0.4377  0.1541
 5397W        W21014   9.998  16.296   2.221 -0.0492  0.1180  0.2699
 5398W        W21015  16.439  12.825  10.755 -0.0411 -0.0140  0.0737
 5399W        W21016  14.495  13.365   0.148  0.1047  0.0397 -0.1385
 5400W        W21017   9.548   5.073  13.086 -0.4016 -0.3205  0.0518
 5401W        W21018  15.893  18.705   5.587 -0.4172 -0.0037 -0.1425
 5402W        W21019   5.976   3.420  11.176  0.1967 -0.3202 -0.0513
 5403W        W21020   2.275   1.342   4.154  0.0847  0.1303 -0.1005
 5404W        W21021   8.715   5.558  12.227 -0.0638 -0.1388 -0.0462
 5405W        W21022  12.473  14.090   2.020  0.1005 -0.1595  0.0601
 5406W        W21023  15.092  15.849   4.454  0.2467 -0.1434  0.0864
 5407W        W21024   6.220   8.596  15.163 -0.2806  0.0438 -0.2120
 5408W        W21025  12.897   9.182  11.013 -0.0053  0.1574 -0.1020
 5409W        W21026  12.529  11.418   4.319 -0.0100 -0.1885 -0.0669
 5410W        W21027   7.549   7.906  11.463  0.0712 -0.3877 -0.1977
 5411W        W21028   6.153   1.200  10.906 -0.0125  0.3594 -0.0115
 5412W        W21029  18.314  13.014  11.448  0.0200  0.0307 -0.0792
 5413W        W21030   8.477   0.577   2.834 -0.2163 -0.3023 -0.1396
 5414W        W21031   3.252   2.863  15.019  0.3798 -0.1990 -0.2817
 5415W        W21032   0.609   0.587  13.036  0.3637 -0.0513  0.1198
 5416W        W21033   9.936   3.230   3.636  0.0857 -0.0586 -0.1131
 5417W        W21034  15.048   6.653  14.676  0.0081  0.0423  0.6206
 5418W        W21035  17.778   0.367   2.349  0.1849  0.2058 -0.0645
 5419W        W21036   8.098  10.601   2.058  0.1866 -0.0115  0.0198
 5420W        W21037   8.215  14.657  11.000  0.1008  0.3129  0.0672
 5421W        W21038   4.127  10.484   2.216 -0.3405 -0.2547  0.1654
 5422W        W21039   2.614  15.889  14.154  0.1879  0.1177  0.4411
 5423W        W21040   3.245   4.481  13.609  0.0595  0.0169  0.1698
 5424W        W21041  16.362  18.787   5.014 -0.1068 -0.0801  0.1257
 5425W        W21042  14.888  15.364  14.678  0.0605 -0.1142 -0.0494
 5426W        W21043  16.944   7.635   2.219  0.0359 -0.1894  0.1230
 5427W        W21044  15.401   1.508   3.203  0.0668 -0.0561  0.1663
 5428W        W21045   3.796   7.872   1.877  0.0778  0.1797  0.0200
 5429W        W21046  18.292  13.776   4.003  0.1039 -0.2960  0.2867
 5430W        W21047  11.225  16.690   0.666 -0.1186 -0.1888 -0.3837
 5431W        W21048   7.412   1.137  15.238 -0.0083 -0.2906  0.0906
 5432W        W21049   6.917  13.662  12.448 -0.3175  0.1787 -0.1533
 5433W        W21050  17.164  17.198   0.584 -0.2343  0.1151 -0.4215
 5434W        W21051   1.408   4.675   3.779  0.0048  0.0014  0.2345
 5435W        W21052   6.587   2.810   3.496  0.1391 -0.1420 -0.0781
 5436W        W21053  18.762   1.235  13.451  0.1214  0.1183  0.3685
 5437W        W21054  18.702   8.786  11.658 -0.1594 -0.2955  0.1642
 5438W        W21055   7.370   6.876  11.376  0.3055  0.2790 -0.0414
 5439W        W21056  17.540  11.114   2.228 -0.1609 -0.1832  0.0327
 5440W        W21057   1.298   8.792   3.355  0.1084  0.0161 -0.1416
 5441W        W21058   8.005  16.064   9.516 -0.2118 -0.1340  0.2360
 5442W        W21059  12.934   3.253   1.106  0.3579 -0.0409 -0.1784
 5443W        W21060   2.583  16.123  13.661 -0.0281  0.0200  0.0788
 5444W        W21061   6.499   6.285   1.166 -0.3549  0.2266  0.0930
 5445W        W21062   5.249   4.207   4.046 -0.3530  0.1246 -0.0810
 5446W        W21063  10.076  11.620   1.995  0.1095 -0.4197  0.1970
 5447W        W21064   2.194   0.450  13.443 -0.2140 -0.2535  0.1987
 5448W        W21065  14.403  14.437  10.772 -0.1780 -0.2999 -0.1935
 5449W        W21066  14.345  14.135  12.621  0.2138  0.0028  0.2429
 5450W        W21067   0.146   6.180  12.887  0.0090 -0.1533  0.0417
 5451W        W21068  12.845   5.624   4.220 -0.5350  0.0200 -0.0355
 5452W        W21069  10.532   7.487   0.256  0.2518 -0.1135 -0.1541
 5453W        W21070   8.250   7.001   4.863  0.1873  0.3498 -0.1670
 5454W        W21071   0.625  14.143   4.415  0.1326  0.0162 -0.0291
 5455W        W21072   8.808   8.260   2.636  0.2011 -0.0347  0.2208
 5456W        W21073  12.100  12.184   5.154  0.0380 -0.1751  0.0501
 5457W        W21074  15.919  16.985  13.369  0.4134 -0.0859  0.1187
 5458W        W21075  15.523  18.889  12.227  0.0853  0.1152  0.1336
 5459W        W21076  10.390  14.432   4.972  0.2454 -0.1676  0.1879
 5460W        W21077   4.160   2.477   0.801  0.0568  0.0204 -0.0818
 5461W        W21078   0.241   5.899   2.478  0.3271  0.0710  0.0135
 5462W        W21079   9.998  10.449  13.125 -0.0031  0.0199 -0.0524
 5463W        W21080  12.728  17.104   3.753 -0.0167 -0.1337 -0.0720
 5464W        W21081  11.422   4.055  15.060 -0.3670 -0.0936 -0.0929
 5465W        W21082   0.877   1.007   0.904 -0.2035 -0.0236  0.1360
 5466W        W21083   7.773  13.676   3.049 -0.0004 -0.3852 -0.0471
 5467W        W21084   7.931  13.611  10.008  0.1763 -0.0827  0.1514
 5468W        W21085   6.989  17.958  11.576  0.0089  0.4824  0.0773
 5469W        W21086   2.604  16.375   2.949  0.2012 -0.0825  0.3714
 5470W        W21087   4.506   0.847  14.848  0.1822  0.3678 -0.0434
 5471W        W21088   5.516   0.382  14.329 -0.0518  0.1012 -0.1277
 5472W        W21089   5.432   9.847   2.377 -0.1851 -0.3297 -0.1773
 5473W        W21090   2.530  10.495  13.164 -0.1713 -0.1737 -0.1074
 5474W        W21091  18.217  18.011   0.015 -0.1400 -0.1805 -0.2218
 5475W        W21092   2.524   5.460  14.731  0.0983  0.0057 -0.1201
 5476W        W21093   6.311  13.985   5.393 -0.0881  0.0942 -0.4999
 5477W        W21094   2.517  16.734  15.194 -0.1178  0.0966 -0.2818
 5478W        W21095   6.073   6.423  12.593  0.1434  0.1448  0.3778
 5479W        W21096   7.740  18.814   1.537  0.3496 -0.1109 -0.1449
 5480W        W21097   8.316   1.872   5.882  0.3484  0.2424 -0.2642
 5481W        W21098   0.138  14.379  15.211 -0.1241 -0.1528  0.1527
 5482W        W21099  14.603  10.072   4.404 -0.1980 -0.1892 -0.3169
 5483W        W21100  14.324  11.552  14.007 -0.0323  0.1214 -0.0427
 5484W        W21101  14.107  15.906   0.617 -0.1647 -0.0320  0.1833
 5485W        W21102   8.131  12.328  13.227 -0.2664  0.0051 -0.0306
 5486W        W21103   0.488   8.929  11.198 -0.0628  0.0063  0.2371
 5487W        W21104  19.034  13.676  13.380 -0.0310 -0.1483  0.2198
 5488W        W21105  12.813   6.606   1.353 -0.0365 -0.0098  0.2130
 5489W        W21106   5.369   5.810   5.000  0.3768  0.0283 -0.1529
 5490W        W21107  18.420  16.470   1.504  0.1075 -0.0961 -0.1008
 5491W        W21108   6.330   2.763   0.710 -0.0279  0.2677 -0.0041
 5492W        W21109   1.333  12.991  11.088 -0.2325 -0.3648 -0.3254
 5493W        W21110   1.692   9.247  11.080 -0.1397 -0.2244  0.2593
 5494W        W21111  12.061   6.366   9.687  0.0306  0.0467 -0.0302
 5495W        W21112  15.479   4.559  11.267 -0.2509  0.0810  0.2144
 5496W        W21113  10.398   3.866   2.961  0.0432  0.0390  0.2285
 5497W        W21114   6.164  13.419  14.683  0.0098 -0.1688  0.1333
 5498W        W21115  16.571   5.887  14.949 -0.0519  0.1919 -0.3410
 5499W        W21116   6.436   1.392   3.394  0.0515  0.3814 -0.3088
 5500W        W21117  16.997  17.984  10.639 -0.0135 -0.1659 -0.0420
 5501W        W21118  11.720   6.729  13.432 -0.0129  0.1562  0.1023
 5502W        W21119   4.261   9.693   2.401 -0.1405 -0.1880 -0.4275
 5503W        W21120  12.789   2.385  14.633 -0.0022  0.1155  0.3110
 5504W        W21121   7.678   1.043  14.285 -0.0825  0.2762 -0.0931
 5505W        W21122  12.828   2.773   3.755 -0.3343 -0.0519  0.2339
 5506W        W21123   6.664   3.336  12.910  0.0203  0.2629 -0.1834
 5507W        W21124  14.479  15.970   1.104 -0.1179 -0.1350 -0.2286
 5508W        W21125   8.794   3.304   3.248 -0.4725 -0.0104 -0.2606
 5509W        W21126   6.185   0.722   1.218 -0.2422  0.2942 -0.0425
 5510W        W21127  17.233  14.563  12.409  0.0426  0.1332 -0.0882
 5511W        W21128  18.710  18.519   2.089  0.2740 -0.1410  0.1548
 5512W        W21129  17.935  16.909   1.813  0.0033 -0.1253 -0.1460
 5513W        W21130   0.517   8.329   1.706  0.0597  0.0009  0.0433
 5514W        W21131   9.506   4.570   4.901  0.1809 -0.4842  0.1091
 5515W        W21132  18.521   4.803  13.843 -0.0647  0.2308 -0.1376
 5516W        W21133   8.826  15.702  11.866 -0.2921 -0.0947  0.0375
 5517W        W21134  15.029   3.400   4.287  0.1983 -0.4523  0.1712
 5518W        W21135   5.950  17.612  10.878 -0.0430 -0.1896  0.0685
 5519W        W21136  17.510  11.984   1.825  0.2217  0.1100  0.1133
 5520W        W21137   4.956  13.604   5.140  0.1700 -0.4514 -0.1362
 5521W        W21138   5.286   0.491   5.285  0.3732 -0.1576  0.0508
 5522W        W21139   5.075  16.414   0.716  0.2087  0.2075  0.1487
 5523W        W21140  11.787   6.248  12.739  0.5397 -0.2604 -0.1257
 5524W        W21141   1.321   3.066   2.941 -0.0450  0.0988  0.0207
 5525W        W21142   4.218  13.696   1.472  0.0578 -0.3745 -0.0047
 5526W        W21143   0.183   6.434  11.249 -0.3135 -0.2223 -0.0580
 5527W        W21144  13.627   1.123   1.133  0.0857  0.1191 -0.2403
 5528W        W21145  16.307   0.339  14.386  0.1097  0.0671  0.0976
 5529W        W21146   4.862   4.330   2.533  0.0445  0.1739 -0.0940
 5530W        W21147  15.859  16.821   1.399  0.2504  0.0356 -0.0674
 5531W        W21148   7.229   7.744  14.925 -0.0230  0.1525  0.0418
 5532W        W21149   1.096   7.589  14.138 -0.2117 -0.0181 -0.0301
 5533W        W21150  11.144   0.934  12.547  0.1235 -0.1698  0.1171
 5534W        W21151   9.364   9.255   0.144  0.1103  0.3431  0.1728
 5535W        W21152   9.641  10.531  11.518  0.1330 -0.1475 -0.3834
 5536W        W21153   9.974  10.155   3.179 -0.1639 -0.1592 -0.3491
 5537W        W21154   9.844   7.599   0.456  0.2289  0.0810 -0.0835
 5538W        W21155   9.254   5.314  10.028 -0.0882  0.2731 -0.1884
 5539W        W21156  16.493  16.914  14.203  0.0458  0.0560  0.0258
 5540W        W21157  19.078   4.781   1.757  0.2149  0.2469  0.0066
 5541W        W21158   5.012   1.135  13.098  0.4237  0.1587  0.1572
 5542W        W21159  16.703   3.948   1.581  0.1450  0.1542  0.1879
 5543W        W21160  15.221   2.230  10.789  0.1404  0.1146 -0.2168
 5544W        W21161   7.088   2.632   3.340 -0.5471  0.1994 -0.1796
 5545W        W21162   6.188  18.679  14.574  0.0073 -0.0785  0.2417
 5546W        W21163   0.053  18.959  13.957  0.0163  0.1225  0.3492
 5547W        W21164   9.139  10.125   0.581  0.0683  0.1304  0.0124
 5548W        W21165  10.988   7.296  12.522  0.2166 -0.2199  0.3007
 5549W        W21166   7.592   0.364  10.274  0.2501 -0.3563 -0.0587
 5550W        W21167  10.314   7.616   2.137 -0.0538 -0.1223 -0.0420
 5551W        W21168   3.832   4.310   5.526  0.0573  0.1793 -0.3235
 5552W        W21169  15.472  12.729  14.812  0.0437 -0.3625 -0.3707
 5553W        W21170  15.160   8.060  12.773 -0.1716  0.1908 -0.3040
 5554W        W21171   7.837   0.458   0.633  0.2071 -0.2915 -0.1172
 5555W        W21172   7.028  10.174   2.708  0.1025  0.0274 -0.0613
 5556W        W21173   0.268   9.568   5.422 -0.0558  0.2176 -0.1615
 5557W        W21174   2.093  15.585  12.580  0.0915  0.0258 -0.2774
 5558W        W21175  14.996   7.131  14.234  0.1319  0.2106  0.2269
 5559W        W21176   2.377   2.442   3.446  0.2753 -0.0875  0.0065
 5560W        W21177  16.405   2.550   0.769 -0.0274  0.4225  0.0068
 5561W        W21178   6.041  18.851  13.494 -0.0356 -0.3486  0.3517
 5562W        W21179  18.557   4.366   2.879 -0.3151 -0.0668 -0.3054
 5563W        W21180  12.367   7.526  11.396 -0.1169 -0.4551  0.0994
 5564W        W21181   4.385   7.442   2.582 -0.1322  0.1158 -0.1863
 5565W        W21182  13.907   1.154  12.671 -0.0037  0.0454 -0.4090
 5566W        W21183   7.255  14.321   5.057 -0.2362  0.0891 -0.1284
 5567W        W21184   7.918  14.320   0.469 -0.2335  0.3023 -0.1891
 5568W        W21185  10.810   5.810  11.006 -0.1624  0.1920 -0.1547
 5569W        W21186   3.927  18.738  13.331  0.1002  0.3500  0.0547
 5570W        W21187   3.746  16.941  12.944  0.0835  0.3184 -0.1755
 5571W        W21188   0.645  14.388  12.991  0.1147  0.0472  0.2063
 5572W        W21189  11.872  12.233   4.257 -0.2104 -0.3693 -0.1944
 5573W        W21190  17.618  16.378  11.870  0.1822  0.0457 -0.1531
 5574W        W21191   9.811   3.718  12.622 -0.1425 -0.1597 -0.0581
 5575W        W21192  10.181   3.650   4.292 -0.1603 -0.1122  0.0244
 5576W        W21193   1.077   4.541  12.737 -0.2453  0.2221 -0.1638
 5577W        W21194   9.589  13.207   4.957  0.1289 -0.0199 -0.0115
 5578W        W21195  13.166   9.830  10.312  0.0237 -0.1599  0.1630
 5579W        W21196   7.798  14.629   3.355 -0.1699  0.2500  0.0325
 5580W        W21197   3.494   1.718   0.568 -0.0725  0.1184  0.0850
 5581W        W21198   2.086  17.385  13.945 -0.0665  0.0629  0.4553
 5582W        W21199  18.895   3.240  11.296 -0.0961  0.2189 -0.0616
 5583W        W21200   0.410  17.079   3.258  0.0463 -0.0234  0.0774
 5584W        W21201   4.798   0.301  11.716  0.0427 -0.2478  0.5717
 5585W        W21202  14.893   4.038   0.914 -0.1369 -0.0744  0.0730
 5586W        W21203  17.556  11.935   4.806  0.3382  0.0382  0.1265
 5587W        W21204   1.896  12.800   1.756  0.1356 -0.2083  0.3004
 5588W        W21205   6.702  16.064   0.404 -0.0063 -0.0698 -0.0574
 5589W        W21206   7.298   1.388  14.691  0.2202  0.0551  0.2711
 5590W        W21207  17.615   9.004  14.236 -0.0543  0.1205  0.2744
 5591W        W21208   4.569   8.296  10.271  0.2455 -0.4788  0.1502
 5592W        W21209   4.912  13.655  12.129 -0.0272  0.1948  0.1037
 5593W        W21210   2.872   0.231   3.480  0.0375  0.2554 -0.0045
 5594W        W21211  12.183  13.622  10.612  0.1809 -0.0828 -0.2298
 5595W        W21212   9.513   1.729  15.222  0.4832  0.1293 -0.2776
 5596W        W21213  15.122   4.999  12.169 -0.1446 -0.0423  0.4678
 5597W        W21214   3.316  18.498   4.392  0.3244  0.2105  0.2343
 5598W        W21215  10.734  18.323  13.374 -0.1987  0.2127 -0.1850
 5599W        W21216  17.416  14.625   1.492  0.1135  0.1698 -0.2366
 5600W        W21217   4.385  17.768  14.052  0.3144  0.0633  0.1535
 5601W        W21218  13.239   2.287  13.726 -0.0532 -0.3880  0.2073
 5602W        W21219  15.452  13.631  14.020 -0.0228  0.2193 -0.0840
 5603W        W21220   9.933   0.849  12.882  0.0171  0.0470 -0.1701
 5604W        W21221   0.667  11.344  10.501 -0.1392 -0.5097  0.0071
 5605W        W21222  11.092  10.507   0.206 -0.2649  0.1534 -0.0268
 5606W        W21223   7.558  15.514   9.824 -0.1903  0.1067  0.1682
 5607W        W21224  17.498   1.755  14.689 -0.2175 -0.3504 -0.2761
 5608W        W21225   3.380   0.884   4.612 -0.0153  0.3545  0.1657
 5609W        W21226  13.616   3.316   0.510 -0.1593  0.0838 -0.0017
 5610W        W21227   3.996  10.065   1.968  0.1492  0.0149 -0.2304
 5611W        W21228  16.750   4.482   1.553 -0.2873 -0.0143  0.1325
 5612W        W21229  17.448   9.904  14.825  0.0860 -0.0036  0.3457
 5613W        W21230   1.847   7.302  13.789  0.0034 -0.0055 -0.3492
 5614W        W21231  15.455  17.058   0.731  0.4546  0.1562 -0.2296
 5615W        W21232   0.798  13.901   0.594  0.2134  0.0146  0.0868
 5616W        W21233   5.489  11.522   2.142 -0.2993  0.0322  0.2062
 5617W        W21234   0.003   3.950  11.661 -0.3322 -0.0108 -0.0347
 5618W        W21235   8.440   6.152  13.590  0.1136 -0.0947  0.2111
 5619W        W21236   2.541   0.041   0.239 -0.0335 -0.1313  0.1018
 5620W        W21237   8.383  14.682   6.035  0.0189  0.0065 -0.0428
 5621W        W21238   0.729  14.180   0.189 -0.2273 -0.3360  0.0038
 5622W        W21239   8.308   3.528  13.506  0.1795 -0.1553 -0.0027
 5623W        W21240   5.522  18.651   3.433 -0.2091 -0.2918 -0.1923
 5624W        W21241   1.808  15.335   0.580 -0.2265 -0.0432  0.0359
 5625W        W21242  12.847   6.743  10.740  0.2007 -0.1867 -0.1993
 5626W        W21243  15.245  10.710  13.526 -0.3048 -0.3226 -0.2275
 5627W        W21244   9.417   8.635   3.986  0.3853 -0.0462 -0.1269
 5628W        W21245   9.369   3.873   0.375  0.1629 -0.0998  0.4889
 5629W        W21246   1.504  13.644   1.778  0.1006 -0.0510  0.3429
 5630W        W21247   3.650  10.193   4.828  0.3101  0.0230 -0.0340
 5631W        W21248   6.096   8.197   3.133 -0.0332  0.0596 -0.1250
 5632W        W21249   5.825  10.502   3.301 -0.4059  0.1158  0.0801
 5633W        W21250  11.003   8.450  11.638 -0.0332  0.2908 -0.0914
 5634W        W21251   2.491   8.493   4.683 -0.2287  0.3546 -0.0600
 5635W        W21252  12.928   6.608  11.550 -0.0683 -0.0730  0.2061
 5636W        W21253  18.266   6.744  12.333  0.1629  0.1946 -0.0052
 5637W        W21254  14.550   1.961  13.298 -0.0066  0.2218 -0.0308
 5638W        W21255   3.422  18.950  13.547  0.1705  0.1649  0.1473
 5639W        W21256  17.436  15.066   1.688 -0.2075  0.1879  0.0566
 5640W        W21257  13.288   9.216  14.935 -0.2045 -0.0826 -0.0733
 5641W        W21258   1.015  11.567   4.300 -0.0930  0.0821  0.1485
 5642W        W21259   5.090  16.789   1.255  0.0364 -0.2188 -0.2953
 5643W        W21260   6.423  18.857   1.218  0.2938  0.1007  0.3106
 5644W        W21261   6.414   6.865  14.923 -0.2111 -0.4184 -0.3189
 5645W        W21262  15.705   8.867  12.128 -0.2837  0.1491  0.0104
 5646W        W21263  17.015  12.565  13.942  0.0356 -0.0416  0.0075
 5647W        W21264  18.679  18.979  13.575 -0.0513 -0.0542  0.2628
 5648W        W21265  15.558  11.550   3.080  0.1414  0.1905 -0.2596
 5649W        W21266   9.905  15.726  10.971  0.2390  0.0846 -0.2409
 5650W        W21267   4.777   0.104  13.692 -0.3370  0.1575  0.1890
 5651W        W21268  13.960  11.823  13.288 -0.1532 -0.1754 -0.0490
 5652W        W21269  12.295  12.285  10.248 -0.1269  0.1328  0.0097
 5653W        W21270   6.063   7.894  11.097 -0.0664  0.0543 -0.0961
 5654W        W21271   4.626  14.773   3.526  0.0914  0.0372  0.1926
 5655W        W21272   1.369   7.760  10.560  0.1994 -0.1659 -0.1792
 5656W        W21273  12.353   5.890   4.305 -0.2706  0.3170 -0.1592
 5657W        W21274  10.292   5.417   5.117  0.2061 -0.1369 -0.1889
 5658W        W21275  17.329   0.812  13.055 -0.0350 -0.1834 -0.3368
 5659W        W21276  12.251  13.105   2.608 -0.0910 -0.0972 -0.3088
 5660W        W21277   2.973   5.178   3.488  0.0638 -0.0424 -0.1235
 5661W        W21278  10.096  13.836   0.566 -0.1700 -0.0603  0.2327
 5662W        W21279  16.334   4.301   3.357  0.1093 -0.0291 -0.2043
 5663W        W21280  11.810   9.903   2.592 -0.0959 -0.3087 -0.0176
 5664W        W21281   1.989   8.096  14.157 -0.0473 -0.0112 -0.3026
 5665W        W21282   9.304   8.443   4.856 -0.2368 -0.1748 -0.1523
 5666W        W21283   2.887  14.877  14.978 -0.2970  0.1789 -0.0736
 5667W        W21284  15.352   5.706   4.700  0.0038 -0.0336  0.1646
 5668W        W21285   9.749   0.594  11.164 -0.3287 -0.0431 -0.1671
 5669W        W21286   6.250   9.064  13.881  0.0814  0.2424 -0.1803
 5670W        W21287   0.473  18.345  10.619  0.0376 -0.1965 -0.1738
 5671W        W21288  18.427   2.476   4.330  0.2658  0.0555  0.2432
 5672W        W21289  12.644   1.646  12.421 -0.2923  0.1094  0.2682
 5673W        W21290   9.949   8.158   2.872 -0.0032  0.0120  0.0915
 5674W        W21291   1.284   7.421  11.241  0.1379 -0.2797  0.1084
 5675W        W21292  17.186   8.911  14.554  0.0226 -0.0736 -0.1657
 5676W        W21293   9.716  11.613   2.444 -0.1865 -0.0666 -0.1104
 5677W        W21294   8.857   4.644   3.368 -0.1784  0.1630  0.2177
 5678W        W21295   5.991  14.563   2.402  0.0031 -0.3201 -0.0212
 5679W        W21296  13.110  11.777  14.513  0.3296 -0.1389  0.0992
 5680W        W21297   3.510  11.761   4.921  0.1187  0.1713 -0.0702
 5681W        W21298   5.137   1.817  12.168 -0.1112 -0.0803 -0.2694
 5682W        W21299  12.714  14.363   1.706  0.1694  0.0907  0.0227
 5683W        W21300   7.894   6.542  11.035  0.2740  0.1959 -0.0191
 5684W        W21301   2.902  12.342  14.339 -0.1786 -0.0463  0.2783
 5685W        W21302   5.854   2.704   0.833 -0.2404 -0.0824  0.1045
 5686W        W21303   4.461   4.381   1.064  0.2345 -0.2801 -0.1497
 5687W        W21304   6.591   1.037   0.992  0.0942 -0.0181  0.2075
 5688W        W21305   8.506  16.501  13.226 -0.2823 -0.1441  0.2010
 5689W        W21306   3.068   4.206   1.565  0.0441  0.2032  0.2933
 5690W        W21307  14.874   7.875   0.859  0.0073 -0.1920 -0.1444
 5691W        W21308  12.115  10.478   0.241  0.2113  0.2212 -0.0251
 5692W        W21309  11.016  10.654   2.384 -0.0100  0.2537  0.1937
 5693W        W21310   6.100   6.662   1.067  0.2028  0.0108  0.0035
 5694W        W21311   0.414   7.305  11.468 -0.0063 -0.2494 -0.1253
 5695W        W21312  17.592   7.162  11.482 -0.3826  0.0848  0.1568
 5696W        W21313  10.350  14.095   0.053  0.2743 -0.3794 -0.0181
 5697W        W21314   7.746   3.078   1.903  0.1823  0.1789 -0.2580
 5698W        W21315   3.331  13.170   0.473  0.1071  0.0472  0.0021
 5699W        W21316  12.099   0.087  13.894  0.0560 -0.0223  0.0222
 5700W        W21317  15.587  13.937   1.415  0.2616  0.1603 -0.1782
 5701W        W21318  12.540   1.538   2.526 -0.5695 -0.0416  0.2252
 5702W        W21319  13.087  15.038  13.340  0.0000 -0.2148 -0.0208
 5703W        W21320  18.006   2.152  13.680 -0.2050  0.1487 -0.0697
 5704W        W21321   1.594  12.407   1.986  0.0249  0.0548  0.1735
 5705W        W21322  17.232  12.987  13.698 -0.3439  0.3509 -0.2413
 5706W        W21323  10.779   7.368   0.859  0.1732  0.3809 -0.1589
 5707W        W21324  17.474   2.924  12.092 -0.3526  0.1456 -0.2988
 5708W        W21325   4.614  15.210  13.088 -0.2055 -0.2805 -0.0948
 5709W        W21326  10.851  14.694  12.246 -0.0556 -0.0249 -0.0999
 5710W        W21327  12.703   4.683   0.076  0.2911  0.0360  0.2170
 5711W        W21328  11.057  16.543  13.042 -0.0423 -0.1144 -0.0078
 5712W        W21329  11.479   3.067   2.516 -0.1805  0.0159 -0.1466
 5713W        W21330  13.809   7.201   0.690 -0.1931 -0.0219 -0.3011
 5714W        W21331  13.739  18.436   1.260  0.1625 -0.0935  0.1687
 5715W        W21332   3.665  10.599  10.545 -0.1121  0.1826  0.0138
 5716W        W21333   1.863   9.514  11.483  0.1483  0.2905 -0.4156
 5717W        W21334   2.540   4.796  14.482  0.0808 -0.2131 -0.1231
 5718W        W21335   5.775  12.529   4.806  0.3918  0.4337 -0.2792
 5719W        W21336  13.090  10.794   5.276  0.2565  0.1064  0.0376
 5720W        W21337   6.508  15.209  13.866  0.0127 -0.1930  0.2058
 5721W        W21338   9.232  13.391  12.861  0.4554  0.2535  0.0245
 5722W        W21339  10.198  15.293  12.298  0.1575  0.1646  0.4232
 5723W        W21340   0.233  16.688  12.129 -0.2396 -0.1522 -0.0911
 5724W        W21341   6.463   4.760   9.856 -0.0544 -0.0494 -0.2475
 5725W        W21342  16.404  14.784   3.486  0.0516 -0.0242 -0.1931
 5726W        W21343  19.007  17.277   0.989  0.1477 -0.1252 -0.0935
 5727W        W21344   4.261   6.575  12.005  0.2352 -0.0437 -0.0497
 5728W        W21345   1.223  12.465  15.032  0.1047  0.0420  0.1168
 5729W        W21346   7.372   2.564  15.045  0.0675 -0.2004 -0.1666
 5730W        W21347   6.693   9.569  11.880  0.0136 -0.3906 -0.0237
 5731W        W21348  11.080   5.931   0.885 -0.2222  0.0545 -0.1408
 5732W        W21349   8.511  12.238  14.929 -0.0865  0.0505  0.1323
 5733W        W21350   4.707  17.415   2.918 -0.0930 -0.1008  0.1687
 5734W        W21351   3.399   1.638   3.053 -0.3815  0.2290  0.1669
 5735W        W21352  16.342   8.257  14.014 -0.0161 -0.0663 -0.0152
 5736W        W21353   4.298  12.145   1.951  0.0411  0.1881 -0.0306
 5737W        W21354  11.951  18.024   5.148  0.0448  0.1906  0.0652
 5738W        W21355  18.995  11.418   2.744  0.0020 -0.1499  0.0164
 5739W        W21356   2.395   4.386  14.087  0.0444 -0.4468  0.1549
 5740W        W21357   6.704   3.560   1.499 -0.4760  0.0256 -0.0558
 5741W        W21358  12.639  16.080   2.591 -0.0419 -0.0876  0.0342
 5742W        W21359   8.275  13.202  10.126 -0.0348  0.0665  0.1069
 5743W        W21360  10.456   0.075   1.992 -0.0247  0.3865 -0.1305
 5744W        W21361   9.031   0.566  12.817  0.0012  0.0197 -0.2706
 5745W        W21362   9.677   3.971  14.801  0.1812 -0.0886 -0.2378
 5746W        W21363  13.141   6.543  12.746 -0.1900  0.0834 -0.2261
 5747W        W21364   9.758   3.616   3.983  0.1903  0.0468  0.4290
 5748W        W21365   9.811   5.034  13.818 -0.0565 -0.2874  0.1230
 5749W        W21366   3.884   1.845  13.266  0.2164  0.2144 -0.0456
 5750W        W21367   6.612   2.939   2.888 -0.1332 -0.0583 -0.0720
 5751W        W21368   8.687   5.295  13.302  0.1076  0.1034 -0.0756
 5752W        W21369  17.094   3.848   3.361  0.1097  0.3200  0.0785
 5753W        W21370   7.097  12.749   1.761 -0.0786 -0.0616  0.0126
 5754W        W21371   5.231   2.484   2.988  0.2525 -0.2772 -0.1838
 5755W        W21372  11.019   0.996   5.043 -0.1853 -0.2418 -0.0483
 5756W        W21373   1.621  18.394   3.497 -0.0058 -0.0002  0.1243
 5757W        W21374   5.850   1.296   2.441  0.0324  0.0033 -0.0590
 5758W        W21375   6.088   5.529  13.222  0.0892  0.1051  0.3279
 5759W        W21376   5.122   8.580  10.796  0.2202 -0.1088  0.2568
 5760W        W21377  11.039  13.246   9.830  0.1293 -0.1694 -0.0221
 5761W        W21378  13.492  10.604  13.598 -0.0952  0.1205 -0.3104
 5762W        W21379  12.601   2.867  13.094  0.0091  0.0335 -0.0720
 5763W        W21380   5.997   0.531  13.984  0.1820  0.0039  0.0109
 5764W        W21381   7.389  18.762  11.682  0.0777  0.2469  0.3353
 5765W        W21382  18.365  12.409  14.487  0.0478 -0.0394  0.1046
 5766W        W21383  10.520   5.896   0.590  0.1812 -0.0239 -0.1161
 5767W        W21384  11.441  15.392  13.811  0.4386 -0.0550 -0.2019
 5768W        W21385   1.199   6.253  10.845 -0.1768 -0.0622 -0.1829
 5769W        W21386  14.899   8.442  13.030  0.0577 -0.0673  0.2405
 5770W        W21387   0.684   2.945  12.811 -0.2362 -0.4499 -0.3169
 5771W        W21388   0.706   5.706   2.342  0.0916 -0.1880  0.2501
 5772W        W21389   7.171  16.808   4.412  0.2664 -0.3474  0.2428
 5773W        W21390   3.912  14.826   0.177  0.1410  0.5201 -0.0064
 5774W        W21391   7.138  16.535   2.548 -0.2527  0.0763 -0.1683
 5775W        W21392   4.029  14.882   1.065 -0.0156 -0.0411 -0.0951
 5776W        W21393  18.306  15.418   0.643  0.1639  0.1150 -0.1582
 5777W        W21394  12.965   8.339   1.284  0.2472 -0.0269  0.1421
 5778W        W21395   3.744  17.104  13.449 -0.0984 -0.0030 -0.0250
 5779W        W21396  13.062  18.478  14.892  0.0152 -0.2024 -0.1528
 5780W        W21397  13.383  12.719   5.117 -0.1042 -0.1793 -0.0166
 5781W        W21398   5.887  18.527   1.892 -0.1629 -0.0996  0.0690
 5782W        W21399  10.597   2.405  15.116 -0.0572  0.0851  0.1696
 5783W        W21400  16.796  10.915   2.884  0.0997  0.3288 -0.1839
 5784W        W21401  16.695   6.242   1.253 -0.2921  0.0802 -0.1588
 5785W        W21402   8.058  13.946   5.034  0.1317  0.2098 -0.2371
 5786W        W21403   0.081   0.841  14.576  0.1988  0.2106 -0.0780
 5787W        W21404   5.041   8.233   9.793  0.2560 -0.0964  0.3187
 5788W        W21405   8.940  14.311   4.978  0.2145  0.0842 -0.2811
 5789W        W21406   4.158  13.725  12.703 -0.2052  0.0241  0.0912
 5790W        W21407  11.940   5.816  12.474  0.0305 -0.0280  0.0246
 5791W        W21408   7.365   1.733   2.606 -0.0377  0.1698 -0.2405
 5792W        W21409   5.160   0.903  13.956  0.1481 -0.0463  0.1119
 5793W        W21410  17.785   3.224   4.411  0.0410 -0.1437  0.3158
 5794W        W21411  17.400  17.975   0.181 -0.1921 -0.1725 -0.1435
 5795W        W21412  10.365   3.584  11.254  0.1356  0.1986 -0.3512
 5796W        W21413  18.647   4.718  15.183 -0.1064  0.5586 -0.0457
 5797W        W21414   1.771   7.189  11.235 -0.0261 -0.0427 -0.1232
 5798W        W21415   9.806  12.342  10.961  0.2145  0.1206 -0.3395
 5799W        W21416  18.983  11.525  12.070  0.1550  0.1705 -0.0998
 5800W        W21417   0.480   2.381  10.428  0.1221 -0.2674 -0.2942
 5801W        W21418   4.001  15.387   1.238 -0.2007 -0.0026  0.1421
 5802W        W21419   7.558  10.574  11.551  0.1228  0.0227  0.1988
 5803W        W21420   1.391   9.819   4.420 -0.0244  0.0205 -0.0412
 5804W        W21421   5.558  14.759   4.999  0.0767  0.2948 -0.5385
 5805W        W21422   4.004   5.786  14.729 -0.1098 -0.4839 -0.0369
 5806W        W21423  11.887   6.232  13.246 -0.0507  0.4120 -0.1067
 5807W        W21424  18.665  15.950   1.563 -0.0493 -0.2197  0.0799
 5808W        W21425   2.608  17.009   5.372 -0.2201 -0.2378  0.0497
 5809W        W21426   1.641  16.772  14.604  0.1480 -0.3536 -0.1250
 5810W        W21427  13.263   2.845   1.263  0.1212  0.0964  0.2490
 5811W        W21428   1.339   6.808  14.305  0.0063  0.2255  0.2283
 5812W        W21429   8.795   7.393   3.108  0.0535  0.0366 -0.3328
 5813W        W21430   9.829  17.807   0.430  0.0536 -0.2059 -0.2298
 5814W        W21431  11.195   8.629   1.587  0.2050  0.1830 -0.0632
 5815W        W21432  16.849  15.273   1.625  0.1763  0.2119  0.1545
 5816W        W21433  15.123   9.694  12.358  0.1611  0.0850  0.1090
 5817W        W21434   7.531   4.325   0.518  0.2907 -0.1366 -0.0437
 5818W        W21435  17.796  16.911   1.354  0.0778 -0.0120 -0.1996
 5819W        W21436   2.247   3.515   4.017  0.4437 -0.1949  0.1914
 5820W        W21437   7.235  11.483  12.564  0.0166 -0.3435  0.0607
 5821W        W21438  13.818   7.976  11.582  0.0582 -0.2574  0.0919
 5822W        W21439   1.645  16.974  15.096  0.2673 -0.0751 -0.1917
 5823W        W21440  17.881   0.711  11.291  0.2991  0.1030 -0.1496
 5824W        W21441  15.790  14.239   0.362 -0.0237 -0.1130 -0.0659
 5825W        W21442   2.821  18.307   2.084  0.1380 -0.2073  0.0876
 5826W        W21443   8.468   3.509  11.876 -0.0714  0.5440 -0.0973
 5827W        W21444  14.409  12.250   1.149 -0.2145  0.1095 -0.2430
 5828W        W21445   8.411  11.556  12.095 -0.0845  0.0461  0.1769
 5829W        W21446  13.716  14.338  14.034 -0.0674 -0.3797 -0.1513
 5830W        W21447  10.066  11.208   0.212  0.3386  0.0166 -0.1861
 5831W        W21448  10.751  16.910  11.380  0.2968 -0.0945  0.0709
 5832W        W21449  12.126  11.870   5.551  0.0447 -0.1156 -0.2031
 5833W        W21450   9.733   7.887   4.258 -0.2242 -0.0820 -0.0851
 5834W        W21451   0.329   3.701   0.761  0.0943 -0.3033 -0.0764
 5835W        W21452   7.222   1.254   0.823 -0.2025  0.0623  0.2175
 5836W        W21453   9.828  16.821   2.997 -0.1834  0.0210  0.1038
 5837W        W21454   4.551   3.447  12.327  0.1439 -0.1212  0.0921
 5838W        W21455  10.127  11.069  14.800 -0.0726  0.1020  0.0493
 5839W        W21456   9.002   2.946   5.334 -0.3240 -0.0533  0.1616
 5840W        W21457  16.325   2.639  11.295 -0.1454 -0.2951  0.0715
 5841W        W21458   8.562   9.710   3.184 -0.0985  0.1192  0.0336
 5842W        W21459  10.126  15.624   5.605 -0.1675 -0.0362  0.0614
 5843W        W21460  14.342  16.205   4.845 -0.1628 -0.0458  0.1069
 5844W        W21461  11.601   5.664  11.645  0.2002 -0.1800  0.0412
 5845W        W21462   9.709   7.288  11.497 -0.0609 -0.1479 -0.3116
 5846W        W21463   1.174   6.754   0.322 -0.0630  0.2868  0.2019
 5847W        W21464   5.253   3.131  15.207 -0.0658 -0.0687 -0.2103
 5848W        W21465  14.235  18.714   4.465  0.1590  0.0269  0.0318
 5849W        W21466  12.958   5.880  14.120 -0.0747 -0.1940 -0.2889
 5850W        W21467   7.344   7.727   5.073  0.0451 -0.0089 -0.4234
 5851W        W21468   7.177   8.526   1.936  0.1628  0.0462 -0.0761
 5852W        W21469  19.006   9.179  14.307  0.1128  0.1938 -0.4417
 5853W        W21470   9.640  10.737   2.296 -0.0331  0.1106 -0.2253
 5854W        W21471  14.448   6.545  12.948 -0.0525  0.0234 -0.5204
 5855W        W21472  10.123   9.527   1.962  0.0725 -0.0976  0.2357
 5856W        W21473   2.776   4.398   0.681 -0.0794  0.0816 -0.4192
 5857W        W21474   8.967  18.362   0.210  0.0190 -0.1503 -0.0622
 5858W        W21475  13.924   8.905  10.166  0.1653  0.2848 -0.1888
 5859W        W21476  18.836   0.254   0.772  0.1139 -0.0989  0.1493
 5860W        W21477   3.003   8.085   0.857 -0.2349 -0.1719 -0.0087
 5861W        W21478   7.850  10.456  14.994 -0.2886 -0.2434  0.2644
 5862W        W21479   1.996   9.218   5.961 -0.1664  0.2825  0.2656
 5863W        W21480   3.160  13.520   2.640  0.1098 -0.1254 -0.1675
 5864W        W21481  13.545  13.944  14.198 -0.1677  0.0407  0.0518
 5865W        W21482  16.402   1.637  10.803  0.0181 -0.0736 -0.1255
 5866W        W21483  14.583   0.315  10.676  0.1689  0.0048 -0.3255
 5867W        W21484   3.298   6.219  14.567  0.0760 -0.1131  0.1516
 5868W        W21485  15.415  16.309  11.785  0.1177 -0.0287  0.2955
 5869W        W21486   4.347   0.928   3.247 -0.1998 -0.0679 -0.1128
 5870W        W21487   0.838  18.241  10.915 -0.0036 -0.1432  0.2103
 5871W        W21488   7.491  14.438   4.183 -0.2282 -0.0378  0.0639
 5872W        W21489   2.543   4.589   4.766  0.0250  0.0347 -0.1262
 5873W        W21490   9.687   6.454  14.992  0.1729 -0.0650 -0.0514
 5874W        W21491   1.510  18.997  11.606  0.2748 -0.3933  0.0874
 5875W        W21492  12.333  10.162  14.670 -0.0988  0.0491 -0.0665
 5876W        W21493   4.617   7.358   3.421 -0.0488 -0.2687  0.0731
 5877W        W21494  15.836   1.719   5.862  0.1764  0.0912 -0.0995
 5878W        W21495   2.188   6.656   2.752 -0.2050  0.0385 -0.0506
 5879W        W21496  14.719   9.655  11.383 -0.0564  0.0332 -0.0562
 5880W        W21497   4.610  11.084  10.601  0.1533  0.0239  0.2478
 5881W        W21498   4.113  12.936  14.580  0.0887 -0.0308  0.3012
 5882W        W21499   1.184   0.607  14.382  0.1626 -0.0264 -0.1728
 5883W        W21500  15.923  11.340  14.830  0.2544  0.2033  0.0941
 5884W        W21501  17.491  13.442  12.560 -0.0047  0.0234  0.2434
 5885W        W21502   5.699   9.767   3.190  0.1589 -0.2469  0.0352
 5886W        W21503   4.570  14.756   0.819 -0.4628  0.1072  0.1888
 5887W        W21504   8.308  14.179  12.316  0.0656 -0.0923  0.2411
 5888W        W21505  13.529   9.267   2.674  0.0241  0.2572 -0.1609
 5889W        W21506  18.465   4.020   2.435  0.1573 -0.0400  0.0942
 5890W        W21507   9.058   9.211   1.062  0.1212  0.0870 -0.2014
 5891W        W21508  14.541   1.268   5.175  0.0032  0.1757  0.1204
 5892W        W21509  10.521   0.705  14.855  0.1900  0.0178  0.0421
 5893W        W21510   0.560   6.351   3.681 -0.1290  0.0528  0.3364
 5894W        W21511   4.754   9.859  12.002 -0.2928 -0.0706 -0.1820
 5895W        W21512  17.222   0.064  13.601 -0.0656  0.1273 -0.3421
 5896W        W21513  13.814  10.066  14.730  0.0525 -0.0953  0.3343
 5897W        W21514  11.073  18.203   1.165  0.3996  0.0346 -0.0626
 5898W        W21515  10.716   7.148  10.767  0.0607  0.1974  0.0837
 5899W        W21516  11.561   3.412  12.389 -0.1251  0.0803 -0.0601
 5900W        W21517  12.155  18.902  14.463  0.0319  0.0003  0.1126
 5901W        W21518  11.169  14.150   3.173 -0.0243 -0.0461  0.0113
 5902W        W21519  10.340  14.340  14.359  0.0671  0.1911  0.0942
 5903W        W21520   6.566  15.200   0.396 -0.4219  0.0520 -0.2588
 5904W        W21521   5.361   6.832   1.593 -0.2824  0.2090 -0.3928
 5905W        W21522   1.780   4.424  12.089  0.5118  0.1937  0.3670
 5906W        W21523  12.332  14.774   1.179 -0.2690 -0.1895  0.1089
 5907W        W21524  10.587   3.850  13.780 -0.2119 -0.3876 -0.1042
 5908W        W21525   1.360   7.430   0.717 -0.0115 -0.0349  0.1158
 5909W        W21526  13.128  10.975   1.575 -0.3056  0.0347  0.2046
 5910W        W21527   0.441   4.687   1.442  0.5198 -0.2103  0.0279
 5911W        W21528  13.375  14.215  13.660  0.1007  0.0074  0.0172
 5912W        W21529  17.593  17.698   2.944  0.2259  0.1650  0.2525
 5913W        W21530  18.939   5.882  10.714  0.0969 -0.0370  0.2489
 5914W        W21531  11.641   6.853   2.400 -0.1196  0.0318  0.3750
 5915W        W21532  14.155   2.860   0.118 -0.2665 -0.2358  0.3338
 5916W        W21533   7.711  15.566  12.571 -0.1106  0.0812 -0.1200
 5917W        W21534  16.269   1.670  11.327 -0.2281 -0.0763  0.0023
 5918W        W21535   9.252   5.536  15.219 -0.4064 -0.1696  0.2242
 5919W        W21536   7.817   4.238  13.198 -0.1096  0.2376  0.1691
 5920W        W21537  11.981  10.361  13.774  0.0508  0.0169 -0.0903
 5921W        W21538   5.976   7.835   3.466 -0.0718  0.1976 -0.1585
 5922W        W21539  10.921   8.380   4.467  0.2740 -0.3363  0.3522
 5923W        W21540   2.861   5.120   5.726 -0.1598  0.1404  0.1822
 5924W        W21541   9.198  19.050   1.036  0.1260  0.2606  0.0173
 5925W        W21542   6.190   6.398  11.521  0.2921  0.0758 -0.1992
 5926W        W21543   3.400   2.294   4.975 -0.1013 -0.3677 -0.1337
 5927W        W21544  13.436   3.371   3.939 -0.1120 -0.2261  0.1754
 5928W        W21545  16.892   5.850  11.779 -0.3874  0.0244  0.0813
 5929W        W21546  14.447   1.577  12.411 -0.1064  0.0207  0.0471
 5930W        W21547   1.836   3.009  14.962 -0.1845 -0.0234 -0.1745
 5931W        W21548  17.657  14.215  12.334  0.0490  0.0767 -0.0336
 5932W        W21549   5.913   5.598  12.112 -0.0812 -0.0711 -0.3429
 5933W        W21550  15.249   2.068  14.059  0.0631 -0.0509 -0.0456
 5934W        W21551   4.270   4.387   9.863  0.2619 -0.3690  0.2858
 5935W        W21552   0.373   4.998   5.025 -0.0221  0.1618 -0.0959
 5936W        W21553   3.180   6.723   5.046 -0.1427  0.3612  0.1299
 5937W        W21554  15.835   2.709  11.252  0.0836 -0.2080  0.0695
 5938W        W21555   2.651   4.866   4.131  0.5242 -0.0327  0.0622
 5939W        W21556  14.296  11.427   0.977 -0.2923  0.2396 -0.1622
 5940W        W21557  12.328   0.514  15.178  0.0200 -0.5028 -0.0530
 5941W        W21558  14.600  18.786   0.460 -0.1370 -0.1859  0.2431
 5942W        W21559   8.019   9.493   2.723 -0.1606  0.2829  0.0709
 5943W        W21560   7.731   8.852  10.516  0.0311  0.0986 -0.1680
 5944W        W21561   0.897  14.253   1.264  0.1140  0.2232 -0.0200
 5945W        W21562   0.059  15.609   9.964 -0.0587  0.3404  0.1557
 5946W        W21563  17.906  17.894   1.674 -0.2181 -0.2259 -0.0378
 5947W        W21564  13.303   5.064   0.626 -0.2167 -0.1222 -0.0168
 5948W        W21565  10.964   7.954  13.915 -0.2484  0.2497  0.0268
 5949W        W21566   1.621   2.345   3.841  0.1755 -0.1435 -0.0841
 5950W        W21567  12.091   6.438  15.256 -0.0366  0.2148 -0.1321
 5951W        W21568   5.992   7.806   5.128 -0.1263 -0.3112 -0.1325
 5952W        W21569  14.130   9.691  14.841 -0.1866  0.1445 -0.2524
 5953W        W21570  14.949  15.993   1.723 -0.0097 -0.1454  0.0711
 5954W        W21571   1.698  16.442   1.156 -0.0728 -0.1881  0.2193
 5955W        W21572   4.063   2.481   5.233 -0.1773 -0.0920 -0.2675
 5956W        W21573   8.215  17.430  11.854 -0.3505 -0.0105  0.2255
 5957W        W21574  13.836  18.124   1.978 -0.1902 -0.2199 -0.0636
 5958W        W21575   0.555  12.373   4.110 -0.1775  0.0437  0.0269
 5959W        W21576  18.551  12.386   4.106 -0.0254 -0.4977 -0.0761
 5960W        W21577  19.025   8.024   4.402 -0.0522  0.0461 -0.0300
 5961W        W21578  14.108  17.927  12.359  0.0554 -0.4579  0.0838
 5962W        W21579   3.132  18.765  11.932  0.1957  0.0666 -0.1366
 5963W        W21580   9.842   7.078   1.863  0.2976  0.1088 -0.1979
 5964W        W21581  13.830  18.309   9.972  0.1211 -0.1158 -0.1844
 5965W        W21582   9.567  15.447  10.722 -0.1697  0.0957 -0.0373
 5966W        W21583  10.520   5.125   2.579  0.0983  0.1397  0.0561
 5967W        W21584   6.781   9.205   4.648 -0.1554  0.1101 -0.2253
 5968W        W21585   0.109   0.411   3.840 -0.3081 -0.1710 -0.0625
 5969W        W21586   0.836   8.254  11.810  0.5054  0.1690  0.0679
 5970W        W21587   4.344  15.503   5.038 -0.0830  0.2959  0.3087
 5971W        W21588   3.721  16.336   0.968  0.1900  0.1284 -0.0970
 5972W        W21589  11.693   3.710   1.406 -0.1437 -0.2287  0.2369
 5973W        W21590   3.005   8.701   1.657  0.0404 -0.1982 -0.1745
 5974W        W21591   8.110  10.661   4.627 -0.0545 -0.0341 -0.1313
 5975W        W21592   4.267  16.164   5.217  0.2425  0.1761 -0.1186
 5976W        W21593  15.060   2.029  13.353 -0.1325  0.0934  0.1500
 5977W        W21594   2.557  12.785   2.819 -0.0967 -0.0417  0.0446
 5978W        W21595   6.434   0.140   2.053  0.1437  0.1068 -0.0487
 5979W        W21596  10.231  18.453  11.267  0.0552  0.0115  0.1081
 5980W        W21597  12.003   5.016   1.806  0.1574  0.1570  0.0295
 5981W        W21598  11.476  17.931   2.816 -0.1394  0.2154 -0.1980
 5982W        W21599  14.886  16.724  12.896  0.1958 -0.0074  0.0492
 5983W        W21600   5.083   3.883   3.387 -0.0087  0.2186  0.0038
 5984W        W21601  18.652   9.267  14.719 -0.1358  0.0479  0.3959
 5985W        W21602  15.642  13.205  11.023 -0.0719 -0.1448 -0.0939
 5986W        W21603   2.750   0.611   3.818 -0.4138 -0.0734 -0.0833
 5987W        W21604  14.356   5.655   3.094 -0.1894  0.1547  0.2578
 5988W        W21605  17.155   2.593   2.147 -0.0722 -0.2235  0.1046
 5989W        W21606  16.921  18.402  11.528 -0.1576 -0.1717 -0.2212
 5990W        W21607   0.898   1.158  14.515 -0.1577 -0.0005  0.0833
 5991W        W21608   4.641  12.189   3.483 -0.0466  0.0288 -0.1064
 5992W        W21609   1.964   6.577   5.141  0.4014  0.0311  0.2137
 5993W        W21610  14.924   0.153   2.241  0.1116  0.0696  0.0173
 5994W        W21611  16.164   4.618  12.047 -0.1450  0.0534 -0.0940
 5995W        W21612   1.226  10.732  11.044  0.2515 -0.1537 -0.1361
 5996W        W21613   8.994  18.143  11.617  0.0243 -0.1376 -0.0570
 5997W        W21614  14.262  16.823  14.618  0.0851  0.1081  0.2196
 5998W        W21615  17.659  10.626   2.426 -0.1570 -0.3763  0.2487
 5999W        W21616   9.862  11.453   2.906 -0.3338  0.0397 -0.2790
 6000W        W21617  16.061  13.412  11.936  0.0022  0.1593  0.0573
 6001W        W21618  10.926  10.791   5.496  0.2031 -0.1826  0.0906
 6002W        W21619   7.755  18.042  10.555 -0.2142  0.0246 -0.0011
 6003W        W21620   8.862  16.255   2.213 -0.1441 -0.2548  0.0649
 6004W        W21621  13.684  14.035   0.640 -0.1351 -0.2209  0.1208
 6005W        W21622  16.054  19.080   2.247  0.1648  0.3826 -0.0259
 6006W        W21623   8.782  11.877  13.498 -0.0295 -0.1655  0.0574
 6007W        W21624  19.076   4.844  13.150 -0.0096  0.0185 -0.2511
 6008W        W21625  14.373   7.139  10.871 -0.2549  0.0127 -0.0965
 6009W        W21626  16.185   6.679  14.291 -0.0581  0.0010 -0.3084
 6010W        W21627   0.538  13.395  11.622  0.2238  0.0748 -0.0328
 6011W        W21628   9.942   1.437   2.288 -0.1526 -0.2771 -0.0882
 6012W        W21629   2.164   1.268   1.348  0.2098  0.2670 -0.1557
 6013W        W21630  18.648   7.054  11.720  0.0949  0.2035 -0.3469
 6014W        W21631  10.128   7.501   2.751  0.0092  0.4115  0.1445
 6015W        W21632  16.588  11.610  13.856 -0.3903  0.2521 -0.2302
 6016W        W21633   0.474   8.309  12.198 -0.0709 -0.0027 -0.0176
 6017W        W21634   5.936  14.091  14.486 -0.0254 -0.1802  0.0134
 6018W        W21635   3.414  10.501   4.278  0.1419 -0.0728 -0.1462
 6019W        W21636   8.636   5.411  11.236  0.1173  0.2287  0.0967
 6020W        W21637  11.185  17.146  11.770 -0.1743 -0.2917 -0.2244
 6021W        W21638   8.364  12.705  12.298  0.0805  0.0008  0.0114
 6022W        W21639  17.544   8.121  12.221  0.1759  0.1733  0.0738
 6023W        W21640  15.599  13.675  12.016  0.0617  0.0891 -0.3813
 6024W        W21641  12.946  12.043   1.772 -0.0460  0.0725 -0.1548
 6025W        W21642   2.696   9.517   3.451 -0.2382  0.3013 -0.2406
 6026W        W21643  16.373  12.009   0.726  0.1738 -0.1259  0.0952
 6027W        W21644  18.242   4.964  10.244  0.1268  0.0314  0.1725
 6028W        W21645   5.420   9.960   5.608  0.2617 -0.0991 -0.0319
 6029W        W21646   8.205  13.683  13.953 -0.3998 -0.2583  0.0806
 6030W        W21647   4.617  12.514   5.932 -0.0612 -0.2184 -0.1293
 6031W        W21648   9.885   1.057  11.217  0.1825  0.2005 -0.1731
 6032W        W21649   1.936   4.790   2.319 -0.2404  0.0219  0.0555
 6033W        W21650  17.646  16.113   2.599  0.0961 -0.1977 -0.0431
 6034W        W21651   5.207  13.072  10.766 -0.1222  0.1865 -0.1388
 6035W        W21652  12.095  17.302  12.946 -0.3666 -0.2215  0.1367
 6036W        W21653   7.080   8.250   2.334  0.2171 -0.1840  0.0707
 6037W        W21654  12.236  11.399  15.076  0.0796 -0.0432  0.0358
 6038W        W21655  13.655  13.143   5.066 -0.3061  0.1609  0.0323
 6039W        W21656  18.151   5.210   0.725  0.0742  0.0708  0.0710
 6040W        W21657   4.512   6.911   1.311  0.1786  0.0815 -0.1848
 6041W        W21658  11.093   7.059  14.172 -0.0283  0.1949  0.2644
 6042W        W21659   1.314   4.584  12.307 -0.2116 -0.3976 -0.2269
 6043W        W21660   1.978   3.800  13.796 -0.3532 -0.3674  0.1269
 6044W        W21661   0.552   9.284  13.866 -0.2237 -0.3653 -0.1199
 6045W        W21662   1.601  17.522   3.810  0.1047  0.0754  0.1543
 6046W        W21663  19.057  11.897  13.365 -0.2942  0.1303  0.0485
 6047W        W21664  13.206  15.418  11.474  0.0765 -0.0230 -0.1999
 6048W        W21665   5.318  12.259  11.438 -0.4301 -0.0224  0.0267
 6049W        W21666  17.073  14.777  11.925  0.2458  0.3567  0.0412
 6050W        W21667   7.732  18.442   2.981  0.3314 -0.1521 -0.1399
 6051W        W21668   9.414  15.128   3.979 -0.0856  0.4081 -0.1308
 6052W        W21669  12.697   3.827  11.316  0.1097 -0.2574 -0.0003
 6053W        W21670  18.416  15.628  10.421 -0.1329 -0.3903  0.0836
 6054W        W21671  14.163   3.307   0.349 -0.0748  0.2492  0.0795
 6055W        W21672   0.971   4.656   1.400 -0.1063  0.2016  0.2077
 6056W        W21673   4.373   4.191  14.242  0.0477  0.2134 -0.3346
 6057W        W21674   6.324   4.159  13.412  0.3438  0.0468  0.0183
 6058W        W21675  10.773  10.965  13.698  0.0139 -0.0146  0.1923
 6059W        W21676   7.964   9.109  10.953 -0.1073 -0.2554 -0.0846
 6060W        W21677   9.635  12.415   2.871 -0.0613  0.0015  0.0464
 6061W        W21678  15.047   4.566  11.571 -0.1050  0.1971 -0.1254
 6062W        W21679  16.558   6.118  11.456  0.1776 -0.4117 -0.0672
 6063W        W21680   8.888  11.037  14.772  0.1579 -0.1021 -0.0233
 6064W        W21681  12.868   4.522   2.463  0.1602  0.0757  0.3137
 6065W        W21682   7.973  13.230   2.447 -0.0178  0.1594  0.1427
 6066W        W21683  15.248   2.392  13.662  0.0849  0.0958 -0.0106
 6067W        W21684   6.545  13.530  14.915  0.2230  0.0338 -0.2264
 6068W        W21685   5.467  11.846   0.076 -0.0976 -0.1005 -0.3022
 6069W        W21686  12.576   6.581   0.262 -0.0462 -0.3701  0.0859
 6070W        W21687  17.224  10.279   2.233 -0.3581  0.0365 -0.1034
 6071W        W21688  11.648   4.046   4.775  0.1760  0.2174 -0.1820
 6072W        W21689   5.058   4.491   3.131 -0.1089  0.0769 -0.2190
 6073W        W21690   0.868  17.885  13.231 -0.1379 -0.3840 -0.3472
 6074W        W21691  12.970   0.654   0.292  0.1701  0.0236 -0.3865
 6075W        W21692  14.356  10.242  14.537 -0.2446 -0.0711  0.0111
 6076W        W21693   2.902  14.050   2.103  0.0812 -0.2319 -0.0061
 6077W        W21694   6.171  11.228  11.152 -0.0934 -0.0767 -0.3451
 6078W        W21695  14.965   8.104  14.526  0.2894  0.0793 -0.0249
 6079W        W21696   5.908  10.992  13.817  0.0408 -0.2282 -0.0520
 6080W        W21697  16.486  13.595   2.891 -0.2670 -0.0339  0.0100
 6081W        W21698   0.082  16.181  10.023  0.1671  0.3207 -0.1348
 6082W        W21699  11.047   6.630  15.055 -0.0761  0.1078  0.2771
 6083W        W21700   7.893  15.889  14.604  0.0778  0.0710 -0.0959
 6084W        W21701   3.396   8.735   3.484 -0.2770 -0.0544 -0.1850
 6085W        W21702  14.506  13.792   2.621 -0.2340 -0.3137  0.0497
 6086W        W21703  14.768   9.871   1.319 -0.0959 -0.3541 -0.3948
 6087W        W21704   2.776   6.852  14.373  0.1285 -0.3122 -0.1236
 6088W        W21705   7.693  14.889  14.539  0.4202  0.1027  0.1447
 6089W        W21706  15.181   3.860  10.496  0.0289  0.0295  0.2272
 6090W        W21707  10.760  17.908  14.233  0.0312  0.0492  0.2267
 6091W        W21708   2.334   3.887  12.724  0.0581 -0.1538 -0.0688
 6092W        W21709  10.824  11.616   2.554  0.0858  0.0072 -0.0738
 6093W        W21710  14.062   4.083   2.948  0.3057 -0.0317  0.3672
 6094W        W21711   7.697   1.283   1.765  0.0420  0.0698  0.0853
 6095W        W21712   8.421   8.204  12.436  0.3975  0.3726  0.4563
 6096W        W21713   8.142  14.911   4.656  0.1155 -0.0517  0.1027
 6097W        W21714   4.798  13.149   6.010  0.1799  0.3971  0.2878
 6098W        W21715  13.497  10.062   2.854  0.2119  0.1652 -0.0974
 6099W        W21716  18.244  16.741   4.548 -0.1270  0.1286  0.1501
 6100W        W21717  17.529   2.858   0.770 -0.0188 -0.0187  0.0426
 6101W        W21718  17.553  18.572   0.981  0.0637  0.0365 -0.2152
 6102W        W21719  17.113   8.533   4.245 -0.1812  0.1160  0.0946
 6103W        W21720   6.187  12.118  15.205  0.0585  0.0674 -0.1948
 6104W        W21721   1.726   0.737   4.693 -0.2595  0.0560 -0.0898
 6105W        W21722  12.534   9.972  10.515  0.1686  0.0112 -0.1894
 6106W        W21723  17.072   3.334   2.378 -0.4276 -0.1066  0.2101
 6107W        W21724   6.537   0.007   0.352 -0.0429  0.1838  0.2510
 6108W        W21725   0.666   8.491   4.640  0.0199  0.1335 -0.2902
 6109W        W21726  10.865   6.663   1.825  0.0350 -0.2801 -0.0324
 6110W        W21727  15.495   9.449   0.823 -0.1044 -0.1803  0.0021
 6111W        W21728   1.662  10.356  14.568  0.0860 -0.1091 -0.1057
 6112W        W21729  12.327   5.585  10.754  0.1675  0.2484 -0.0616
 6113W        W21730   2.949  14.748  10.494  0.1342 -0.0352  0.2307
 6114W        W21731   2.474   6.424   3.260  0.3822 -0.5933  0.0783
 6115W        W21732   8.121   1.037  11.117 -0.0065 -0.1166  0.1206
 6116W        W21733   2.812  12.694  11.692 -0.1690  0.0955  0.1788
 6117W        W21734   1.579  10.543   0.158  0.1034 -0.1985  0.0980
 6118W        W21735   7.664   0.080   0.262  0.0009  0.3980 -0.1338
 6119W        W21736  15.590   2.817  10.745 -0.2575  0.2809 -0.1797
 6120W        W21737   9.601  10.566   3.170 -0.1201 -0.0026 -0.0896
 6121W        W21738   0.895  12.336   5.074 -0.0969  0.2043  0.0938
 6122W        W21739   1.427   0.464  12.895  0.2117  0.2075 -0.1031
 6123W        W21740   3.170   6.383   2.486 -0.3149  0.0568  0.1658
 6124W        W21741   4.834  10.511   0.776  0.0947  0.3437  0.0218
 6125W        W21742  17.327  15.563  13.581  0.0706 -0.3631 -0.1811
 6126W        W21743  13.343  11.339   9.413  0.1365 -0.2377  0.2116
 6127W        W21744   4.300   1.772  11.645 -0.0834  0.0165  0.0726
 6128W        W21745   8.149   8.373  13.446 -0.0888 -0.0246 -0.1458
 6129W        W21746   7.557  12.485   5.483  0.0396  0.3097 -0.3155
 6130W        W21747  12.230   8.408   2.909 -0.0538 -0.0846  0.4800
 6131W        W21748   6.125   3.127   2.163 -0.2012 -0.0186  0.1718
 6132W        W21749   5.810   9.252  14.100 -0.3646 -0.0024  0.0327
 6133W        W21750   2.629   1.122  14.976 -0.0751 -0.5815  0.2636
 6134W        W21751   4.781  14.862  15.093 -0.1803  0.3386 -0.0346
 6135W        W21752   3.640  16.769   1.307 -0.3378  0.2852 -0.0763
 6136W        W21753   2.666  18.505   0.428  0.1769 -0.0369 -0.1308
 6137W        W21754   1.374  17.215   2.153  0.1456  0.0027  0.1634
 6138W        W21755   9.046   7.119   4.042  0.0265 -0.0316 -0.0067
 6139W        W21756  17.704  13.775   0.775  0.0802  0.0176  0.0267
 6140W        W21757  16.079   3.649  10.620  0.4012 -0.3941  0.2396
 6141W        W21758   7.067   7.816  11.366 -0.2007 -0.2991  0.1045
 6142W        W21759  14.502  14.634   0.601 -0.1126  0.1258 -0.2264
 6143W        W21760  14.466  14.093  14.213 -0.0530 -0.3151 -0.0101
 6144W        W21761  11.234  12.058   4.899  0.1354  0.1527  0.0778
 6145W        W21762   0.803   5.936   5.863 -0.0579 -0.1469 -0.0576
 6146W        W21763   3.851   0.036   0.695 -0.1880 -0.4492 -0.0658
 6147W        W21764   4.580   0.150   1.776 -0.1935  0.0472 -0.1039
 6148W        W21765   5.090   4.921   1.427  0.0330 -0.0672  0.0914
 6149W        W21766  16.035   0.391  12.171 -0.1544  0.1639  0.2480
 6150W        W21767   2.423  11.449  13.599 -0.1075 -0.1462 -0.3121
 6151W        W21768  10.306  10.841   9.756  0.1111 -0.0587 -0.0087
 6152W        W21769   5.296   6.868  13.365  0.1322 -0.1328 -0.3592
 6153W        W21770  10.211   2.842  14.611 -0.0321 -0.3405  0.0333
 6154W        W21771   1.799   4.522  11.598 -0.0221  0.0084 -0.1710
 6155W        W21772  10.438   7.064   2.875 -0.0245  0.3274  0.1612
 6156W        W21773  11.795  16.439  10.411 -0.1434  0.2552  0.3329
 6157W        W21774   7.280  14.914  10.882  0.0358  0.1025 -0.0035
 6158W        W21775  13.103  13.029   4.126 -0.0916 -0.0848  0.1004
 6159W        W21776  18.337  17.043  10.766  0.0229 -0.2618 -0.1537
 6160W        W21777   7.443  11.826   1.385 -0.1057 -0.3582  0.0560
 6161W        W21778  17.208   2.009  13.348  0.1604  0.4082  0.2266
 6162W        W21779   2.945  13.904  11.661  0.0823  0.1217 -0.1845
 6163W        W21780  17.746   4.612  10.733 -0.0352  0.2569 -0.1417
 6164W        W21781   2.436  14.218  12.938  0.1968  0.1113  0.2316
 6165W        W21782   9.556   7.796  13.464 -0.0351  0.3828  0.0983
 6166W        W21783  16.664   5.523  12.022 -0.1657  0.3378 -0.1854
 6167W        W21784   7.010  15.308  13.187 -0.2058 -0.0512  0.0306
 6168W        W21785   8.580   6.965   3.763 -0.0236  0.0432  0.1621
 6169W        W21786   1.246  18.063  14.170  0.0064 -0.1401 -0.1119
 6170W        W21787   6.770   6.620  13.915 -0.2571  0.0544  0.0052
 6171W        W21788   4.106   0.496   4.243 -0.3776  0.0014 -0.1426
 6172W        W21789   7.821  15.040  13.259  0.0421  0.3406  0.2015
 6173W        W21790  18.081   9.364  12.597  0.0175  0.1322  0.3531
 6174W        W21791   2.657   6.415  14.440  0.0377  0.3488 -0.0459
 6175W        W21792   3.744   0.082  13.176  0.1128  0.0112 -0.0957
 6176W        W21793  16.650  18.336   4.772 -0.0726 -0.1499 -0.0584
 6177W        W21794   9.336   9.538  13.891  0.0348 -0.1037  0.0731
 6178W        W21795   7.250  15.114   5.197  0.0970  0.4493 -0.1619
 6179W        W21796   4.047  18.714   0.558 -0.3610  0.0865  0.1116
 6180W        W21797   8.242  12.312   1.298  0.1325 -0.0813 -0.0848
 6181W        W21798   2.399   8.544  10.087 -0.2603  0.2462 -0.2551
 6182W        W21799   5.811  14.023  15.045  0.0895 -0.0208  0.3286
 6183W        W21800  17.302   9.639  13.994 -0.0430  0.2073 -0.0139
 6184W        W21801   6.042  14.437  14.853 -0.2010 -0.3104 -0.2661
 6185W        W21802  14.584   6.148  11.291 -0.0776  0.1738 -0.2252
 6186W        W21803   2.076   6.115   1.969  0.2359 -0.2680  0.0354
 6187W        W21804  13.432   8.379  11.438  0.1003  0.1452 -0.0774
 6188W        W21805   4.310  16.436   1.581 -0.2209  0.2196  0.0223
 6189W        W21806   8.205  16.627  13.634  0.2561 -0.1916  0.4301
 6190W        W21807  11.339   5.579  14.272  0.2060  0.1404 -0.0291
 6191W        W21808  13.626   8.933  11.463  0.0185 -0.0430 -0.3958
 6192W        W21809   0.070   9.519  10.521 -0.2911 -0.2416  0.1884
 6193W        W21810  14.527  18.712  11.788 -0.2405  0.0870 -0.2856
 6194W        W21811   4.243  10.201  11.568  0.2513 -0.2676 -0.2078
 6195W        W21812   0.742   5.947   5.034 -0.2659 -0.1530 -0.0918
 6196W        W21813  18.793  11.209  10.318 -0.2691  0.0364 -0.1497
 6197W        W21814  16.002  11.970   4.306 -0.2199 -0.0672  0.3074
 6198W        W21815  15.783   3.834  11.638 -0.4195 -0.1472 -0.0197
 6199W        W21816  14.311   4.230   4.676  0.0629 -0.1597 -0.0476
 6200W        W21817  17.082  10.471   1.710  0.1421  0.2201  0.1320
 6201W        W21818   8.490  17.704   4.346  0.0175 -0.2619 -0.0873
 6202W        W21819   5.596   3.385  11.512 -0.0586 -0.2044 -0.0888
 6203W        W21820   9.924  17.357   0.197 -0.0172 -0.0161 -0.2818
 6204W        W21821  12.337   5.218   4.871  0.0588 -0.0420  0.2015
 6205W        W21822   3.455   9.043  14.534 -0.1194 -0.0306 -0.3045
 6206W        W21823   5.325  15.252  14.469  0.0748  0.2861 -0.3330
 6207W        W21824  12.412   5.193   1.478 -0.1226  0.3496 -0.1492
 6208W        W21825   0.763   8.490  14.246  0.0038 -0.1406  0.1323
 6209W        W21826   9.750   8.482  14.739 -0.1260 -0.1267  0.0057
 6210W        W21827  13.740  13.598   5.284 -0.5682 -0.2826  0.0594
 6211W        W21828   5.851  14.991   4.532 -0.2557  0.2479  0.1856
 6212W        W21829  18.833   7.664   2.233  0.4215 -0.0633  0.2105
 6213W        W21830   3.586   1.161  12.371  0.2213 -0.0444  0.0803
 6214W        W21831   8.539   6.715   1.894 -0.2422  0.3686  0.1679
 6215W        W21832   7.188  19.019  11.022 -0.0340  0.4740 -0.0494
 6216W        W21833  12.892   3.679   5.657  0.3863 -0.3786 -0.0483
 6217W        W21834   2.471  13.811   9.776  0.1607  0.1611 -0.3474
 6218W        W21835  15.982   6.467   4.212  0.0685  0.0519  0.6326
 6219W        W21836  13.444   4.667  14.986 -0.1635  0.1948  0.4381
 6220W        W21837   9.772   0.099   3.765  0.4637  0.1302 -0.2379
 6221W        W21838  12.699   1.968   2.086  0.0767 -0.2757  0.1301
 6222W        W21839  10.476   4.983   1.322  0.0692  0.0163 -0.0207
 6223W        W21840  13.093  16.269   3.317 -0.1632 -0.1800  0.0070
 6224W        W21841  12.258   4.115  12.335 -0.0698  0.1894  0.2819
 6225W        W21842  11.702   5.911  11.159  0.5200  0.1414  0.0040
 6226W        W21843  10.150   2.148   1.521 -0.0111  0.3902  0.3902
 6227W        W21844   6.131  10.558   5.083 -0.0049  0.2351 -0.2296
 6228W        W21845  11.099  18.855   3.154  0.1781  0.2377  0.0941
 6229W        W21846   1.540  12.722  13.911  0.0275 -0.0640  0.1135
 6230W        W21847  12.113  13.367   5.433 -0.2798 -0.1033 -0.1493
 6231W        W21848  13.605  17.817  12.244  0.1755  0.1549 -0.3738
 6232W        W21849   8.787  12.622   4.214  0.1123 -0.0841  0.1026
 6233W        W21850  18.473   3.615   4.086 -0.1459 -0.2568  0.1182
 6234W        W21851  10.340   2.649   1.050  0.0970 -0.3032 -0.0105
 6235W        W21852   8.259   5.143   2.352  0.0437 -0.0569  0.0006
 6236W        W21853   2.551  17.125   0.454  0.2445 -0.0270  0.1688
 6237W        W21854   1.716   1.896   3.585 -0.2989 -0.3882 -0.0904
 6238W        W21855   3.265  19.075   4.747  0.2687  0.0017  0.0955
 6239W        W21856  15.969  14.133  12.774 -0.2360  0.0307  0.1992
 6240W        W21857  18.174   5.299   4.273 -0.1231  0.2000 -0.3775
 6241W        W21858   6.268  15.230   1.135 -0.2209 -0.4742 -0.0944
 6242W        W21859  15.007   8.016  15.096 -0.0699 -0.1171  0.0804
 6243W        W21860   3.074   2.524   5.471  0.1132 -0.0424  0.0662
 6244W        W21861   1.578  16.477   9.125 -0.2522  0.2788  0.0329
 6245W        W21862   6.476  10.001   4.096  0.0059 -0.4176  0.2477
 6246W        W21863  13.227  12.707   3.305  0.2881 -0.0745 -0.1478
 6247W        W21864   5.922   5.259   4.240  0.1792 -0.2983  0.3126
 6248W        W21865  12.954  11.089   0.676 -0.0825 -0.0830  0.2721
 6249W        W21866   7.238  15.893  15.209 -0.1525 -0.1830  0.0350
 6250W        W21867  10.451   5.778   1.545  0.1330 -0.0069 -0.1533
 6251W        W21868  12.827  18.198  11.021  0.0428 -0.1624  0.2409
 6252W        W21869   8.824   4.076   0.313  0.2657 -0.1282  0.3215
 6253W        W21870   4.104  10.824  11.832 -0.0117  0.1528  0.5191
 6254W        W21871  18.058  10.623   1.487  0.2733  0.1732 -0.1592
 6255W        W21872   8.691  16.612  11.899 -0.0138 -0.1223 -0.3691
 6256W        W21873   7.852   7.480  13.984  0.3840  0.1801  0.0180
 6257W        W21874   7.519  18.360  14.505 -0.0814  0.0554  0.1061
 6258W        W21875   7.201   4.649  11.596  0.0773  0.2888  0.2127
 6259W        W21876   3.786   4.232  14.883 -0.1436 -0.1459  0.0475
 6260W        W21877  16.126  12.992  12.251  0.1958 -0.5353 -0.0843
 6261W        W21878   8.533  15.642   5.292  0.2530 -0.0764 -0.1624
 6262W        W21879   2.441  13.353   1.127 -0.4185  0.2791  0.2410
 6263W        W21880  16.738   0.562  12.431 -0.1153 -0.2288  0.1507
 6264W        W21881  12.203   3.529  15.266 -0.0819  0.1192  0.1130
 6265W        W21882  17.343  15.073  12.195 -0.0872 -0.2293  0.0677
 6266W        W21883  14.839   6.857   5.105 -0.0258 -0.0659  0.3072
 6267W        W21884  16.991  11.518   4.159  0.1477 -0.1513 -0.0196
 6268W        W21885   6.673   3.276   3.801  0.1901 -0.3023  0.0690
 6269W        W21886  16.225   6.883  12.337 -0.0734  0.1026 -0.1097
 6270W        W21887   9.381   9.625  13.278  0.0361  0.1907  0.2425
 6271W        W21888   6.972   2.297  13.706  0.0856 -0.1810 -0.1835
 6272W        W21889   0.615  17.920  12.418  0.0802 -0.2489  0.3405
 6273W        W21890  18.088   2.711   2.740 -0.0319  0.1252 -0.3773
 6274W        W21891  14.189  16.087   5.872 -0.0735  0.0909  0.0718
 6275W        W21892  13.763   1.818   0.765 -0.0373 -0.0766 -0.3771
 6276W        W21893  10.929  14.279   1.741 -0.2420 -0.0276 -0.1720
 6277W        W21894  10.868   1.499  14.820  0.1357 -0.0454  0.1756
 6278W        W21895  17.760  13.729  13.498  0.2528  0.1856 -0.2156
 6279W        W21896  10.744   7.646  10.552 -0.1806  0.0230 -0.4870
 6280W        W21897  17.035   9.259  13.719 -0.3404  0.1904  0.2776
 6281W        W21898   6.285  14.885   4.219  0.0492  0.0183 -0.3425
 6282W        W21899   1.750  10.139   2.706  0.1606 -0.1781 -0.0194
 6283W        W21900  18.907  13.545   1.641 -0.2038 -0.0752 -0.0680
 6284W        W21901   4.378  10.557   4.894  0.2200 -0.3457  0.3209
 6285W        W21902   4.412   0.208   2.820 -0.3767 -0.3033  0.3182
 6286W        W21903   0.472   4.896  14.286 -0.1176 -0.2355  0.2803
 6287W        W21904   1.667   5.823   4.405  0.1330  0.2915  0.1825
 6288W        W21905  10.665   7.555   4.691  0.1218 -0.0449 -0.1071
 6289W        W21906  16.511  18.425  14.421  0.1703 -0.2338  0.0616
 6290W        W21907  10.735  13.262   5.415  0.1125  0.0516  0.0761
 6291W        W21908   3.026   4.005  12.392  0.1884  0.3507 -0.0772
 6292W        W21909   4.112  12.503  10.927 -0.1663 -0.2342 -0.3859
 6293W        W21910  16.704   7.526  14.741 -0.0398  0.1526  0.3266
 6294W        W21911  11.510   7.587  14.860  0.0206  0.3822  0.0812
 6295W        W21912  14.714   5.538   4.579  0.0667  0.2114  0.0005
 6296W        W21913  14.078   3.127  11.249 -0.3363 -0.2302 -0.1223
 6297W        W21914   0.735  19.073   2.551 -0.3976  0.0273 -0.4449
 6298W        W21915  17.820  10.139  11.353  0.0329  0.0525  0.1506
 6299W        W21916   1.160   8.801  10.563 -0.1428  0.0646 -0.3539
 6300W        W21917  11.599   8.581  12.432 -0.0355 -0.2923  0.0931
 6301W        W21918  10.877  14.661   4.145  0.0597  0.1656 -0.0717
 6302W        W21919  15.077  15.762  14.330  0.0733 -0.1259 -0.1303
 6303W        W21920   6.855   1.659   4.403 -0.2473 -0.2941 -0.0152
 6304W        W21921  16.003  11.607  13.587 -0.1112 -0.0371  0.1659
 6305W        W21922  18.914   3.659   3.560  0.0424  0.2211 -0.0730
 6306W        W21923   8.602  14.710  13.646 -0.1314  0.0725  0.3207
 6307W        W21924  17.562  17.863  12.821 -0.0334  0.1156 -0.1004
 6308W        W21925   0.156   9.719   4.065 -0.1657  0.1018  0.0213
 6309W        W21926  16.840  14.429   0.664 -0.1364 -0.1614  0.3881
 6310W        W21927  14.242   2.198   4.425 -0.0975  0.0093  0.3859
 6311W        W21928  15.569   9.691   9.210 -0.1257  0.2689  0.2393
 6312W        W21929  16.460  12.796  13.250 -0.1946 -0.1110 -0.2243
 6313W        W21930   1.734   0.528   0.201  0.1845  0.2290  0.1221
 6314W        W21931   9.798   6.685  10.576 -0.2642 -0.2108  0.0367
 6315W        W21932  19.047  10.738  13.186  0.2330  0.0550  0.0942
 6316W        W21933  13.671  15.261  13.325 -0.0248  0.0127  0.2017
 6317W        W21934  12.528  12.518  13.434 -0.1880 -0.0884 -0.0272
 6318W        W21935   7.658   4.190   3.906 -0.0547 -0.1285 -0.2532
 6319W        W21936   0.477   4.639  11.111  0.0115  0.1738 -0.1293
 6320W        W21937   1.437  17.163   4.362  0.2417 -0.0048  0.1184
 6321W        W21938   9.447  11.293  12.715  0.1348  0.2527 -0.0520
 6322W        W21939   3.404   6.505  12.867  0.0833  0.0543  0.0631
 6323W        W21940   1.178   9.143   4.236 -0.1116 -0.1514  0.0442
 6324W        W21941  14.236   7.557  11.809 -0.0728 -0.2735 -0.0634
 6325W        W21942   3.483  18.170  11.292 -0.0003  0.3797  0.1933
 6326W        W21943   2.079   7.312  10.769 -0.2424 -0.3378  0.0351
 6327W        W21944  15.197  11.956  13.768 -0.0666  0.3125 -0.2108
 6328W        W21945   6.567   9.339  10.892  0.1400 -0.1976  0.0991
 6329W        W21946  17.577  12.078   3.264 -0.0170  0.1964 -0.1379
 6330W        W21947  16.217   5.950   2.672 -0.0579 -0.0352 -0.1101
 6331W        W21948  12.552   7.017  13.068  0.1685  0.1346  0.0176
 6332W        W21949   9.702  17.033  11.636  0.0917  0.0070  0.0135
 6333W        W21950   4.130  13.741   5.663 -0.0766 -0.0408 -0.1338
 6334W        W21951   8.232  14.861   3.455 -0.3360  0.2243  0.1059
 6335W        W21952   3.212   4.051  11.920  0.2361 -0.1300  0.0663
 6336W        W21953   3.899  18.826   5.337 -0.2740 -0.4200 -0.0510
 6337W        W21954   3.098  11.494   4.956 -0.0134  0.3332  0.0989
 6338W        W21955   2.508  16.346   3.491  0.1752 -0.0944 -0.3565
 6339W        W21956  14.899   3.022  14.122 -0.1123  0.1000 -0.1197
 6340W        W21957   0.649   1.384  10.714  0.1255 -0.0420 -0.0330
 6341W        W21958  10.008   1.468  11.491 -0.1783  0.0785  0.0511
 6342W        W21959   8.928   7.456   1.986  0.1466  0.1445  0.3796
 6343W        W21960  11.037   7.002   3.486  0.0322  0.3576  0.2992
 6344W        W21961  18.438   3.763   0.956 -0.0093  0.0244 -0.0224
 6345W        W21962  17.034   1.955   3.314  0.2776  0.2462  0.3514
 6346W        W21963   9.387   6.604   1.800  0.4020  0.0240  0.3537
 6347W        W21964  12.092  16.070  13.455  0.3432  0.0846 -0.3940
 6348W        W21965  14.177  11.973  12.817 -0.0319  0.1216  0.1708
 6349W        W21966   3.791  18.574   1.745 -0.0659 -0.0051 -0.2291
 6350W        W21967  15.642   1.884   1.974  0.0755 -0.1541  0.3088
 6351W        W21968  17.243   7.301   2.037 -0.0952  0.1845  0.0921
 6352W        W21969  15.500  10.423   2.684 -0.5766 -0.4000 -0.1420
 6353W        W21970   6.761   2.841   4.063  0.1703  0.0439  0.1565
 6354W        W21971   4.614   3.590  10.980  0.0040 -0.0142 -0.0692
 6355W        W21972   5.090  14.461   4.534  0.0264  0.0774 -0.4966
 6356W        W21973   5.908   4.921   1.974  0.0857  0.0943  0.2407
 6357W        W21974  17.623   0.857  13.610 -0.0145 -0.0459 -0.0620
 6358W        W21975  11.823   2.377  11.355 -0.0185 -0.2376  0.2706
 6359W        W21976   7.440  11.854   0.801  0.3018  0.1824 -0.1789
 6360W        W21977   8.718  18.651   4.874  0.0704 -0.3310  0.0210
 6361W        W21978   8.666   8.124   4.160  0.2238  0.0500 -0.0112
 6362W        W21979   1.739   6.708   4.627 -0.2042  0.3955 -0.1033
 6363W        W21980   8.613   7.373   2.407 -0.2531 -0.1575  0.3993
 6364W        W21981   4.877  12.712  10.849  0.2037  0.0334 -0.2476
 6365W        W21982  11.804   0.354  13.479 -0.1458  0.1585  0.1770
 6366W        W21983  10.683   7.874   1.101 -0.1512  0.0069  0.1214
 6367W        W21984   8.773  18.748   1.652  0.0319  0.0130 -0.2976
 6368W        W21985   2.204  11.528   3.681 -0.0455 -0.0659 -0.1255
 6369W        W21986   5.035  15.476  13.738  0.1648  0.1777  0.1287
 6370W        W21987  15.305  18.354   1.040  0.0386  0.1103  0.1220
 6371W        W21988   5.760  10.203  10.440 -0.0461  0.1818 -0.3086
 6372W        W21989   8.147   4.523   4.802 -0.2054  0.3110  0.1898
 6373W        W21990  14.296   2.472   0.487 -0.0817  0.2348 -0.1579
 6374W        W21991  10.492  16.625   3.980  0.4525 -0.1555  0.2256
 6375W        W21992  13.634  13.330  10.643 -0.0646 -0.0125 -0.1542
 6376W        W21993  13.833   0.352   2.736 -0.3084 -0.0068 -0.3462
 6377W        W21994   3.023  18.805   3.500 -0.3150 -0.1202  0.0633
 6378W        W21995  14.797  12.662   0.240 -0.2473  0.0489  0.1045
 6379W        W21996   2.176  13.590  10.487 -0.1162  0.0413  0.0566
 6380W        W21997  16.052   2.900   0.959 -0.5392 -0.0270 -0.1016
 6381W        W21998  15.874  13.700   1.845 -0.1862  0.1170  0.1967
 6382W        W21999  17.677  13.397   0.329 -0.4016  0.1501  0.0585
 6383W        W22000  11.207  11.152   4.760 -0.1933 -0.0843  0.1767
 6384W        W22001  15.408   5.761   3.956  0.0860 -0.1155 -0.0552
 6385W        W22002  15.230  11.519   9.276 -0.2255  0.0549 -0.2682
 6386W        W22003   1.561  14.908   2.748  0.0305 -0.1627 -0.0374
 6387W        W22004  18.656   4.115   5.176  0.0453 -0.0655  0.1932
 6388W        W22005  10.457   1.746  14.560 -0.1033 -0.0921 -0.0419
 6389W        W22006  16.025   4.167  14.789  0.1047  0.0605  0.0804
 6390W        W22007   5.995   4.613  10.072  0.0758 -0.1986 -0.1052
 6391W        W22008  17.251   4.354   1.967 -0.0930 -0.0496  0.2756
 6392W        W22009  14.707   5.169   0.755  0.1365 -0.0425 -0.0636
 6393W        W22010   6.059   3.338  13.602 -0.1504 -0.1075  0.0094
 6394W        W22011  17.599  12.805   0.165 -0.0181  0.1790  0.1455
 6395W        W22012  17.372  17.583  12.404 -0.2173 -0.0598  0.0745
 6396W        W22013   0.472  16.566   3.420  0.0700  0.2110 -0.3147
 6397W        W22014   5.157  17.990   1.800  0.1201 -0.2114 -0.1213
 6398W        W22015   9.506  14.090  14.434 -0.0991 -0.0227 -0.1419
 6399W        W22016  12.448   1.210   2.930  0.0657  0.0921 -0.0025
 6400W        W22017  18.798  17.870  14.013 -0.1263  0.3423 -0.0378
 6401W        W22018   3.205   7.055  10.657  0.0987  0.1632 -0.0497
 6402W        W22019  15.867   6.621   1.304 -0.1595  0.0167 -0.2516
 6403W        W22020   0.941  18.401   2.699 -0.4621 -0.1341 -0.1141
 6404W        W22021   3.932  10.761  14.617  0.0018  0.4389 -0.0920
 6405W        W22022   2.457   8.497   6.239 -0.1817 -0.1994 -0.0287
 6406W        W22023  11.583   0.661   2.575  0.0521  0.1115 -0.2934
 6407W        W22024  12.258  13.368   3.745  0.1422 -0.0320  0.0693
 6408W        W22025   4.990  15.973  13.159 -0.0107 -0.3282 -0.0501
 6409W        W22026   3.204   2.996   5.605  0.0395  0.2228 -0.1110
 6410W        W22027   3.276  12.127  14.078 -0.3090 -0.1082 -0.1454
 6411W        W22028  16.771   1.571   2.941 -0.2452  0.0596 -0.0746
 6412W        W22029  16.341   5.938   3.982 -0.0086 -0.1618 -0.0827
 6413W        W22030   8.689   8.326  13.362  0.0852  0.2275 -0.3268
 6414W        W22031   1.920   2.994  11.502 -0.1722 -0.1442 -0.1308
 6415W        W22032  16.085   7.487   0.414 -0.2036  0.2575 -0.0429
 6416W        W22033   7.903  10.022   1.414 -0.1112  0.3385 -0.1393
 6417W        W22034   3.468   3.279  10.549 -0.2790  0.1197  0.2997
 6418W        W22035   8.891  13.559   1.162  0.2428 -0.1593 -0.1248
 6419W        W22036   8.453  10.565   0.183  0.0770 -0.3653  0.3720
 6420W        W22037   9.349  14.571   4.084 -0.0200  0.2277 -0.2359
 6421W        W22038  18.058   9.078   2.543 -0.2162 -0.2779  0.2462
 6422W        W22039   4.223   3.143  13.733 -0.2027 -0.0982 -0.2251
 6423W        W22040   5.611   8.328   3.087  0.1532  0.2188 -0.0624
 6424W        W22041   8.099   8.580   3.644  0.1437  0.2508 -0.2062
 6425W        W22042   4.842   8.487   3.426  0.4472  0.4434  0.0472
 6426W        W22043   5.951  15.067   3.735  0.1229  0.0080  0.3305
 6427W        W22044   4.358  18.128   4.409 -0.0987 -0.0479  0.0100
 6428W        W22045  15.352   3.229  14.226 -0.1572  0.0220 -0.2729
 6429W        W22046  16.482  12.877   4.000  0.0420  0.1401  0.3318
 6430W        W22047   4.693  18.642  14.382  0.1019 -0.3028  0.0404
 6431W        W22048  18.302  15.106  14.455 -0.1093  0.1075  0.0108
 6432W        W22049   3.700  11.391   4.152  0.0978  0.2385 -0.0768
 6433W        W22050  16.488   5.159   4.763 -0.2430 -0.1467  0.1719
 6434W        W22051   9.717  16.037  11.898 -0.2392 -0.0742  0.1016
 6435W        W22052  12.022   8.670   3.900  0.0489 -0.0697  0.1519
 6436W        W22053   3.061   1.787   4.780 -0.1951 -0.0717  0.0022
 6437W        W22054  14.336   9.210  12.756 -0.2215  0.1288 -0.0597
 6438W        W22055   6.198   7.840   2.556 -0.0751 -0.1564  0.2068
 6439W        W22056   0.212  17.884   5.670  0.0194  0.2537  0.2228
 6440W        W22057  13.240  12.683   3.783 -0.0670 -0.1103  0.1635
 6441W        W22058  15.827   2.438  14.644 -0.1888 -0.0252 -0.0614
 6442W        W22059  14.605   9.175  11.592  0.1194  0.2818 -0.0133
 6443W        W22060   9.504   2.480   0.648 -0.1391 -0.1888 -0.1654
 6444W        W22061  11.389   1.446   1.065 -0.1969 -0.2918  0.0875
 6445W        W22062   8.283   2.014   2.031  0.0018 -0.1080 -0.0364
 6446W        W22063  14.439   0.888  13.454  0.1759 -0.0268  0.1658
 6447W        W22064  16.447   0.555   2.014  0.0587 -0.2321  0.1894
 6448W        W22065   0.368   8.522  10.122 -0.0848  0.0021  0.1286
 6449W        W22066  17.069   3.941   3.938 -0.1630  0.0422 -0.0586
 6450W        W22067  12.826   3.510  12.907  0.1128 -0.0826 -0.1313
 6451W        W22068   1.645   5.657  12.043 -0.0872  0.0924  0.0679
 6452W        W22069  17.935  15.531   4.990  0.0114  0.0243  0.0717
 6453W        W22070   4.417  16.493  14.966  0.2974 -0.0172  0.0855
 6454W        W22071   6.686   6.047  12.218  0.1946  0.0930 -0.3723
 6455W        W22072  12.584   3.089   3.183 -0.0171 -0.0482 -0.2871
 6456W        W22073   0.356  13.059  10.746 -0.2038  0.0611 -0.4302
 6457W        W22074   4.351  18.408  12.555  0.2517 -0.2851  0.1844
 6458W        W22075   1.026   2.446  13.387 -0.0556 -0.5588  0.3531
 6459W        W22076   0.155   7.644   3.150  0.2728 -0.1050  0.1187
 6460W        W22077   2.534  13.922   4.369  0.0167  0.3077  0.0394
 6461W        W22078   0.608   4.547   2.369  0.0214  0.0996  0.0726
 6462W        W22079  16.990   3.836   2.022  0.0408  0.1820  0.4372
 6463W        W22080   2.972  10.116  10.750 -0.0272 -0.2140 -0.3082
 6464W        W22081  17.781   9.479  11.763 -0.0490 -0.3489  0.0816
 6465W        W22082   3.716   9.613  13.151 -0.1888 -0.0427 -0.0210
 6466W        W22083  12.894   3.190  14.133  0.1711  0.0280  0.1484
 6467W        W22084  12.902  13.849  13.675 -0.3355  0.1938 -0.0590
 6468W        W22085  17.691   5.085   1.542 -0.0143 -0.1011  0.0351
 6469W        W22086   1.301  15.087  13.918 -0.2367  0.1885 -0.0911
 6470W        W22087  12.414  12.264  12.473 -0.0300  0.0201  0.0378
 6471W        W22088   1.735   5.929  13.454 -0.3464  0.3362 -0.0116
 6472W        W22089   1.566  10.383  10.893 -0.0649 -0.2327 -0.0343
 6473W        W22090   4.811  17.328  13.950  0.1028  0.1988  0.3520
 6474W        W22091   8.577   6.932   9.610 -0.2108 -0.0513  0.2490
 6475W        W22092   3.685  14.242  14.647  0.4013  0.2367  0.2291
 6476W        W22093  15.193  14.350  14.773 -0.0362 -0.2839 -0.0166
 6477W        W22094   8.439   6.128   1.268  0.1380 -0.1064 -0.1309
 6478W        W22095  13.622   5.008   1.598 -0.1464 -0.0437 -0.2302
 6479W        W22096  17.038  10.304  13.339 -0.1132 -0.1557 -0.1081
 6480W        W22097   4.038  10.590   4.500 -0.0641  0.3105 -0.2202
 6481W        W22098  12.299  11.974  11.837  0.0952  0.0370  0.1098
 6482W        W22099  12.679  12.732   0.191  0.0353 -0.1244 -0.1033
 6483W        W22100   1.864   7.161   4.637 -0.4639  0.2460  0.1436
 6484W        W22101   1.096   2.312   0.621  0.0690  0.3002 -0.0710
 6485W        W22102  14.647   8.321  12.626  0.0518  0.2461 -0.0883
 6486W        W22103  11.782   4.021   2.390 -0.2786  0.0250 -0.0907
 6487W        W22104  12.259  18.796   4.642  0.0521  0.1616 -0.1433
 6488W        W22105  13.333  18.363   4.394 -0.3650 -0.1189 -0.0579
 6489W        W22106   4.539   6.424   0.811  0.1846  0.2122  0.2906
 6490W        W22107  18.603  14.612  12.854  0.1209 -0.2589  0.0792
 6491W        W22108  17.097  18.661   1.164 -0.0501 -0.2933  0.3971
 6492W        W22109   5.363   4.503  13.199  0.0189  0.1661  0.0285
 6493W        W22110   5.232   2.103   3.792  0.5875  0.0838 -0.0822
 6494W        W22111  11.588   3.961   4.210  0.3390  0.2773  0.0458
 6495W        W22112  15.039  14.249  10.910  0.1592  0.2066  0.2953
 6496W        W22113   0.172   4.425   2.723 -0.1563 -0.0417 -0.2017
 6497W        W22114   4.208   1.686   1.761 -0.1097  0.4749  0.2224
 6498W        W22115  15.726  16.150   0.510  0.0423  0.0222 -0.1144
 6499W        W22116   4.261   3.037  15.160  0.3370 -0.3023  0.0036
 6500W        W22117   1.386  18.066   1.241  0.2146 -0.0001  0.0723
 6501W        W22118  14.853  13.067  12.791  0.0510  0.2079 -0.1612
 6502W        W22119  16.771  10.789  10.887  0.0270 -0.2276 -0.2048
 6503W        W22120   3.673   8.382   1.709  0.2064 -0.0969 -0.0559
 6504W        W22121   6.072  16.600  14.570  0.0748 -0.2209 -0.4544
 6505W        W22122   4.909   8.115  12.999 -0.1720  0.1506 -0.3737
 6506W        W22123   3.879   5.185   3.716 -0.0136  0.2533  0.1972
 6507W        W22124  11.967  10.468  11.219  0.0871  0.1001  0.0032
 6508W        W22125  12.862  13.013  14.026  0.1801  0.0546  0.3753
 6509W        W22126   8.110  12.905   2.049 -0.0363 -0.0341 -0.2668
 6510W        W22127  11.150   7.662   9.783 -0.2060 -0.1142  0.1769
 6511W        W22128  12.467  17.603  10.857  0.3241 -0.0762 -0.0561
 6512W        W22129  16.361  16.417   4.251 -0.0857  0.0868  0.2561
 6513W        W22130  12.790   8.780   0.942 -0.1551  0.4753 -0.2225
 6514W        W22131   0.328   7.563  12.357 -0.3873  0.1446  0.1081
 6515W        W22132   5.579  11.419  14.052 -0.0476 -0.0053  0.1255
 6516W        W22133  17.955   1.444  11.057  0.1976  0.0187 -0.0287
 6517W        W22134  15.993  14.558   4.456  0.0339  0.0321 -0.4753
 6518W        W22135   6.160   3.027   2.665 -0.0031  0.2738 -0.0516
 6519W        W22136   9.692  11.120   3.195  0.0058 -0.3033 -0.0304
 6520W        W22137   5.371  17.721  12.633 -0.1708  0.0826 -0.2298
 6521W        W22138   8.320  17.668   2.300  0.4040  0.0025 -0.0532
 6522W        W22139   4.247  12.572  13.733  0.1369  0.4065  0.1772
 6523W        W22140   9.712  13.397  12.467 -0.2557 -0.1390 -0.4268
 6524W        W22141   3.371   6.701   1.206  0.1340  0.1283 -0.0862
 6525W        W22142  18.371  16.143   1.918  0.0646  0.1972 -0.2346
 6526W        W22143  14.282   0.829   4.068  0.0483  0.3318  0.0083
 6527W        W22144   6.853   7.146   3.069  0.1468 -0.1291 -0.1985
 6528W        W22145   4.751   7.375  11.881 -0.0968 -0.4409 -0.1883
 6529W        W22146   0.085  15.551  11.754 -0.0184 -0.1073  0.3492
 6530W        W22147  11.945   1.982  14.874 -0.2083  0.4198 -0.0404
 6531W        W22148   5.229  17.279  14.334  0.0172 -0.1102  0.2522
 6532W        W22149   7.392   2.335   3.622  0.0900  0.0666  0.1920
 6533W        W22150  16.207  14.453  10.219 -0.0841 -0.0369  0.2079
 6534W        W22151   8.101  17.363  13.556 -0.2181 -0.1192 -0.0061
 6535W        W22152   1.079   4.047  11.690  0.1069  0.3346  0.3456
 6536W        W22153  14.586  17.071   0.859  0.4662 -0.1471  0.2233
 6537W        W22154  10.646  13.571   4.675 -0.0473  0.3222 -0.1889
 6538W        W22155   7.491   6.277  12.519 -0.2672  0.0621  0.0815
 6539W        W22156   4.687   5.175  15.021  0.0870 -0.1711  0.0445
 6540W        W22157  18.720  10.689  10.463  0.0220  0.4398  0.0460
 6541W        W22158   2.430   9.185   2.383 -0.0609 -0.0106 -0.2310
 6542W        W22159   5.432   2.736  14.421  0.0500 -0.2923 -0.0795
 6543W        W22160   7.052  17.748   1.765  0.1160 -0.1322  0.3287
 6544W        W22161  12.069  12.104   0.362 -0.2123 -0.0767  0.1297
 6545W        W22162   6.298  18.069  15.208 -0.1837 -0.1816 -0.1422
 6546W        W22163  16.159   5.914  13.987 -0.0189 -0.0316  0.1192
 6547W        W22164  18.703   8.378   3.505  0.0325 -0.0536  0.2111
 6548W        W22165   6.619   8.530   2.339  0.0886  0.4428  0.0681
 6549W        W22166   2.078   6.629  11.491 -0.0494  0.3596 -0.0807
 6550W        W22167  15.712  17.128   3.922 -0.3530 -0.1430  0.1113
 6551W        W22168   0.197  17.531   4.916  0.0312 -0.0295 -0.0207
 6552W        W22169   2.724  11.609   2.914  0.3752 -0.3496 -0.0465
 6553W        W22170   2.951  17.319   1.966  0.1533 -0.0340 -0.1773
 6554W        W22171   2.746   3.725   4.067 -0.1115 -0.2910 -0.2565
 6555W        W22172   0.942   2.806   0.695  0.0865  0.2930  0.2432
 6556W        W22173   6.638   6.427   4.362 -0.1887  0.0858  0.1459
 6557W        W22174   3.197  18.057   4.162  0.0454 -0.1022 -0.1827
 6558W        W22175  13.823  17.340  13.048  0.3516 -0.3107  0.2873
 6559W        W22176   7.406  11.817  14.665 -0.0243 -0.3745  0.2811
 6560W        W22177  18.003   4.989   3.346  0.0910  0.2333 -0.0036
 6561W        W22178  16.272   5.848   0.437  0.1031  0.1373 -0.2590
 6562W        W22179   6.354   7.268   3.359  0.0459  0.3563  0.0894
 6563W        W22180  13.451   1.393  13.005 -0.1878 -0.0257 -0.2800
 6564W        W22181  10.842   4.015   0.469 -0.1172 -0.1144  0.0134
 6565W        W22182   8.681   9.013   5.785  0.2625 -0.0696 -0.0675
 6566W        W22183   1.375  10.061  14.205 -0.3737  0.2813 -0.1529
 6567W        W22184   9.853  14.146  10.437  0.0534 -0.2563  0.3299
 6568W        W22185  18.634   9.236   1.341  0.1914 -0.1380  0.2655
 6569W        W22186   6.138   1.593   1.630 -0.0783 -0.1274  0.0156
 6570W        W22187  16.787  13.562   4.946  0.2703  0.1362 -0.0446
 6571W        W22188   6.643   1.693  13.495 -0.0417 -0.0653  0.0699
 6572W        W22189  12.882   5.980  12.741  0.0112  0.1202 -0.1367
 6573W        W22190  10.556   1.832   1.680 -0.0671  0.1644 -0.0687
 6574W        W22191   1.079  17.490  10.394 -0.0557 -0.1032 -0.1412
 6575W        W22192  15.401   8.807   1.960 -0.5005 -0.0794  0.1083
 6576W        W22193  16.845   0.559   3.764 -0.0404 -0.0679 -0.2513
 6577W        W22194  17.908   8.791   3.184 -0.0861 -0.0643  0.4815
 6578W        W22195   0.451  11.343  12.673 -0.1259 -0.0835 -0.1332
 6579W        W22196   1.342  12.578   0.325  0.0383  0.3181  0.0636
 6580W        W22197   2.889   6.842  15.164  0.0385  0.2491  0.0891
 6581W        W22198  12.841  14.633   3.946  0.1261  0.0770 -0.2459
 6582W        W22199   1.130  13.016  11.782  0.3315 -0.0900  0.4608
 6583W        W22200   6.442   6.665   6.099 -0.1774  0.0167 -0.2822
 6584W        W22201   7.770  10.076   5.207 -0.3788  0.1836  0.0613
 6585W        W22202   9.713   2.589   0.169  0.2287  0.0867  0.0762
 6586W        W22203   1.451  11.656   2.399  0.0745  0.1881  0.0318
 6587W        W22204   3.660   5.008  12.675  0.0621 -0.2942  0.0540
 6588W        W22205   5.993  18.585  10.621 -0.3543  0.0376  0.4204
 6589W        W22206  16.610  13.255  12.127  0.2850  0.0518 -0.0009
 6590W        W22207  14.145  18.975   2.653  0.0812 -0.2291 -0.3988
 6591W        W22208  12.904   5.839  12.202 -0.1009  0.0800  0.2862
 6592W        W22209  18.672  16.930   1.632  0.2833  0.0516  0.4176
 6593W        W22210   3.681  11.792   0.957  0.2165  0.3601  0.0982
 6594W        W22211  17.983   8.105  11.360  0.1350  0.1701  0.2868
 6595W        W22212  18.554   4.237  14.859 -0.1742  0.1193 -0.1932
 6596W        W22213   2.086  14.593  14.136  0.0774  0.0381 -0.1092
 6597W        W22214   8.299  11.181   1.245 -0.1810 -0.1271 -0.0565
 6598W        W22215   6.042   3.734   2.733 -0.2256 -0.1819  0.2686
 6599W        W22216   0.338   2.204  12.517 -0.1697  0.3323 -0.2556
 6600W        W22217  10.531  12.197   1.309  0.2481  0.1163 -0.0060
 6601W        W22218   7.286   6.903   3.565 -0.0084 -0.1664 -0.0600
 6602W        W22219   0.513   0.620  10.783 -0.2039 -0.2355 -0.0366
 6603W        W22220  13.556  10.672  11.583 -0.2798  0.2563  0.3457
 6604W        W22221   3.377   2.255   1.014  0.1310 -0.2674 -0.3872
 6605W        W22222  18.003  18.700   3.338 -0.0506 -0.0543  0.1326
 6606W        W22223  10.584   5.335   9.409  0.1202  0.5299 -0.1594
 6607W        W22224  15.238   0.866   0.849  0.1894  0.2752  0.0678
 6608W        W22225   7.571   1.826   0.154 -0.2660 -0.1334  0.1252
 6609W        W22226   0.042  10.259   4.141 -0.0723 -0.0080 -0.0784
 6610W        W22227  18.229   8.583   0.636  0.2734  0.0199  0.1544
 6611W        W22228  16.957   3.451   1.081 -0.2442  0.2124  0.1121
 6612W        W22229   5.581  14.407  14.618 -0.0192  0.2765  0.2281
 6613W        W22230   9.717   3.900  12.057  0.0413 -0.0320 -0.1138
 6614W        W22231   5.396   5.230  11.315  0.0049  0.4014  0.2098
 6615W        W22232  10.109   9.378  12.364  0.1141  0.0302  0.1313
 6616W        W22233   7.306   1.272   6.228 -0.2502 -0.0314 -0.0298
 6617W        W22234   1.529  10.867   2.914  0.0780  0.1422  0.2475
 6618W        W22235  10.729   3.680   1.146 -0.0916  0.2133 -0.1711
 6619W        W22236   4.226   7.983  14.129  0.1085 -0.4531  0.3165
 6620W        W22237  18.906   9.717   3.634  0.0555 -0.0515 -0.1797
 6621W        W22238   3.648   8.426  13.539  0.0381  0.1285 -0.0246
 6622W        W22239  13.898   6.441  12.782 -0.1786  0.0822  0.0675
 6623W        W22240  13.006   6.828   1.800 -0.1291  0.2905 -0.1627
 6624W        W22241  10.595  12.865   4.524  0.0126  0.1586  0.0136
 6625W        W22242  10.627  13.639  12.902 -0.0254 -0.1040  0.3136
 6626W        W22243  17.748  12.646   1.163 -0.0663 -0.2748  0.1471
 6627W        W22244  10.814  16.150   4.482  0.0718 -0.0817  0.2562
 6628W        W22245   9.004   3.859   2.500 -0.0541 -0.1823 -0.1944
 6629W        W22246   6.569   7.477   1.262  0.0071  0.1150  0.0212
 6630W        W22247  17.126   7.312  13.483 -0.1620  0.1122  0.2248
 6631W        W22248   2.417  10.960   1.644  0.1026 -0.0148  0.0705
 6632W        W22249  12.076   8.161   3.948  0.2488  0.0813  0.1834
 6633W        W22250   0.931   7.141   2.305  0.2328  0.0214  0.3013
 6634W        W22251   4.739   9.864  13.381  0.2950 -0.5501 -0.0092
 6635W        W22252   9.564  11.586   3.352  0.0203 -0.1206  0.1153
 6636W        W22253  17.861   1.413   3.424 -0.1573 -0.0425 -0.1337
 6637W        W22254  17.617   8.091  14.830 -0.3873  0.0351  0.0428
 6638W        W22255   7.303  14.020  11.228 -0.1485 -0.0892  0.0815
 6639W        W22256   0.095   3.662  11.296  0.5249  0.3591 -0.1699
 6640W        W22257  12.057  10.311  10.708  0.0384 -0.2968  0.2984
 6641W        W22258  12.000  16.749  11.367  0.1241 -0.1024  0.0045
 6642W        W22259  10.534  11.863   3.376  0.1801 -0.0292 -0.0212
 6643W        W22260   1.801  18.747  12.357  0.2658  0.0899  0.0566
 6644W        W22261   3.925  15.906   1.157 -0.1561  0.0071 -0.0017
 6645W        W22262  15.100   4.088   4.774 -0.2181  0.1199 -0.0465
 6646W        W22263   9.536   6.278   0.415 -0.3514  0.2237  0.0280
 6647W        W22264   9.188  18.534   5.002  0.1304 -0.3418 -0.3525
 6648W        W22265   9.364  13.140  14.037 -0.2782  0.0629 -0.1160
 6649W        W22266   9.603   7.226  14.386  0.3270  0.1496  0.2049
 6650W        W22267   2.849   7.321   9.609 -0.1117 -0.0033  0.1151
 6651W        W22268   4.364   1.034  12.109  0.2065 -0.2364  0.0245
 6652W        W22269  15.981   9.439  11.569  0.0422  0.1279  0.1082
 6653W        W22270  14.537   9.923   5.232 -0.0790 -0.0029  0.1006
 6654W        W22271  17.894  10.848  13.936 -0.0628 -0.0649  0.0856
 6655W        W22272   5.016   7.810   3.831  0.0094 -0.2422 -0.0017
 6656W        W22273  10.891  10.509   5.018  0.1266  0.1695 -0.5010
 6657W        W22274   6.172  15.000  12.164  0.0086 -0.3986 -0.0878
 6658W        W22275   4.330  12.668  12.776  0.0419  0.0749 -0.0222
 6659W        W22276   9.370   2.726   1.886 -0.1274 -0.1221  0.0415
 6660W        W22277   6.281  11.565   1.431  0.1581 -0.0895  0.1050
 6661W        W22278   2.954  13.066  13.455  0.1584 -0.1652 -0.1084
 6662W        W22279  17.839   1.917  10.632 -0.1959 -0.0995 -0.2600
 6663W        W22280  13.337   9.947   3.316  0.1246 -0.0777 -0.0072
 6664W        W22281   5.460   2.028  11.855  0.0345 -0.0224  0.1186
 6665W        W22282  12.658  17.470   5.432  0.2860 -0.2090 -0.3384
 6666W        W22283  12.718   4.304   1.984  0.2548  0.0214 -0.0851
 6667W        W22284  15.910  16.709  10.819  0.1069  0.4031  0.0649
 6668W        W22285  11.717   2.875  11.052 -0.2653  0.0850 -0.0416
 6669W        W22286  10.357  12.398   3.230 -0.1500 -0.2959 -0.2468
 6670W        W22287   3.838   7.669  14.197 -0.0426 -0.1035  0.2654
 6671W        W22288  11.297  13.615  12.896 -0.0856  0.1513 -0.0646
 6672W        W22289  12.127   2.709   1.937 -0.5427  0.1666  0.0109
 6673W        W22290  17.363   0.170   0.599 -0.0738 -0.4112  0.0112
 6674W        W22291  12.681   4.723   4.894 -0.0766  0.0337  0.2223
 6675W        W22292   3.387   7.100  11.657 -0.1447  0.0172 -0.0769
 6676W        W22293   3.022   0.343   3.005  0.0475  0.1793  0.0116
 6677W        W22294  16.290   8.026   1.521  0.0682  0.3897 -0.0576
 6678W        W22295   6.033  11.858  14.667  0.1288 -0.2382  0.1022
 6679W        W22296   0.259   9.452  12.071 -0.1858 -0.2603 -0.0312
 6680W        W22297   2.963   0.866  12.101  0.1846 -0.0551  0.4622
 6681W        W22298   2.892  12.917   0.535  0.2903  0.0721 -0.0036
 6682W        W22299   9.036   1.335  14.121 -0.0439 -0.2813  0.0126
 6683W        W22300  18.428  17.604  15.161 -0.0610  0.1648 -0.6318
 6684W        W22301  13.234  11.870  15.111 -0.3358 -0.0955 -0.2373
 6685W        W22302  14.954  15.518   3.431  0.1180 -0.1164 -0.2275
 6686W        W22303  10.844  11.476  14.936 -0.0577  0.1195  0.3757
 6687W        W22304  18.012   6.008  15.215 -0.3217  0.0915 -0.3495
 6688W        W22305  14.907  11.084   0.992 -0.2295  0.2828 -0.0677
 6689W        W22306  15.203   9.902  10.983  0.0583  0.0106  0.1197
 6690W        W22307   4.874   5.396   5.239  0.0304  0.0866 -0.4921
 6691W        W22308   9.964   9.246   5.124  0.1855 -0.2967  0.1066
 6692W        W22309  18.346  12.574   0.755 -0.1209 -0.4388 -0.1043
 6693W        W22310  11.995   6.539  11.286  0.1490 -0.2444  0.3319
 6694W        W22311   6.203  11.534   4.939 -0.0647 -0.1361  0.0751
 6695W        W22312  16.045   2.216   0.731  0.0763  0.0553 -0.1103
 6696W        W22313  15.631  11.456   2.135 -0.1609  0.2347  0.0333
 6697W        W22314  17.290   9.511   3.271 -0.2926 -0.0683 -0.2251
 6698W        W22315   7.377  11.238  15.248 -0.1672  0.1312  0.2853
 6699W        W22316   6.810   0.759  11.044  0.3610 -0.1415 -0.2832
 6700W        W22317  16.806  10.455  12.411  0.2193 -0.1146  0.1896
 6701W        W22318  15.475   0.177   4.551 -0.1698  0.1325  0.1138
 6702W        W22319  18.101  12.263  13.518  0.1899  0.1281 -0.0047
 6703W        W22320   1.510   7.425   2.433  0.5026  0.1381  0.0561
 6704W        W22321  12.288   6.198  12.620 -0.2432 -0.0987  0.3582
 6705W        W22322  14.859   9.155   2.250  0.1009 -0.3347 -0.2236
 6706W        W22323   3.128   4.201   0.296  0.0257  0.1730  0.0948
 6707W        W22324  17.429   8.405  10.816 -0.1804 -0.0636 -0.0987
 6708W        W22325   3.680   2.057  11.829  0.2496  0.1492 -0.0007
 6709W        W22326  13.630  12.903  12.211 -0.1151 -0.1042  0.0280
 6710W        W22327  12.134   9.197  13.167 -0.1325  0.1308  0.4673
 6711W        W22328   6.476  17.267  13.019 -0.1286 -0.4768 -0.1666
 6712W        W22329  15.132  16.569  15.175 -0.0041 -0.1705  0.1832
 6713W        W22330  14.942   1.814   2.641 -0.1107 -0.0471  0.1432
 6714W        W22331   4.470   6.328   0.059  0.0129 -0.4123  0.0474
 6715W        W22332   3.800   7.129  13.407 -0.0633 -0.2974  0.2471
 6716W        W22333   9.178   9.085   4.956  0.1763  0.0180 -0.2250
 6717W        W22334   6.434  13.434  11.248  0.2011  0.0754 -0.1117
 6718W        W22335  14.051  13.143   0.959  0.2745  0.1087 -0.0481
 6719W        W22336  19.027  13.332   0.324 -0.1346  0.3129  0.1163
 6720W        W22337   1.325  11.671  14.700 -0.1571  0.0575 -0.0684
 6721W        W22338   0.298   6.079   9.820 -0.0675 -0.1387  0.1965
 6722W        W22339  17.107  17.848  11.813  0.1367  0.0868 -0.4139
 6723W        W22340   3.946   9.436   4.850 -0.0577  0.0326 -0.1411
 6724W        W22341   6.027  10.793   1.007 -0.3104 -0.1126  0.1747
 6725W        W22342  10.458   5.452   4.426  0.1420 -0.0918 -0.4293
 6726W        W22343  18.063  17.186  13.926  0.1338 -0.0772  0.2462
 6727W        W22344  15.200  15.264   1.154 -0.0638 -0.1944  0.4338
 6728W        W22345  11.846   2.348   1.073  0.4791 -0.0468  0.2092
 6729W        W22346   0.541   9.004  13.345 -0.2333  0.0778  0.0526
 6730W        W22347   6.537   2.060   2.512 -0.1377 -0.0085  0.0374
 6731W        W22348   5.046  15.694   5.267  0.3435 -0.0578 -0.3494
 6732W        W22349   0.282  17.436   5.413 -0.0028  0.1811  0.0569
 6733W        W22350  10.905  13.633   3.006  0.3871 -0.1367  0.0383
 6734W        W22351  17.235   5.648   1.123  0.1445 -0.2607 -0.0246
 6735W        W22352  17.780  16.985   5.562  0.3153  0.0569 -0.0422
 6736W        W22353  16.293   4.579   2.515 -0.0906  0.1658  0.3327
 6737W        W22354   1.570  15.865  13.581 -0.0264  0.0644  0.0611
 6738W        W22355   9.511   7.401   2.947  0.0673  0.0373  0.1456
 6739W        W22356   2.759  14.880   0.300 -0.1232  0.2138  0.1188
 6740W        W22357  11.948   1.364   0.834 -0.0246 -0.3470 -0.1592
 6741W        W22358   3.816  13.238   0.928 -0.1877  0.1671 -0.1945
 6742W        W22359  10.768  14.077  14.595  0.2457 -0.0612  0.2127
 6743W        W22360   6.483   3.701  13.174 -0.0629  0.0452 -0.0449
 6744W        W22361  13.068  11.641  11.244  0.0769  0.2133 -0.0556
 6745W        W22362  12.127  12.968   1.964  0.0819  0.2590 -0.0615
 6746W        W22363  10.249   3.787   2.350 -0.1810 -0.3572  0.1582
 6747W        W22364   3.526   8.510   0.822  0.0747  0.0509  0.1060
 6748W        W22365   0.213  13.695  11.904 -0.1636 -0.1856  0.0022
 6749W        W22366  18.073  17.638   4.107 -0.0674 -0.0778 -0.2773
 6750W        W22367   7.606   3.327   1.076  0.1809 -0.1488 -0.1586
 6751W        W22368  13.232  11.742  12.630  0.0811  0.1893  0.4498
 6752W        W22369   1.376   9.550   3.359  0.0433  0.1213  0.1619
 6753W        W22370   1.112  17.537   4.535 -0.0458  0.1468 -0.1693
 6754W        W22371  13.543   1.227   3.458 -0.0578  0.0725  0.2485
 6755W        W22372  15.536   4.400  12.911  0.0417  0.0267 -0.3471
 6756W        W22373  15.000   4.980  10.435  0.1509 -0.1907 -0.0663
 6757W        W22374   8.379   8.976   2.365 -0.0643  0.1851 -0.1236
 6758W        W22375   9.536   0.526  12.548 -0.2054  0.4193  0.0220
 6759W        W22376  13.849   9.611   0.880  0.1978 -0.1638  0.1035
 6760W        W22377   1.897  14.771  15.098  0.0620 -0.0390 -0.0116
 6761W        W22378   4.923  10.128  10.660  0.0396  0.3002  0.2756
 6762W        W22379  12.332   0.861   4.422 -0.0074  0.0914  0.1816
 6763W        W22380  17.275   5.351   0.270 -0.3134  0.1236  0.0805
 6764W        W22381   6.424  15.326  11.365  0.1598  0.1112  0.2169
 6765W        W22382  11.494   1.613   0.139 -0.1160 -0.4365 -0.0304
 6766W        W22383   5.047  16.902   5.165  0.1939 -0.0927 -0.2176
 6767W        W22384  15.340  11.319   1.291 -0.0920 -0.1416  0.0688
 6768W        W22385   4.503  12.147  12.009 -0.2291 -0.1489 -0.2554
 6769W        W22386   9.827   5.235  11.558  0.2739  0.1769  0.0670
 6770W        W22387   9.015   5.231   1.269 -0.1810 -0.3872 -0.0660
 6771W        W22388   8.865  10.208  13.796 -0.0834  0.2357  0.0579
 6772W        W22389  17.444  10.351   3.124  0.1434  0.2563  0.0867
 6773W        W22390   5.971  12.686  12.756 -0.0284 -0.2019 -0.0517
 6774W        W22391  13.446  13.603   1.557  0.2405  0.2211 -0.0367
 6775W        W22392  17.712   4.612  13.017 -0.0572 -0.0766  0.1134
 6776W        W22393   6.082  12.285  14.263 -0.1062  0.3534  0.1517
 6777W        W22394   9.654   2.136   3.366  0.2641  0.2739  0.0323
 6778W        W22395  16.381  13.217  10.394 -0.0247  0.0049 -0.1879
 6779W        W22396   9.595  11.780   0.907 -0.0460  0.3679  0.1784
 6780W        W22397   5.285  15.720   2.496 -0.1615  0.2835  0.2876
 6781W        W22398   5.738   7.209   0.225 -0.2486 -0.0012 -0.0361
 6782W        W22399  15.082   0.236   4.273  0.1337  0.1123  0.3170
 6783W        W22400   6.283  17.644   1.600 -0.1818 -0.1037  0.2353
 6784W        W22401  14.882   0.628   2.077 -0.0101 -0.1304  0.0870
 6785W        W22402   3.200  11.421  12.960 -0.2925  0.2427  0.1062
 6786W        W22403   5.387   8.807  13.169 -0.4071 -0.2097  0.0210
 6787W        W22404  10.290   7.262   1.087 -0.3930 -0.2209 -0.2836
 6788W        W22405   0.420  17.137  12.096 -0.0598  0.1848 -0.0310
 6789W        W22406   3.788   5.513  10.963  0.0889 -0.0696  0.1397
 6790W        W22407  17.733  10.240   1.219  0.0848 -0.0951  0.2810
 6791W        W22408  17.564   0.714   0.497 -0.0133  0.0281 -0.4248
 6792W        W22409  14.787   7.887  11.616  0.1162 -0.3245 -0.1668
 6793W        W22410  15.144  13.073   4.448 -0.2145  0.0153 -0.0944
 6794W        W22411  12.438  13.173   3.055  0.2240  0.2536  0.2913
 6795W        W22412  18.872   6.820   4.328 -0.0697 -0.1687 -0.1705
 6796W        W22413  16.181   5.826  10.545 -0.1196 -0.1115 -0.1036
 6797W        W22414   8.043  12.189   3.151 -0.2346 -0.0170 -0.2258
 6798W        W22415   8.229  10.191  15.112  0.0516 -0.0355 -0.2331
 6799W        W22416  12.572   3.590   0.385 -0.1703  0.1020  0.2034
 6800W        W22417   9.805   1.764  10.732 -0.2164 -0.1136  0.3066
 6801W        W22418  13.295   4.382   3.015 -0.0487 -0.2076  0.5377
 6802W        W22419   9.601   1.316   0.293  0.2887 -0.0590  0.1866
 6803W        W22420   5.781  18.616  13.073  0.0665  0.0370 -0.2652
 6804W        W22421   4.548  15.060  12.016  0.3037 -0.3215  0.2547
 6805W        W22422   6.121  12.640   2.501  0.1573 -0.0920 -0.1599
 6806W        W22423   7.800  11.554   2.279 -0.1016  0.0015 -0.3424
 6807W        W22424  17.893   9.206  10.484 -0.1153 -0.5425  0.0876
 6808W        W22425   1.011  18.246   4.836 -0.1023 -0.2472  0.1146
 6809W        W22426  17.769   0.295   5.249  0.0442  0.1427 -0.0222
 6810W        W22427  17.396  18.876   0.106 -0.0086  0.1409 -0.1393
 6811W        W22428   9.262  18.165   3.191  0.0981  0.3843  0.0224
 6812W        W22429   2.203  18.456  11.577 -0.0767 -0.0544  0.2653
 6813W        W22430   4.097   4.369  13.314 -0.2039 -0.0857  0.1056
 6814W        W22431   0.927   5.445  12.759  0.1306  0.2327  0.3867
 6815W        W22432  12.487   4.857  12.802  0.2074  0.2692 -0.0903
 6816W        W22433   1.863  18.204   3.915  0.2033  0.0961 -0.3912
 6817W        W22434  10.566  15.434  10.305  0.1470  0.1599 -0.0591
 6818W        W22435  14.538  11.180   3.055 -0.0127 -0.1876  0.0035
 6819W        W22436  17.167  10.159   1.316  0.4410  0.3591 -0.1863
 6820W        W22437  16.321   2.069   5.053  0.0881 -0.1773 -0.1049
 6821W        W22438  10.872  12.529  12.444 -0.0090 -0.1314 -0.0823
 6822W        W22439   5.570  17.761   3.802  0.0497 -0.2229  0.0157
 6823W        W22440   6.265   1.887  14.012 -0.1366 -0.1978  0.2319
 6824W        W22441  13.767  16.844   5.344  0.1717 -0.0666  0.0180
 6825W        W22442   3.732   9.781   0.579 -0.4429  0.0461 -0.0242
 6826W        W22443   0.384   5.666  15.155 -0.1644 -0.2350 -0.1452
 6827W        W22444  13.248   4.219  10.305  0.0883  0.1717  0.2291
 6828W        W22445   2.144   4.495   2.710 -0.0019  0.0583 -0.0517
 6829W        W22446   9.397   9.971   1.749 -0.5320 -0.0632  0.1352
 6830W        W22447   4.979  12.963   3.361 -0.1185 -0.3833 -0.1552
 6831W        W22448   1.321   6.335  14.385  0.2819  0.0706  0.0989
 6832W        W22449  18.840   5.532  11.994 -0.2321 -0.0676 -0.0346
 6833W        W22450   4.274   0.829  14.344  0.3088 -0.0534  0.1529
 6834W        W22451   0.928   6.172   2.423 -0.1607  0.0518  0.3316
 6835W        W22452   9.802   5.097  12.467 -0.1276  0.2396  0.2533
 6836W        W22453  14.385  12.210   4.046 -0.0360 -0.0556 -0.1521
 6837W        W22454  10.305   2.228   2.055  0.2625 -0.1602 -0.0160
 6838W        W22455  12.918  16.033   0.843  0.0255 -0.2275 -0.0810
 6839W        W22456  14.860   1.386   3.483  0.2161  0.1157 -0.1563
 6840W        W22457  16.884   8.769   1.238 -0.1993  0.5181  0.1461
 6841W        W22458  18.490   8.742   2.657 -0.0141  0.0869 -0.3469
 6842W        W22459   8.577   3.062   4.937  0.2056 -0.0607 -0.1513
 6843W        W22460  10.665  15.071  14.841  0.1637 -0.0355  0.1133
 6844W        W22461   4.180  14.940  12.321 -0.0463 -0.3056 -0.1973
 6845W        W22462  16.371   5.963  11.020  0.3207  0.2770  0.0030
 6846W        W22463  13.152   0.720   3.365  0.0010 -0.2290 -0.2630
 6847W        W22464   0.288  16.547  11.685 -0.0108  0.1598 -0.0162
 6848W        W22465  15.781  10.852   2.533  0.3495 -0.0977  0.2175
 6849W        W22466   0.639  10.516  14.603  0.0748 -0.2646  0.0969
 6850W        W22467   6.165  17.613   4.948  0.0307 -0.0985  0.0421
 6851W        W22468   3.921   4.208   4.933 -0.1987 -0.1616 -0.4637
 6852W        W22469  12.483  15.980  15.267  0.0859  0.0385 -0.0742
 6853W        W22470  16.153  10.842   4.778  0.0983 -0.2138 -0.0677
 6854W        W22471  16.475   1.182   3.742 -0.0472  0.0694 -0.1431
 6855W        W22472   4.023   4.561   0.100  0.0193 -0.2933  0.1205
 6856W        W22473   0.032  15.788  13.356  0.4172  0.0796 -0.0589
 6857W        W22474   2.779  11.785   0.919  0.3339  0.1300  0.0025
 6858W        W22475  18.634   5.878   4.339  0.2302 -0.0707 -0.0561
 6859W        W22476  13.674  12.203  12.532  0.1241  0.1929 -0.4257
 6860W        W22477  12.171  15.815  13.928 -0.1777 -0.0348  0.2536
 6861W        W22478  18.064   4.275   4.590  0.1095 -0.2867 -0.2763
 6862W        W22479   2.026  12.563  13.663  0.0204  0.1726 -0.1822
 6863W        W22480  10.284   3.827   0.538 -0.4510 -0.0481  0.0900
 6864W        W22481  15.718  15.890  10.553 -0.0032 -0.2472 -0.1968
 6865W        W22482   9.805   9.476   0.188  0.3118 -0.0194 -0.3158
 6866W        W22483   9.451   0.945   9.879  0.0190  0.2852 -0.1963
 6867W        W22484   2.358   3.653   4.487 -0.1850  0.0703  0.2865
 6868W        W22485  14.297   4.090  11.443  0.1780 -0.1871  0.0011
 6869W        W22486  15.892  18.194   1.004  0.3629  0.0496 -0.2241
 6870W        W22487   3.824   4.801  11.447  0.2448 -0.0135  0.2869
 6871W        W22488   2.369  10.250  11.897  0.0210 -0.0756  0.4182
 6872W        W22489  14.721  11.280  14.132  0.1172 -0.0704  0.2768
 6873W        W22490  16.485  11.103   3.343 -0.2174 -0.1803 -0.1694
 6874W        W22491  13.014  17.591  15.091 -0.0840 -0.1368 -0.2018
 6875W        W22492   7.449   7.199   0.700 -0.0475  0.0365 -0.1422
 6876W        W22493  14.593   0.149  11.227  0.1686  0.0885  0.1668
 6877W        W22494  17.875  15.786  15.120  0.2398  0.0378 -0.2238
 6878W        W22495  18.018   3.717   0.624  0.2480 -0.2713  0.0310
 6879W        W22496  12.937   1.082   2.432  0.1656 -0.3916 -0.2525
 6880W        W22497   7.464   1.353   2.227  0.2990  0.2393 -0.0550
 6881W        W22498   5.745   0.717  11.077 -0.0988  0.2693 -0.0905
 6882W        W22499  11.265  13.544   3.332 -0.2140 -0.0722 -0.1852
 6883W        W22500  12.229   6.568  10.773 -0.1069  0.2997 -0.2566
 6884W        W22501   3.526   7.017  14.334  0.2876  0.3006  0.0614
 6885W        W22502   9.992  15.957   9.917 -0.1225  0.0270  0.1683
 6886W        W22503   0.544   6.544   0.772 -0.0698  0.0637  0.1167
 6887W        W22504  18.817  16.518  12.814  0.1681  0.0241  0.1880
 6888W        W22505   3.805  16.323   4.151 -0.1562 -0.2314 -0.1402
 6889W        W22506   1.154  16.015   0.800 -0.1200 -0.1006 -0.0038
 6890W        W22507  18.844  14.761  10.624 -0.1231 -0.0173 -0.1117
 6891W        W22508   4.109  15.551  15.070 -0.0517  0.2944  0.0168
 6892W        W22509   0.281   6.606   4.023  0.1540 -0.1238  0.2121
 6893W        W22510   6.692  12.432  10.879 -0.1911 -0.0796  0.1214
 6894W        W22511   3.722  10.911   4.311 -0.0731  0.0593 -0.1876
 6895W        W22512  18.491  11.091   2.496  0.0918  0.0307 -0.0147
 6896W        W22513   1.297  12.482  11.143 -0.2211 -0.1968 -0.4556
 6897W        W22514   1.264  12.612   5.898  0.0206  0.1853 -0.0431
 6898W        W22515  13.162  18.873   0.062 -0.2045 -0.1868  0.0531
 6899W        W22516   0.823   8.690   0.207 -0.1911  0.2155 -0.1015
 6900W        W22517  17.319   7.227   0.294  0.1116  0.2474 -0.4144
 6901W        W22518   2.820   0.266   4.219  0.4100 -0.4292  0.0987
 6902W        W22519   1.280   5.513   9.764  0.2952 -0.3554 -0.3755
 6903W        W22520  17.984   5.804  13.187  0.2307 -0.0985  0.2780
 6904W        W22521  13.012  12.638  10.994 -0.1415 -0.2264 -0.2017
 6905W        W22522   4.346  15.920  13.851  0.0878  0.4089  0.0862
 6906W        W22523   9.760   4.729  13.377 -0.2423 -0.0281 -0.0812
 6907W        W22524   5.949  16.016   0.695  0.4647  0.1165 -0.1346
 6908W        W22525   6.265   7.866  10.505 -0.0545 -0.0504 -0.1226
 6909W        W22526  16.668  15.891  14.203 -0.1510 -0.3400 -0.2222
 6910W        W22527  16.268   4.279   4.401 -0.1043 -0.3641 -0.0250
 6911W        W22528  14.535   2.799  10.643 -0.1226 -0.1565 -0.0150
 6912W        W22529  11.645  17.791  12.957  0.0543 -0.3490  0.0807
 6913W        W22530  16.852   9.609  12.026 -0.1999 -0.1043 -0.0639
 6914W        W22531   5.904   3.690  13.892  0.5496  0.3499 -0.1173
 6915W        W22532   1.367   2.282  14.493 -0.0984  0.0005  0.0903
 6916W        W22533   6.480  15.738   1.295  0.1862  0.1431 -0.1438
 6917W        W22534  16.806  14.433  14.617 -0.1408 -0.2176 -0.0457
 6918W        W22535   3.648   3.983   4.158 -0.0426  0.1475 -0.1640
 6919W        W22536  15.728   9.517   4.346  0.0844 -0.2322  0.1219
 6920W        W22537  17.874  10.102   3.111 -0.3043 -0.1566  0.4016
 6921W        W22538   2.524  11.429   2.021 -0.1771  0.1778  0.0893
 6922W        W22539  17.103   2.001  14.811  0.1785 -0.1265 -0.0784
 6923W        W22540  11.489   9.283  10.604  0.3510 -0.1191 -0.0267
 6924W        W22541  11.267   8.375  12.046  0.1587  0.0158 -0.1442
 6925W        W22542   1.810   2.164  15.042  0.2906 -0.2769  0.0934
 6926W        W22543   3.878   6.071   4.291 -0.0059  0.1244 -0.2520
 6927W        W22544  15.711   7.500   5.345 -0.0090  0.0662 -0.2291
 6928W        W22545  13.300  11.296   3.557  0.0451 -0.0650  0.0157
 6929W        W22546   7.841  17.362  14.413  0.0330  0.4585 -0.1618
 6930W        W22547   3.475  15.108   4.197 -0.1444  0.0484  0.2848
 6931W        W22548   4.457   8.676   0.748  0.0908 -0.1418 -0.1086
 6932W        W22549  11.389  11.876  12.768  0.2273 -0.2784  0.1691
 6933W        W22550  13.804  15.466   0.613 -0.0615 -0.0690 -0.2760
 6934W        W22551  16.122  13.100  11.061 -0.2013 -0.0559  0.2785
 6935W        W22552   3.748   2.594  13.357  0.4054 -0.0334  0.2202
 6936W        W22553  15.075   9.284   4.668 -0.1301 -0.0326  0.1964
 6937W        W22554   6.871   3.344   4.690  0.2109  0.2389 -0.0589
 6938W        W22555  13.579   6.693   4.575  0.2654 -0.0517 -0.0745
 6939W        W22556   9.932  18.242  12.192 -0.3643 -0.0767  0.2585
 6940W        W22557   1.906  17.842  12.161  0.3989  0.0376 -0.0526
 6941W        W22558   5.540   6.258   1.739  0.0624 -0.1499  0.1958
 6942W        W22559  11.648  16.128   2.098 -0.3617  0.0261  0.1696
 6943W        W22560  13.936  17.024   2.565  0.0794  0.6440 -0.0355
 6944W        W22561  14.247   7.811   3.206  0.0574 -0.0919  0.1479
 6945W        W22562  14.849  12.076   3.525 -0.2318 -0.3591  0.1073
 6946W        W22563  11.150  15.473  14.270  0.4962  0.1638 -0.1797
 6947W        W22564   2.278   4.328   0.479 -0.2116  0.1309 -0.1109
 6948W        W22565   3.761   1.882  11.202  0.0364  0.2446 -0.2335
 6949W        W22566  10.961  11.930  15.090  0.1609  0.2095  0.1798
 6950W        W22567  18.581  13.358  14.303  0.1481  0.4075 -0.2431
 6951W        W22568  18.266   5.348  14.654  0.1102  0.0337 -0.1357
 6952W        W22569   1.035  12.883   2.058  0.1912 -0.2085 -0.2308
 6953W        W22570   0.450   7.214  12.015  0.1717 -0.1485 -0.0063
 6954W        W22571  11.312  19.048   0.894  0.1151 -0.3253 -0.1482
 6955W        W22572   8.433  13.061  12.689 -0.2717 -0.0413  0.1586
 6956W        W22573  18.983   3.524   1.987  0.3889 -0.2171  0.3802
 6957W        W22574  10.510   4.679  11.873  0.0329  0.0571  0.0350
 6958W        W22575  14.930   5.113  13.201 -0.2682 -0.1300  0.1412
 6959W        W22576   5.099   9.788   2.016 -0.1793  0.0741  0.1369
 6960W        W22577   7.046  14.777   1.943  0.1775  0.0223  0.3450
 6961W        W22578   0.769   4.119   2.096 -0.1176 -0.0672  0.0429
 6962W        W22579  12.443  11.106  13.437 -0.1037  0.1934  0.1694
 6963W        W22580  16.905  11.224  13.688 -0.1450 -0.0687  0.2723
 6964W        W22581   9.553   3.274  14.249  0.1459 -0.0941  0.1502
 6965W        W22582  12.582   9.396   5.090 -0.3086  0.0095 -0.2080
 6966W        W22583  10.778  18.817  13.351  0.2484  0.0539  0.0071
 6967W        W22584  18.395  13.297   2.780 -0.3076  0.2156 -0.3617
 6968W        W22585   3.843  14.450   4.792 -0.1300 -0.0751 -0.1782
 6969W        W22586   1.985  17.286  12.321 -0.0605  0.3704 -0.4661
 6970W        W22587   6.445   2.899   9.919 -0.0401  0.2881  0.3054
 6971W        W22588  18.502   7.798   0.219  0.3827 -0.3518  0.0327
 6972W        W22589  18.053   1.687   2.636  0.5348 -0.0070  0.1317
 6973W        W22590  18.445  16.256   4.537  0.1132 -0.2801 -0.0347
 6974W        W22591   9.900  14.223  15.146  0.1542  0.0419  0.1705
 6975W        W22592  14.550   1.451   1.722  0.0029  0.0907  0.0805
 6976W        W22593  16.580   3.414   3.196  0.0385 -0.2317 -0.3716
 6977W        W22594  13.703  13.537   3.879  0.0493 -0.0579 -0.2084
 6978W        W22595   9.895  12.078   0.648 -0.1205  0.0016  0.4430
 6979W        W22596  16.108  10.243   4.704  0.0418  0.1456  0.0540
 6980W        W22597  14.323  13.485  14.472  0.0926 -0.0281 -0.0682
 6981W        W22598   4.934  16.655  10.743  0.5999  0.2147 -0.1006
 6982W        W22599  18.113  16.186  15.286  0.0118 -0.0103  0.2669
 6983W        W22600  11.685   5.720   4.998 -0.0209  0.2151 -0.0155
 6984W        W22601  10.629  16.257  10.842  0.2446 -0.1745 -0.2325
 6985W        W22602   2.227   5.367   1.798  0.0037 -0.0909  0.0500
 6986W        W22603   8.501   0.176   2.265 -0.0152 -0.4051 -0.1814
 6987W        W22604   6.229  10.227   4.621  0.1562  0.0628  0.0215
 6988W        W22605   9.122   0.469   4.849 -0.1189 -0.2511 -0.1651
 6989W        W22606  14.157  17.051  13.171  0.2385  0.0589  0.2007
 6990W        W22607  17.437  13.185  12.999  0.0876  0.1818 -0.1625
 6991W        W22608  12.656  12.498  14.406  0.1867  0.0927 -0.1389
 6992W        W22609  13.018  11.461   4.491 -0.2903 -0.0591  0.0522
 6993W        W22610  11.805  18.156   0.660 -0.2952 -0.2626  0.0007
 6994W        W22611   3.195   0.345   3.920 -0.1119 -0.2208 -0.1486
 6995W        W22612   0.052   9.300   2.669 -0.0476  0.0964 -0.1318
 6996W        W22613   4.767   9.157  11.565  0.3047  0.0617 -0.2661
 6997W        W22614  18.225   3.412  14.405  0.5375 -0.0484 -0.2106
 6998W        W22615  18.611   4.799  12.843 -0.2577 -0.3998 -0.2581
 6999W        W22616   1.920   8.539  13.028 -0.1128  0.7807 -0.0296
 7000W        W22617  12.524  16.399  14.926 -0.2149  0.2622 -0.3354
 7001W        W22618   0.006   3.405   9.546 -0.0315  0.0804 -0.0764
 7002W        W22619  10.318  15.531  13.166 -0.4506  0.3661 -0.0722
 7003W        W22620   9.137  11.736  14.415  0.0991 -0.0431 -0.2393
 7004W        W22621  12.211   7.518   2.580  0.3369  0.3323 -0.0600
 7005W        W22622   1.393   9.250  10.648  0.1048  0.1878 -0.2246
 7006W        W22623   5.270   5.871  13.554 -0.4485  0.0427  0.3704
 7007W        W22624  15.095   0.609  11.295  0.2155 -0.0484  0.0257
 7008W        W22625   3.491   3.758  11.605  0.2000  0.3535 -0.0504
 7009W        W22626   3.584   5.075  10.994 -0.3349  0.0638  0.1472
 7010W        W22627  17.641  18.539  14.779  0.0636  0.3460  0.1743
 7011W        W22628   9.808   8.953   0.443 -0.3005  0.1487 -0.3379
 7012W        W22629  15.808  11.652  12.004  0.0908 -0.3564 -0.2993
 7013W        W22630  14.345   9.225   4.030  0.1854 -0.2934  0.4232
 7014W        W22631   5.627   9.735  12.923  0.3172 -0.0750  0.1084
 7015W        W22632   9.626  16.173   4.678  0.0114 -0.1121  0.1272
 7016W        W22633   7.585  14.831   0.670 -0.0207  0.3271 -0.0133
 7017W        W22634  12.815   6.440   3.057  0.1017 -0.2872 -0.0202
 7018W        W22635   3.956  17.344   9.880 -0.0820 -0.1473 -0.2502
 7019W        W22636   3.164  10.280   3.925 -0.0292  0.0119  0.0337
 7020W        W22637  13.893   8.754  14.506 -0.0882  0.2701 -0.2280
 7021W        W22638   8.923  14.768  14.530 -0.0680  0.2765  0.0362
 7022W        W22639   5.481  18.158   0.355  0.2061  0.1213 -0.1772
 7023W        W22640   2.205  17.463   3.753 -0.1935  0.2478 -0.2896
 7024W        W22641  18.805  11.508  13.176  0.1557 -0.1002 -0.1268
 7025W        W22642  13.215  13.423   3.768  0.3913 -0.0395  0.1162
 7026W        W22643  14.628  12.971   1.870  0.4167 -0.0906  0.3103
 7027W        W22644   4.468   5.829   5.388  0.1650  0.0368 -0.5320
 7028W        W22645  18.796  18.219   1.152  0.3782  0.0973  0.2017
 7029W        W22646  14.172  15.359  10.788 -0.0322  0.1445  0.1223
 7030W        W22647   7.024  10.830   0.075  0.1157  0.0567  0.1235
 7031W        W22648  11.866  14.294   9.698  0.0448  0.0466 -0.2171
 7032W        W22649   4.520   4.806  13.924 -0.1603 -0.1440  0.1501
 7033W        W22650   1.346  18.790  12.072 -0.1159 -0.0219 -0.1495
 7034W        W22651   7.142  17.889   3.660  0.1690 -0.0494  0.1582
 7035W        W22652   5.848   6.482  15.061  0.1403 -0.1446 -0.0000
 7036W        W22653  12.475   0.582   0.386 -0.1582 -0.0254 -0.1019
 7037W        W22654   9.950   5.749   2.603 -0.2377 -0.0963  0.2185
 7038W        W22655  16.122  10.678  10.614 -0.0880 -0.0859 -0.0050
 7039W        W22656  12.217  14.165   4.826  0.2453 -0.0482 -0.0262
 7040W        W22657  10.257   4.176   3.358 -0.1410  0.2562 -0.0869
 7041W        W22658   0.030  12.663  14.931 -0.0614  0.5664 -0.1646
 7042W        W22659   8.976   3.005   2.366  0.2065  0.2456 -0.4624
 7043W        W22660   7.888   8.215  14.707  0.3997 -0.5109 -0.0507
 7044W        W22661   3.112   6.018   1.979 -0.1781  0.1605  0.0598
 7045W        W22662  12.080  18.436   2.682 -0.2221  0.1169 -0.0252
 7046W        W22663   5.346   4.296  15.050 -0.1726  0.0724 -0.4158
 7047W        W22664  15.620  18.692   2.330 -0.2006 -0.0510 -0.0278
 7048W        W22665   7.749   7.883   9.732  0.2619  0.0894 -0.1093
 7049W        W22666   3.159  17.415   9.671  0.3530  0.1330  0.0260
 7050W        W22667   5.578   0.357   4.506 -0.4361 -0.0431 -0.0115
 7051W        W22668  17.235  14.941  12.709  0.0565 -0.1423  0.1598
 7052W        W22669  11.243   5.864   0.392 -0.0516 -0.5668 -0.0064
 7053W        W22670  14.060   2.131  13.350 -0.2522 -0.0209  0.1989
 7054W        W22671   3.346  11.497  14.079  0.1363  0.1588 -0.1926
 7055W        W22672  11.211  18.303   3.554  0.2675 -0.2147 -0.4470
 7056W        W22673   1.036   1.975   1.045  0.3409  0.1075 -0.0332
 7057W        W22674   2.416   0.930   0.108 -0.0885 -0.1482  0.1069
 7058W        W22675  12.801   0.194  14.556  0.3266  0.0957 -0.2212
 7059W        W22676  12.747  16.176   4.940  0.4191 -0.0175  0.0159
 7060W        W22677   8.714  13.454  13.721  0.1005 -0.1038 -0.2007
 7061W        W22678   3.798  16.631   2.171 -0.1429 -0.1717  0.0402
 7062W        W22679   8.156  15.601  12.819 -0.1695 -0.0951 -0.4245
 7063W        W22680  14.666  17.751  11.069  0.3239  0.2258  0.1423
 7064W        W22681  17.016   2.882   2.501  0.2673  0.0068  0.0224
 7065W        W22682  10.175  16.537  14.900 -0.0711 -0.1033  0.0492
 7066W        W22683   3.028  11.555  11.703  0.0098  0.0071  0.0417
 7067W        W22684   8.144   7.388  15.209 -0.0845 -0.2286 -0.1159
 7068W        W22685   6.555   9.900  14.104  0.1834 -0.0908 -0.2127
 7069W        W22686   6.096  11.978   2.995  0.0380 -0.0931  0.3206
 7070W        W22687   0.639  16.760   2.926  0.0685  0.1318  0.1691
 7071W        W22688  11.053   0.559   4.175  0.0875 -0.3171 -0.0784
 7072W        W22689   2.028   1.728   3.934  0.1275  0.4359  0.1016
 7073W        W22690   7.202   1.834  10.264  0.0420  0.1305  0.0564
 7074W        W22691  17.204   3.223   0.655 -0.1213  0.0881  0.1398
 7075W        W22692   3.898   8.969   1.337  0.3153 -0.2120  0.2878
 7076W        W22693   9.298  10.086  11.287 -0.1591  0.1498  0.1547
 7077W        W22694   4.181  18.899   2.875  0.1361  0.1882 -0.1811
 7078W        W22695   3.504  11.942   9.540 -0.1301 -0.1359 -0.1037
 7079W        W22696   0.962  11.303   3.291  0.3547  0.0714 -0.1942
 7080W        W22697  14.481   7.954   0.458  0.0722  0.1293 -0.2008
 7081W        W22698  17.245  17.272  14.497 -0.0802 -0.0249  0.0367
 7082W        W22699  18.224   2.663  11.677 -0.2605 -0.1705  0.1085
 7083W        W22700   6.581  16.461  14.379  0.0598  0.0433 -0.0197
 7084W        W22701   0.888  13.836   2.673 -0.1593 -0.2103  0.1515
 7085W        W22702  18.960   3.093   1.499  0.0260  0.1974  0.1849
 7086W        W22703   3.315   3.019  12.146  0.4644  0.1197  0.1007
 7087W        W22704   2.493   4.145   1.923  0.2375 -0.3059 -0.0761
 7088W        W22705  13.052  13.308  12.994  0.0387  0.0394 -0.1323
 7089W        W22706  15.758   0.931  14.051  0.1530 -0.3069  0.0567
 7090W        W22707   1.128   1.807  13.718 -0.1032 -0.5869 -0.2125
 7091W        W22708   3.406  13.285   3.014  0.0405  0.2952 -0.1587
 7092W        W22709  15.801   2.122   9.665  0.2184  0.0093 -0.3575
 7093W        W22710  17.874  15.478  11.515 -0.3323 -0.2163  0.1341
 7094W        W22711   1.014   4.031  12.745 -0.0483  0.1274 -0.0517
 7095W        W22712  16.739   3.814  14.163 -0.3985 -0.1029  0.3455
 7096W        W22713   0.988  17.375  14.607  0.2446 -0.0099 -0.1239
 7097W        W22714   0.767  10.651   0.724  0.1387  0.0316 -0.0353
 7098W        W22715   7.229  13.320   3.635  0.0207 -0.1310  0.2806
 7099W        W22716  15.722   3.850   1.331 -0.0814  0.1000  0.0777
 7100W        W22717   7.884   3.339  13.938 -0.0382  0.3737 -0.0158
 7101W        W22718  13.776   2.924   4.654 -0.0810  0.2653  0.2016
 7102W        W22719   2.181   1.404   5.129  0.6529  0.1689  0.1382
 7103W        W22720   6.751  15.388   0.943 -0.1764  0.2105  0.1063
 7104W        W22721  16.547   2.153   3.544  0.3545  0.1236  0.1975
 7105W        W22722  18.481  18.022   5.097  0.2496 -0.0949  0.0411
 7106W        W22723  12.939   4.844  12.527 -0.1898 -0.0399  0.0954
 7107W        W22724  17.269   8.734  12.958 -0.0989 -0.2549  0.0084
 7108W        W22725   9.574   8.463  11.910 -0.2626 -0.2381  0.2023
 7109W        W22726   8.876  13.940   1.979 -0.2130  0.0668 -0.2985
 7110W        W22727   7.042  18.215   1.942 -0.1389  0.0296 -0.0189
 7111W        W22728   1.048  12.017  11.805 -0.0328 -0.2001 -0.3349
 7112W        W22729  12.140  14.197  13.838 -0.2928  0.1943 -0.0506
 7113W        W22730  11.655   4.719   3.313  0.2310 -0.3352  0.0745
 7114W        W22731   4.471  13.078  13.499  0.1023 -0.3087  0.1294
 7115W        W22732   7.135   3.703   0.232  0.0574 -0.3111  0.0167
 7116W        W22733   5.819  13.167   3.967  0.1338 -0.0453 -0.2801
 7117W        W22734   2.286   4.056   4.748 -0.3861  0.2205  0.2517
 7118W        W22735   0.540  14.697   4.547 -0.2235  0.0938  0.1506
 7119W        W22736   4.867  11.981   1.150  0.2163  0.2315 -0.0261
 7120W        W22737   2.236  17.751  15.172 -0.0046  0.1214 -0.0830
 7121W        W22738   0.080  15.587   2.157  0.1190  0.1112 -0.1170
 7122W        W22739   3.193   3.492   2.587  0.2481  0.1100  0.0838
 7123W        W22740  10.392  10.797   5.162 -0.0650  0.1330 -0.1267
 7124W        W22741   2.134   5.493  10.920 -0.2107  0.0822 -0.0350
 7125W        W22742  13.878  10.127   3.265  0.2250 -0.2163  0.1647
 7126W        W22743   4.239   9.870  10.741 -0.4150 -0.0946 -0.0126
 7127W        W22744   7.957   6.448  13.801 -0.1659 -0.0338  0.0201
 7128W        W22745  18.837   8.365  11.337  0.0869 -0.1398  0.0041
 7129W        W22746  13.491  10.015  10.646  0.0758 -0.1641 -0.2505
 7130W        W22747  10.789   4.953   0.540 -0.2797  0.0019 -0.0371
 7131W        W22748  11.278   1.279  15.155 -0.1272  0.1944 -0.1516
 7132W        W22749   9.816  10.239   1.731 -0.3255  0.1365 -0.4395
 7133W        W22750  16.629  16.858  15.164 -0.1053  0.0676  0.1938
 7134W        W22751   7.247  15.299   4.216 -0.1504  0.0500 -0.0163
 7135W        W22752   6.089   1.644   0.299  0.2954  0.1832  0.1414
 7136W        W22753   9.745  10.991  15.226 -0.1165 -0.2320  0.2235
 7137W        W22754  14.024   1.871   3.430  0.1818 -0.1202  0.1227
 7138W        W22755  11.913  17.743   2.290 -0.0652  0.1146  0.0449
 7139W        W22756  14.962   1.951   0.469 -0.1341 -0.2100  0.2279
 7140W        W22757  10.262  18.295   9.660 -0.4020 -0.3378  0.2254
 7141W        W22758   4.966  18.462  12.110  0.0171 -0.0658  0.2215
 7142W        W22759   1.483  13.920   0.062 -0.1175  0.1548 -0.1129
 7143W        W22760   8.473  15.335   6.135  0.0694 -0.1143 -0.1113
 7144W        W22761   6.602  16.324  11.372  0.0305  0.2754 -0.0580
 7145W        W22762   7.258  17.873  14.855  0.1756  0.1541  0.0876
 7146W        W22763   9.074   4.357   4.665 -0.1127  0.0595  0.0307
 7147W        W22764   3.419   9.057   0.907 -0.0142  0.0207  0.2815
 7148W        W22765  10.936   3.094  12.946  0.0828 -0.0058 -0.4021
 7149W        W22766   4.015  15.214  13.921  0.1605 -0.0987 -0.0647
 7150W        W22767  18.188   8.302   1.433  0.1254  0.0618  0.0169
 7151W        W22768   4.687  17.461  14.992 -0.1828  0.0294  0.0490
 7152W        W22769  13.658   8.090  14.931  0.0134  0.0137 -0.0231
 7153W        W22770   3.490  19.063  14.028 -0.1114  0.1097  0.1044
 7154W        W22771   9.199   7.479   1.486  0.0014 -0.1891  0.0774
 7155W        W22772   7.750  16.515   9.758  0.0704  0.0380  0.3590
 7156W        W22773  13.381   0.331  14.257 -0.1026 -0.2170 -0.2016
 7157W        W22774  14.521   1.138  14.095  0.0491  0.0532 -0.1140
 7158W        W22775  17.402  18.605  14.368 -0.0812 -0.4731  0.0623
 7159W        W22776   0.609   0.583   0.923  0.2736 -0.2535  0.3980
 7160W        W22777  14.295  13.577  10.660 -0.2343 -0.2589  0.1380
 7161W        W22778   0.820  15.025  12.813 -0.1129 -0.0489  0.0948
 7162W        W22779   5.085   5.364  12.600 -0.1499 -0.0289 -0.0726
 7163W        W22780   8.259   9.511  11.193  0.2645 -0.1407 -0.0501
 7164W        W22781  16.623  15.674   9.365 -0.1311 -0.1199  0.0227
 7165W        W22782  11.616   8.699   1.344 -0.0850  0.0094 -0.2729
 7166W        W22783   5.422  14.969   4.266 -0.0296 -0.1364  0.5702
 7167W        W22784   0.600   5.109   4.033  0.1051 -0.2202  0.0331
 7168W        W22785  13.174   5.184  13.578  0.0294 -0.2285 -0.0385
 7169W        W22786   1.448   1.402  14.399 -0.0446  0.0047 -0.0418
 7170W        W22787   1.757   6.254   2.454  0.1012 -0.1487  0.3359
 7171W        W22788  15.570   4.360   4.128  0.0071  0.5505  0.1396
 7172W        W22789   3.695  11.081  13.418 -0.2040 -0.2280 -0.1263
 7173W        W22790  14.650   7.990  11.091 -0.1915 -0.0429 -0.0058
 7174W        W22791  18.252  18.331  14.623  0.3285 -0.1236 -0.1940
 7175W        W22792   5.529  17.418  13.442  0.0145 -0.1024  0.3063
 7176W        W22793  14.976   7.615  12.610  0.3973  0.2986 -0.0243
 7177W        W22794   6.270  15.337   4.436  0.0091  0.0893  0.0961
 7178W        W22795   5.452   5.823  12.033  0.2265  0.0765 -0.0744
 7179W        W22796   5.204  11.516  14.362  0.0005  0.3726 -0.3516
 7180W        W22797  12.855   1.668   5.395  0.1083  0.1056  0.0993
 7181W        W22798   9.417  17.626   1.713 -0.3027  0.2383 -0.1450
 7182W        W22799   8.781  10.538   5.046 -0.0115 -0.0926  0.1577
 7183W        W22800   5.139  11.154   2.948 -0.2345 -0.0995  0.1812
 7184W        W22801  12.141  15.693  11.948  0.0158 -0.0729  0.0309
 7185W        W22802  10.031  13.011  12.474 -0.0163 -0.3317  0.1291
 7186W        W22803   7.733  11.218   0.297 -0.0902  0.1292  0.1253
 7187W        W22804  11.733  11.483  11.489 -0.1033 -0.2301 -0.3022
 7188W        W22805   8.379   7.720   1.908 -0.2721  0.0288 -0.3597
 7189W        W22806  19.060  13.474  14.218 -0.0357 -0.0482  0.1122
 7190W        W22807  16.075  17.180  11.150 -0.1001 -0.0823  0.0898
 7191W        W22808  14.338   8.397  14.308  0.0028 -0.3352 -0.1893
 7192W        W22809  11.626   2.775   1.839 -0.0049  0.1487  0.0194
 7193W        W22810   2.854   2.803   4.451  0.1181  0.1070  0.2219
 7194W        W22811   0.894  13.611   4.531 -0.2999 -0.0429 -0.1774
 7195W        W22812   5.418  15.184  11.311 -0.0032 -0.2791  0.0359
 7196W        W22813  16.214  18.088  13.114 -0.1498  0.4847 -0.1205
 7197W        W22814  14.063   0.787   5.019  0.2058  0.2195  0.2758
 7198W        W22815   0.786  18.334  11.380  0.0750  0.1079 -0.3161
 7199W        W22816   7.984   0.567  10.818 -0.0641 -0.3993  0.1254
 7200W        W22817  17.218  14.040  13.407 -0.1022 -0.0231  0.0873
 7201W        W22818  10.922   1.340   4.238 -0.0770  0.0724 -0.1185
 7202W        W22819   6.526  11.796  10.646  0.2873 -0.1863  0.2050
 7203W        W22820  11.311  10.179  12.666 -0.3064 -0.3844  0.0482
 7204W        W22821  16.594  16.175  13.523  0.0047  0.1139 -0.0063
 7205W        W22822  14.355   4.607   3.450  0.0489 -0.0405 -0.1862
 7206W        W22823  12.501   2.108  12.490  0.1527 -0.5860  0.0244
 7207W        W22824   5.371  13.310   1.696 -0.1073  0.3518  0.0958
 7208W        W22825  18.051  12.483   0.287 -0.2540  0.0011  0.0701
 7209W        W22826   7.785  14.893  12.436 -0.0098  0.1460  0.1373
 7210W        W22827   9.282  13.427  15.101 -0.1513  0.2685  0.2189
 7211W        W22828  13.639   2.920   4.135 -0.2133 -0.5944  0.1303
 7212W        W22829   2.897  16.091  10.938 -0.2396 -0.2456 -0.0743
 7213W        W22830  10.977   3.019  14.080 -0.1907  0.0443 -0.2288
 7214W        W22831  10.572   3.839  13.295  0.2441  0.3048  0.0069
 7215W        W22832  10.127  12.822   4.645  0.1282  0.3251  0.0008
 7216W        W22833   6.980  10.527  14.356  0.3143  0.1830 -0.0322
 7217W        W22834   2.299  16.625   1.170  0.4208  0.0321  0.1459
 7218W        W22835   7.901   9.124   4.180 -0.0044  0.4376  0.1850
 7219W        W22836  10.679   6.886   0.981  0.0896 -0.2577  0.1580
 7220W        W22837   6.230   2.564   2.721  0.0073 -0.1667 -0.3597
 7221W        W22838   5.077  12.106   0.731  0.1325  0.0359  0.1824
 7222W        W22839   3.646   0.944   2.654  0.1383 -0.1539 -0.0451
 7223W        W22840  13.447   4.557   9.533 -0.2189 -0.1158 -0.0083
 7224W        W22841   0.390   5.197  13.054  0.3557 -0.4484  0.2179
 7225W        W22842  10.688   3.916   2.102 -0.1165  0.1772  0.0291
 7226W        W22843  15.340   6.463  13.876  0.0733 -0.1739 -0.2855
 7227W        W22844   4.158   4.855  13.459 -0.0783  0.1350  0.1856
 7228W        W22845  17.950  15.756   0.935  0.1399  0.1641 -0.1535
 7229W        W22846  14.018  11.978   1.453  0.0793 -0.0506 -0.1951
 7230W        W22847   2.920  14.041   3.391 -0.2646  0.0423 -0.0439
 7231W        W22848   0.111  12.393   2.117  0.1543  0.1786 -0.3226
 7232W        W22849   2.573   2.875   0.113 -0.2406  0.0667  0.1565
 7233W        W22850  13.840  11.373  13.539 -0.2870  0.0347 -0.1716
 7234W        W22851   9.042   1.392   3.410 -0.2900  0.2205  0.3020
 7235W        W22852   4.724  18.311   1.570  0.1041  0.1185 -0.2375
 7236W        W22853  10.834   4.915  11.379 -0.2095 -0.3067  0.3137
 7237W        W22854   7.844   4.302   6.158 -0.2959 -0.1168 -0.1165
 7238W        W22855  18.976   8.812  14.660 -0.0793  0.2690  0.2432
 7239W        W22856   2.484   9.011  13.043  0.2055  0.2134 -0.2827
 7240W        W22857  12.128   7.459  12.376 -0.2606 -0.1210 -0.0412
 7241W        W22858   6.915   2.857  14.744  0.1605  0.1246 -0.2251
 7242W        W22859  17.539   7.073   2.546 -0.1516  0.3210  0.3050
 7243W        W22860   1.656   5.784   0.043  0.0893  0.1688 -0.0421
 7244W        W22861   1.126  10.803   5.485 -0.1072  0.0923  0.0330
 7245W        W22862  17.864  11.489   0.326  0.1143 -0.1728  0.2032
 7246W        W22863  14.755   4.471   4.660  0.0942  0.3050 -0.0842
 7247W        W22864  12.916   8.230  10.715 -0.1638  0.1018 -0.0015
 7248W        W22865  12.724   8.804  13.846  0.1160 -0.1142  0.0001
 7249W        W22866   9.764   3.176   1.298 -0.2234 -0.3131  0.0154
 7250W        W22867  13.996   2.204  10.679  0.1062  0.0282 -0.4090
 7251W        W22868  13.839   8.824   9.581 -0.2062  0.0075  0.3010
 7252W        W22869  18.317  18.931  12.228  0.1603  0.1209 -0.0253
 7253W        W22870  11.215   6.463  10.386  0.0872 -0.2720 -0.0269
 7254W        W22871   1.300   5.015   1.812 -0.0799 -0.0788 -0.1709
 7255W        W22872   6.281   7.628  12.599 -0.0891 -0.0913 -0.0288
 7256W        W22873   9.381  12.909  12.716  0.0905  0.0658  0.1863
 7257W        W22874  15.434   0.358   1.008  0.0639 -0.4040  0.0104
 7258W        W22875   9.267  10.709  13.401  0.2878  0.1161  0.1544
 7259W        W22876   8.850  12.103   3.515 -0.0269  0.0341  0.1281
 7260W        W22877   1.357   0.723   5.035  0.0456 -0.1169  0.1561
 7261W        W22878   7.275  17.728   5.689  0.0280 -0.0520 -0.1149
 7262W        W22879   8.718  12.234   0.448  0.2895  0.0273  0.2572
 7263W        W22880  16.545  17.085  11.303 -0.1623  0.0173  0.3698
 7264W        W22881  15.572  12.148   4.187 -0.1570 -0.0050 -0.0094
 7265W        W22882   5.893  13.836  10.637 -0.0112  0.3493  0.2817
 7266W        W22883  14.924   9.111  12.122  0.2214  0.0019 -0.0162
 7267W        W22884  14.141  11.466   1.472 -0.0564  0.1640  0.0513
 7268W        W22885  12.747   0.327   3.114 -0.0602  0.0364 -0.1208
 7269W        W22886  19.048   3.461   1.047  0.1989  0.0547 -0.0812
 7270W        W22887   4.712   8.008   3.473  0.3780  0.3300 -0.2275
 7271W        W22888  14.053  14.486  11.066  0.1812  0.1048  0.0121
 7272W        W22889  12.194   8.780   1.261 -0.0194  0.0468  0.4468
 7273W        W22890  11.668  15.652   3.971 -0.0953 -0.2496  0.2603
 7274W        W22891   8.151   5.632  11.429 -0.0656 -0.1010 -0.1693
 7275W        W22892   6.400   2.758   1.803  0.1682 -0.1579  0.0236
 7276W        W22893  15.499   4.123  14.592  0.0629 -0.0007  0.6434
 7277W        W22894   2.920  18.481  13.646 -0.2248  0.1186  0.1928
 7278W        W22895  12.361   7.911   2.836 -0.0919 -0.1680 -0.1678
 7279W        W22896   9.512  14.543   5.017  0.0280  0.1436 -0.2807
 7280W        W22897   0.755  17.693  14.057  0.0232 -0.1876 -0.3582
 7281W        W22898   7.379  13.656  14.878  0.1701 -0.0758  0.1873
 7282W        W22899  10.572   5.001   0.089 -0.0474 -0.2372 -0.2086
 7283W        W22900   2.628   3.274   3.806  0.0333 -0.2524  0.1570
 7284W        W22901   6.915  15.625   3.938  0.1545  0.2352 -0.0001
 7285W        W22902  14.911  15.732   1.244 -0.2462  0.0143  0.1635
 7286W        W22903  15.208   9.473  12.944  0.3463  0.3361 -0.0142
 7287W        W22904   5.920  11.006   0.575  0.0393  0.0836 -0.0838
 7288W        W22905  11.060   7.157   1.240 -0.0104  0.2885 -0.1129
 7289W        W22906   8.843   1.492   3.869  0.5269 -0.1473 -0.1647
 7290W        W22907   9.552   0.799  12.104 -0.2134 -0.0218 -0.0319
 7291W        W22908   9.056   9.643   0.255  0.2600  0.0464  0.1736
 7292W        W22909  16.143   9.864  11.380  0.0481  0.2359 -0.0212
 7293W        W22910   9.858   6.878   4.115 -0.2571  0.1317  0.3921
 7294W        W22911   4.563  11.606   4.253 -0.3461  0.1453  0.1041
 7295W        W22912  15.176  17.067  14.192  0.0046 -0.0512  0.0294
 7296W        W22913   2.710   7.460   2.683 -0.5305 -0.0457 -0.1705
 7297W        W22914  15.832  14.927  15.096  0.3660 -0.0897 -0.2701
 7298W        W22915   6.669   1.008  12.860  0.0482 -0.1423  0.1539
 7299W        W22916   7.209  18.557  14.196  0.3437  0.2779 -0.4438
 7300W        W22917   9.840  15.213   5.710 -0.0804  0.0176  0.1879
 7301W        W22918  10.730  18.321  14.857  0.2603  0.0476  0.0560
 7302W        W22919   8.813  11.163   4.726 -0.0947  0.0736 -0.1600
 7303W        W22920  13.869  10.570   4.226 -0.1199  0.3379 -0.0912
 7304W        W22921  14.693  14.377  13.483 -0.1720 -0.1359 -0.1521
 7305W        W22922  15.063  10.044  11.990  0.3116 -0.1422  0.1711
 7306W        W22923  14.762   1.416  14.994 -0.5528  0.1089 -0.1616
 7307W        W22924  12.271  14.193  11.004 -0.0392  0.2593  0.2704
 7308W        W22925   7.925   9.054   9.535  0.1024  0.0583 -0.0840
 7309W        W22926   3.933   5.141  11.880  0.2811 -0.0225 -0.0673
 7310W        W22927  17.327   9.730  11.929  0.0283  0.1564  0.4146
 7311W        W22928   8.523  14.421  10.652  0.3001 -0.2865  0.0497
 7312W        W22929   4.850   3.419   1.484 -0.0698  0.1204 -0.1625
 7313W        W22930   4.247  17.155   2.381 -0.1343  0.4713 -0.1015
 7314W        W22931   2.907   3.859   3.126  0.3680 -0.1104 -0.3403
 7315W        W22932   0.783   8.499   4.073  0.3365  0.0108 -0.0547
 7316W        W22933   4.017  18.494   4.478  0.1508  0.0656  0.1666
 7317W        W22934  10.003   8.266  11.473  0.3655  0.1757  0.2159
 7318W        W22935   4.676   9.684  10.669 -0.0535  0.3775 -0.2334
 7319W        W22936  13.630  14.618   3.003  0.2373 -0.4057 -0.1421
 7320W        W22937   1.955   5.816   4.881 -0.0588 -0.2129 -0.0142
 7321W        W22938  10.801  17.378  11.459  0.1260  0.1377 -0.1025
 7322W        W22939  10.035   6.109  12.581  0.0584 -0.0749  0.1991
 7323W        W22940   6.225   2.887   1.179 -0.0565 -0.1676  0.0602
 7324W        W22941  10.009   7.474  14.799  0.0352  0.1629 -0.6421
 7325W        W22942   2.293  14.010   1.195  0.1706 -0.4650 -0.1608
 7326W        W22943   0.196   6.402   0.341 -0.3397 -0.1058  0.1768
 7327W        W22944  12.987   3.397   3.261  0.3682  0.6122 -0.0837
 7328W        W22945  10.621  16.797  10.007 -0.4262  0.1655 -0.0689
 7329W        W22946   5.025  15.130  12.827 -0.0213  0.0253 -0.1340
 7330W        W22947  16.529   6.414   0.497 -0.2006  0.3766  0.2912
 7331W        W22948  17.281   2.645  14.017 -0.0805  0.1237  0.0437
 7332W        W22949   7.996  12.119   5.322  0.4651 -0.0438  0.1472
 7333W        W22950  10.698   3.405   4.169  0.1093 -0.0921  0.3018
 7334W        W22951  15.120  17.545   0.724 -0.0642  0.1426 -0.2193
 7335W        W22952  16.635   5.816   3.543 -0.0949 -0.2365 -0.1983
 7336W        W22953   8.312  13.388  11.668 -0.0139  0.0397 -0.0074
 7337W        W22954  15.379  15.369   3.156 -0.0057 -0.2049  0.1813
 7338W        W22955  17.346  14.071  12.656 -0.1885  0.1949  0.1592
 7339W        W22956  13.667  18.206  14.067 -0.1517  0.1676  0.2866
 7340W        W22957   2.996   9.949   3.523 -0.1542 -0.0059 -0.0596
 7341W        W22958  15.109  17.099   1.685 -0.0362  0.0257 -0.3244
 7342W        W22959   8.365   6.517   4.004  0.0922 -0.0630 -0.1400
 7343W        W22960  10.155  12.579   0.259  0.0555 -0.1024  0.1315
 7344W        W22961  15.951  15.026  13.323  0.1502 -0.1656 -0.0835
 7345W        W22962   6.112  15.299  11.014  0.4925  0.0057  0.1334
 7346W        W22963  12.120  11.624   2.355  0.1839  0.1993 -0.4378
 7347W        W22964   5.226   9.697  10.807  0.1062  0.0246  0.3227
 7348W        W22965   0.359   8.847   1.468  0.4390  0.4012 -0.1961
 7349W        W22966   7.007   6.383  12.080 -0.1435  0.1481 -0.2648
 7350W        W22967  16.111  11.345  14.180  0.0651 -0.4526 -0.1243
 7351W        W22968  12.416  19.020   4.136 -0.2958 -0.0543  0.0371
 7352W        W22969   5.138   1.840   2.852 -0.1014 -0.2385 -0.3742
 7353W        W22970  10.726   7.572   4.163 -0.0619 -0.2790 -0.0913
 7354W        W22971  16.416   3.561   4.350 -0.0002 -0.2002 -0.0225
 7355W        W22972  15.804   1.885  12.908 -0.0189 -0.1560  0.0995
 7356W        W22973  12.093  18.851  12.683 -0.3195 -0.1309  0.0663
 7357W        W22974  13.944  14.947  12.372 -0.2038  0.2352  0.0562
 7358W        W22975   0.750  15.549   2.854  0.1057 -0.0050  0.2047
 7359W        W22976  12.579   5.066   1.930  0.2131  0.2920  0.2297
 7360W        W22977  18.641   8.087  14.917  0.0829 -0.5863 -0.1476
 7361W        W22978  18.764  11.073   3.700  0.2799 -0.0653 -0.0960
 7362W        W22979   4.311  18.487  11.403  0.0903 -0.2397  0.2746
 7363W        W22980   7.797  14.918  15.033  0.4055  0.1738  0.2999
 7364W        W22981  16.298   8.825   1.276 -0.0178 -0.1821  0.1513
 7365W        W22982   0.447  18.279   2.136 -0.0948 -0.2095  0.2410
 7366W        W22983   4.870  16.220   6.004  0.0733  0.1674  0.1254
 7367W        W22984  17.505  16.637   4.234 -0.0650 -0.2142  0.0464
 7368W        W22985   8.577   2.246  12.241  0.1749 -0.2289  0.0280
 7369W        W22986  14.161   2.938  13.630 -0.2428  0.0230 -0.0055
 7370W        W22987  13.085   1.303   0.259  0.3615  0.1297  0.2752
 7371W        W22988   7.182   6.811   1.743 -0.1379  0.1631  0.1770
 7372W        W22989  16.112   8.459   2.964 -0.2712  0.0120 -0.2330
 7373W        W22990   4.347   7.144   4.144  0.1971  0.2244  0.2566
 7374W        W22991  11.307  18.699  11.116 -0.0078  0.3057 -0.1119
 7375W        W22992   5.081   8.329  11.793  0.1298  0.0641 -0.0724
 7376W        W22993   9.446  17.283   0.263 -0.1478  0.3241 -0.0599
 7377W        W22994  18.106   4.550   0.451 -0.0553  0.0066 -0.0872
 7378W        W22995   3.610  11.904  10.067 -0.2046  0.1896 -0.0262
 7379W        W22996   0.978  10.239  12.238 -0.0524 -0.1286  0.1407
 7380W        W22997  15.553  10.232   3.254 -0.3771  0.0337 -0.0423
 7381W        W22998   2.617  10.557   4.820  0.1326  0.4620  0.1885
 7382W        W22999  18.230   4.686   3.705  0.1325  0.0659  0.1326
 7383W        W23000   3.479  10.124  10.359  0.0627  0.1286  0.1158
 7384W        W23001   5.783   4.443  12.637  0.0792  0.1080  0.4463
 7385W        W23002   1.656  10.526   0.680 -0.2128 -0.1752 -0.2643
 7386W        W23003  18.770  13.872   1.016  0.1479  0.3323  0.0025
 7387W        W23004  15.941  13.378   0.696  0.2989 -0.2079  0.1613
 7388W        W23005  18.381  13.018  11.973 -0.1046  0.0403  0.0304
 7389W        W23006   5.819   6.956  11.637 -0.1952  0.0367 -0.1671
 7390W        W23007   6.812  15.316   1.498 -0.2225 -0.2164  0.0110
 7391W        W23008   5.757  16.668   5.025 -0.1266 -0.1184 -0.2146
 7392W        W23009   6.908  15.603   4.488  0.1798  0.2497 -0.1429
 7393W        W23010   7.074  11.162  10.815  0.0512 -0.2625 -0.0190
 7394W        W23011  11.530  10.644  11.720 -0.2806  0.3462  0.2901
 7395W        W23012   7.705   4.296  14.833 -0.1139  0.0275  0.0976
 7396W        W23013   5.291   2.581  13.556  0.3965  0.0475  0.4761
 7397W        W23014  18.885   4.604  10.560 -0.1253 -0.1832  0.1810
 7398W        W23015   7.106  16.993   1.573  0.1161  0.0925 -0.1752
 7399W        W23016   8.954   9.400  10.393 -0.0990 -0.1456 -0.1004
 7400W        W23017   0.177   4.483  14.378 -0.0055 -0.1650  0.2687
 7401W        W23018  15.993   6.245   1.656  0.0423  0.2437  0.1885
 7402W        W23019  18.977  15.627  10.401 -0.1138 -0.0950 -0.4151
 7403W        W23020   6.854  15.606  13.536  0.1766  0.0593  0.1212
 7404W        W23021   2.757   4.689   3.656 -0.1305  0.2521 -0.4050
 7405W        W23022   3.879  15.371   2.511 -0.0431 -0.1224 -0.0334
 7406W        W23023  11.861   3.215   1.636 -0.0106  0.2607 -0.4631
 7407W        W23024  14.385  10.567   1.633  0.0965 -0.0607  0.2109
 7408W        W23025   6.138  10.690   3.698  0.1526 -0.2445  0.0343
 7409W        W23026   6.652   5.503   0.647  0.0831 -0.0609 -0.3188
 7410W        W23027  12.635  16.688  12.112  0.0823  0.1390  0.2581
 7411W        W23028  15.647   2.084   4.546  0.1019 -0.1485 -0.1867
 7412W        W23029   9.230  18.378  14.674 -0.3282  0.0903  0.4086
 7413W        W23030   6.850  11.872  14.576 -0.2049  0.1133 -0.3231
 7414W        W23031  11.959   7.266   4.140 -0.2322  0.0885  0.0698
 7415W        W23032   7.162  16.308   4.620  0.0726  0.1148 -0.1529
 7416W        W23033  11.358  18.072  13.516 -0.1587  0.1243  0.2989
 7417W        W23034   7.791   9.615  11.240 -0.3069  0.0456  0.0951
 7418W        W23035  12.783  15.053   1.186 -0.0311 -0.2570  0.1893
 7419W        W23036   3.441  12.375   4.948  0.0667  0.2389  0.0756
 7420W        W23037   4.645  16.181  12.816  0.1131 -0.2590  0.1140
 7421W        W23038   8.300  10.991   1.660  0.2706 -0.4113 -0.1365
 7422W        W23039  17.558   0.570  12.006  0.0007 -0.1094  0.0409
 7423W        W23040   5.246   5.839   1.141 -0.3512 -0.3153  0.1530
 7424W        W23041   6.079  13.829   1.754 -0.1233 -0.0986  0.0740
 7425W        W23042   4.971  13.381   3.150 -0.3853 -0.1863 -0.0419
 7426W        W23043   4.152   9.061   0.132 -0.0266  0.2156 -0.0407
 7427W        W23044  14.742  18.598   3.284 -0.1231 -0.2017  0.0218
 7428W        W23045   5.910   7.133  12.632 -0.1005 -0.2432 -0.0009
 7429W        W23046  15.065   4.976   0.337  0.0920  0.0494  0.4716
 7430W        W23047   7.148  18.069  13.154 -0.3550 -0.0250 -0.0068
 7431W        W23048  13.101  16.370   1.485 -0.1922  0.0867 -0.1690
 7432W        W23049   2.044  15.045  12.682  0.1704 -0.0998 -0.1136
 7433W        W23050  15.033  12.561  11.073 -0.1739  0.1498 -0.0118
 7434W        W23051   2.301  16.864   1.669 -0.2502 -0.2495 -0.2020
 7435W        W23052  15.990  17.779   2.160  0.2502 -0.1531 -0.1876
 7436W        W23053  18.873  14.552  14.871 -0.1541 -0.0566 -0.3641
 7437W        W23054   8.183   1.355   1.679 -0.1358 -0.1080  0.1403
 7438W        W23055   0.887   0.659  14.724  0.3177 -0.3037  0.1030
 7439W        W23056   9.836   6.461   1.835 -0.1476 -0.0760 -0.2873
 7440W        W23057   2.669   5.545   3.325 -0.0741  0.1535 -0.1556
 7441W        W23058   5.522  10.066   4.083 -0.2991  0.1062  0.0135
 7442W        W23059  12.604  16.337   5.408 -0.2523 -0.2405  0.1363
 7443W        W23060  10.858  11.166   2.315 -0.2480 -0.1014 -0.0010
 7444W        W23061  17.913   5.460   3.320 -0.1132 -0.0039  0.1059
 7445W        W23062  17.052   0.010   1.463 -0.1322  0.0049  0.1338
 7446W        W23063   8.175  18.480  15.190 -0.3525 -0.1509  0.3210
 7447W        W23064   1.689   2.987   5.131  0.1367 -0.0487  0.2078
 7448W        W23065  16.517   0.017   0.644 -0.0301 -0.2554 -0.0187
 7449W        W23066   1.790  16.238   2.391  0.0551  0.1631 -0.2068
 7450W        W23067  10.496  10.143   2.989  0.1546  0.1049 -0.0267
 7451W        W23068   4.695   1.967   1.058 -0.4096 -0.0416  0.2766
 7452W        W23069   3.694   9.988  10.869  0.0269  0.0324  0.1386
 7453W        W23070   5.703   7.506   2.767 -0.0634  0.4697  0.0578
 7454W        W23071  10.190  18.314   4.219  0.1173 -0.0794 -0.1178
 7455W        W23072   4.110  13.542   2.408 -0.2899  0.1505  0.0369
 7456W        W23073  18.812   1.079  11.377  0.0287 -0.1125  0.1904
 7457W        W23074   5.954  13.301  15.156 -0.0357 -0.0734 -0.2692
 7458W        W23075   0.561   0.270   3.339  0.0776  0.1159  0.1771
 7459W        W23076   5.196   9.444   3.240  0.4463 -0.2098  0.2033
 7460W        W23077  17.605  14.012  15.270  0.0553 -0.1954  0.3025
 7461W        W23078   3.339   9.749  12.303  0.0052 -0.0915  0.2163
 7462W        W23079  11.525   3.050  14.150  0.2798  0.1016 -0.0975
 7463W        W23080   9.444  13.670  10.244  0.1696  0.0552  0.0096
 7464W        W23081   2.383  12.122   2.793 -0.0196  0.3470 -0.0603
 7465W        W23082  13.257   3.064   9.454 -0.1512  0.1919  0.1161
 7466W        W23083   7.689  16.950   0.216 -0.0061 -0.1545  0.2933
 7467W        W23084  18.776  12.384   2.513 -0.1606 -0.0850 -0.2388
 7468W        W23085   7.653   9.835   2.745  0.1481  0.1203  0.1509
 7469W        W23086   6.500  18.329  13.686  0.1237  0.1171 -0.0082
 7470W        W23087   2.589   6.175   0.610 -0.2930 -0.3286 -0.1286
 7471W        W23088  18.718   4.903   5.826 -0.1456  0.2738 -0.0223
 7472W        W23089   3.976   2.912  12.946 -0.1121  0.1437  0.3157
 7473W        W23090  15.864   7.259   1.983 -0.3117  0.0474 -0.0175
 7474W        W23091   9.594   3.967   3.278 -0.0335  0.2046 -0.2056
 7475W        W23092   9.597   1.950   2.789  0.2268 -0.0813  0.0834
 7476W        W23093   9.231  12.074  13.682  0.0301 -0.3335 -0.1893
 7477W        W23094  13.914  10.893  13.516 -0.3301  0.0474  0.1498
 7478W        W23095  15.289  10.271  13.991 -0.0892 -0.2082  0.0565
 7479W        W23096   1.227  18.824  14.767 -0.3148 -0.1022  0.0760
 7480W        W23097   2.794  18.729  11.501  0.3537  0.1738 -0.0266
 7481W        W23098  15.279   6.780  10.945  0.1532  0.0882  0.3472
 7482W        W23099   0.252   3.216   2.034  0.2047  0.0798  0.2697
 7483W        W23100   7.515  10.788   2.518  0.0664  0.1905 -0.0634
 7484W        W23101   5.689  18.229   2.562  0.1472  0.0375 -0.1344
 7485W        W23102   5.741   9.740  10.984 -0.1042 -0.2699  0.3618
 7486W        W23103  17.845  14.541  10.197 -0.1742  0.2058  0.0037
 7487W        W23104  11.285  18.646   2.509  0.1142 -0.0458  0.2807
 7488W        W23105   8.807   5.999  13.953  0.0265 -0.1222 -0.0857
 7489W        W23106  11.258  14.640   3.150 -0.0309 -0.1811 -0.1085
 7490W        W23107  10.977   0.494  14.086  0.1390  0.5429 -0.3202
 7491W        W23108  14.743   8.782  11.226  0.2274 -0.0158 -0.0104
 7492W        W23109  17.157   8.020   3.358 -0.0786  0.0673  0.0126
 7493W        W23110   5.083   3.776   5.504  0.0787 -0.2921  0.1098
 7494W        W23111  17.260  17.977   3.818 -0.0456 -0.1236 -0.1513
 7495W        W23112   0.649   1.136   9.918 -0.4321 -0.3886  0.0627
 7496W        W23113  16.924  15.934  12.329  0.1804 -0.4248  0.0901
 7497W        W23114  15.462  16.128   3.552  0.2869  0.2105  0.1599
 7498W        W23115  10.853   2.784   0.128 -0.1394 -0.0092  0.1815
 7499W        W23116  15.007  10.562   2.484  0.0626  0.1251  0.1712
 7500W        W23117  13.484  14.572  12.767  0.1489 -0.2391  0.1661
 7501W        W23118   9.596  13.414   3.008  0.0980  0.5000 -0.0821
 7502W        W23119  10.574   6.885  14.954 -0.0195 -0.3345 -0.1646
 7503W        W23120  16.908  18.839  13.945  0.1023 -0.3203 -0.0182
 7504W        W23121  15.684   6.112   1.185 -0.0289  0.0803 -0.1528
 7505W        W23122   4.240  13.897   0.068  0.4126 -0.0627 -0.2152
 7506W        W23123   9.385   5.371  12.672 -0.1778 -0.1752  0.1064
 7507W        W23124   3.068   8.413   3.186  0.1348 -0.0419 -0.0795
 7508W        W23125  10.206   5.944   5.115 -0.1898 -0.0228  0.2847
 7509W        W23126  18.415   7.635  12.285 -0.1550 -0.5004 -0.4168
 7510W        W23127   2.569  18.700   1.208 -0.1538 -0.1439  0.0299
 7511W        W23128  17.243   5.512  15.098 -0.1783 -0.2041  0.1330
 7512W        W23129   7.517   5.439   1.080  0.3587 -0.0673  0.3138
 7513W        W23130  13.323  13.534  12.456  0.1621  0.0865 -0.1558
 7514W        W23131  12.301  15.665  12.607  0.3361 -0.1774 -0.1483
 7515W        W23132  10.463  19.003  13.706  0.0728  0.1384  0.2609
 7516W        W23133   9.078   8.089   3.078  0.1717 -0.1275  0.2754
 7517W        W23134   6.652  14.280   1.197  0.1873 -0.0081 -0.2277
 7518W        W23135   8.197  12.950   2.878 -0.1659  0.1732  0.1977
 7519W        W23136   8.834   9.487  12.145 -0.0227 -0.1602 -0.1862
 7520W        W23137   3.222   6.785   2.855  0.0865  0.1962  0.0684
 7521W        W23138  15.708   9.101   0.149 -0.2656  0.1077 -0.1615
 7522W        W23139  11.503   0.505  10.367  0.0149 -0.1280  0.1386
 7523W        W23140  16.031   7.493  15.180 -0.1686 -0.2554 -0.1221
 7524W        W23141   1.644   3.010  14.501 -0.4731 -0.0511 -0.4118
 7525W        W23142   7.230   7.047   9.933  0.0251  0.0869 -0.0543
 7526W        W23143   0.868   3.729   0.717 -0.0065  0.1892  0.2788
 7527W        W23144   0.457   2.053   3.953 -0.0810 -0.1101  0.0511
 7528W        W23145  13.067   6.689  10.278  0.3243  0.0051  0.0176
 7529W        W23146   6.359   6.718  13.366 -0.0361 -0.0842 -0.4882
 7530W        W23147  11.751  14.111  11.771 -0.1371  0.1256  0.0027
 7531W        W23148  12.204   3.549   5.266 -0.2511  0.3245  0.0253
 7532W        W23149   3.207  13.374  10.555 -0.0461 -0.1222  0.2132
 7533W        W23150  12.179  12.185   2.422 -0.3817 -0.0585 -0.1008
 7534W        W23151   9.427   1.324  12.170  0.2581  0.0296  0.1712
 7535W        W23152  18.989   3.599   3.015 -0.0369  0.1845  0.1259
 7536W        W23153  11.997  15.102   3.963  0.0893 -0.1000 -0.1633
 7537W        W23154  13.786   7.806   3.177  0.0199  0.1701 -0.1260
 7538W        W23155  17.728  12.525  10.528  0.0020  0.0409  0.2220
 7539W        W23156  18.172  17.464  11.102  0.0210  0.0986  0.0977
 7540W        W23157  12.431   5.414   3.437  0.0062  0.3188  0.0181
 7541W        W23158  14.554  17.916   2.685  0.2770 -0.1142  0.1923
 7542W        W23159   8.917   5.552  12.647  0.2027  0.0233 -0.1762
 7543W        W23160  18.229   5.858   4.624 -0.0143 -0.0792  0.0462
 7544W        W23161   6.735  17.453  13.816 -0.0461  0.1454 -0.1499
 7545W        W23162  15.876   2.712   0.531 -0.1061 -0.1058  0.1424
 7546W        W23163  19.033   1.012   2.686  0.3698  0.3990 -0.1384
 7547W        W23164  16.766   4.702   3.099 -0.0671 -0.1635 -0.1142
 7548W        W23165  12.465  18.160  10.642 -0.0229 -0.3241 -0.3981
 7549W        W23166  10.010   1.500  10.313  0.3016 -0.0461  0.0855
 7550W        W23167  10.729  15.699  11.593 -0.2199 -0.2978  0.2879
 7551W        W23168  11.233   4.272   4.468  0.0044 -0.0810 -0.0098
 7552W        W23169   3.876   8.855  12.587  0.2559  0.0166 -0.0666
 7553W        W23170  15.837   2.399   1.771 -0.2039 -0.2528  0.3262
 7554W        W23171   0.314   5.418   4.781 -0.3918  0.2159 -0.2490
 7555W        W23172  10.778   9.348  13.201  0.1867  0.0700 -0.2163
 7556W        W23173  17.956  14.900  15.246 -0.0670  0.0153  0.0439
 7557W        W23174  12.887   8.744   5.447 -0.1215  0.0001 -0.3503
 7558W        W23175   4.749   9.079   0.830  0.0214  0.0203  0.3457
 7559W        W23176  19.040   0.446  12.826 -0.2726  0.2154 -0.0188
 7560W        W23177   1.888  15.975   2.851  0.2685 -0.1260 -0.1539
 7561W        W23178  17.907  10.024   0.346  0.1193  0.5682 -0.0458
 7562W        W23179  14.146   7.889  14.856  0.0277  0.1690 -0.0346
 7563W        W23180  17.557  13.734   2.373 -0.2055 -0.4338  0.2138
 7564W        W23181  15.214  18.903   3.866 -0.1142  0.0801  0.1434
 7565W        W23182   4.278   6.020  14.361  0.1416  0.0814 -0.1269
 7566W        W23183  18.786  17.804   0.330 -0.1524  0.0953 -0.4446
 7567W        W23184   7.568   3.356  15.252 -0.1235 -0.2787 -0.1219
 7568W        W23185   2.775   4.706  12.904 -0.2394  0.3005 -0.0654
 7569W        W23186   7.460   6.417  14.464  0.0636 -0.3893  0.2475
 7570W        W23187  16.294  18.454   5.350  0.0543  0.2357  0.1557
 7571W        W23188   2.915  12.184  11.599  0.1658 -0.0401  0.0173
 7572W        W23189  16.999   8.755   2.021 -0.0869  0.0360  0.0635
 7573W        W23190   8.875  13.533  11.541  0.3007 -0.1719  0.1577
 7574W        W23191   3.293  11.336  12.062 -0.2879 -0.0732 -0.3398
 7575W        W23192   7.773  17.927   4.922 -0.0500 -0.0247 -0.3114
 7576W        W23193  11.828   8.365  14.128  0.1190  0.2632  0.1244
 7577W        W23194  18.802  10.335   4.939 -0.0927  0.1843 -0.0908
 7578W        W23195  11.148   1.210  13.031  0.1635 -0.1173 -0.1085
 7579W        W23196  15.972  15.043  13.867 -0.3574  0.1252 -0.0790
 7580W        W23197   8.815  12.156   4.035 -0.0394  0.4653 -0.2810
 7581W        W23198   6.262  18.384   1.508 -0.2120 -0.0954  0.0335
 7582W        W23199   7.291   0.005   2.288 -0.2381  0.1255  0.2195
 7583W        W23200  10.604   6.098  10.489  0.0706  0.0190 -0.1563
 7584W        W23201   7.976   5.725  12.894  0.0969 -0.2906  0.1484
 7585W        W23202   6.666  16.346  13.788  0.1687 -0.1478 -0.1313
 7586W        W23203  18.759  16.885   0.352  0.1503  0.1725 -0.1288
 7587W        W23204   5.845  10.145  14.111  0.1475  0.5242  0.0412
 7588W        W23205   6.834  14.385  12.378  0.1267  0.0058  0.0670
 7589W        W23206  15.751   1.693  11.412 -0.2081  0.4073  0.1989
 7590W        W23207  14.057   6.159   0.124  0.3099  0.3653 -0.1164
 7591W        W23208   1.727  15.137  14.808 -0.2116  0.1189 -0.2778
 7592W        W23209  10.263  14.919   2.322  0.0537  0.0917 -0.0564
 7593W        W23210   2.850   5.461   1.952 -0.0506 -0.1859 -0.1374
 7594W        W23211  17.282  18.696   3.543 -0.0626  0.2978 -0.1040
 7595W        W23212  11.201  13.793   0.074  0.1005 -0.0179 -0.0318
 7596W        W23213  13.336  12.189   2.112 -0.5261  0.0595  0.1148
 7597W        W23214   0.374   1.013   4.532 -0.3230 -0.3693  0.2235
 7598W        W23215  16.730   4.942   1.846 -0.0491 -0.4220  0.1808
 7599W        W23216   6.905   6.678  12.894 -0.1651  0.1356 -0.2328
 7600W        W23217   5.116  16.863  14.636  0.1140  0.0292 -0.0706
 7601W        W23218   2.328   3.535   1.006  0.1253 -0.1590 -0.0945
 7602W        W23219  13.522   0.705   2.497 -0.0905  0.1255  0.0768
 7603W        W23220  10.391  15.091   5.405  0.3502  0.1319  0.0514
 7604W        W23221   8.868   4.752  12.458  0.0054 -0.1956  0.1291
 7605W        W23222   6.002   6.514   3.030 -0.1353 -0.2879  0.1495
 7606W        W23223   0.951   7.412  11.654  0.0557 -0.1074 -0.4513
 7607W        W23224  17.306  11.027   1.641 -0.0195  0.0428 -0.0783
 7608W        W23225  14.108   0.156   3.166 -0.0647  0.2950 -0.0087
 7609W        W23226   1.013   2.253   2.109 -0.0571 -0.2716 -0.0297
 7610W        W23227   5.778  11.391  13.370  0.2086 -0.0833 -0.0060
 7611W        W23228  17.175   8.405  13.652  0.2630  0.1098  0.1903
 7612W        W23229   6.991   9.683   1.967  0.0193 -0.0058  0.5312
 7613W        W23230   3.805   6.537   4.897 -0.1546 -0.2448  0.0148
 7614W        W23231   1.412   5.955  11.737 -0.2029  0.0215  0.0272
 7615W        W23232  11.823  14.626   4.181 -0.0463  0.1935  0.0848
 7616W        W23233   4.475  14.981   5.733 -0.2311  0.1071 -0.1959
 7617W        W23234   6.964   1.368  10.410  0.4896 -0.2782 -0.0505
 7618W        W23235  11.629   7.006   4.912 -0.2128  0.1854 -0.1999
 7619W        W23236   0.955   9.987   2.978  0.2976 -0.0787  0.2135
 7620W        W23237   4.042  16.878   0.344  0.3265 -0.0837 -0.3170
 7621W        W23238   8.494   8.355  11.974 -0.0837  0.0470  0.0565
 7622W        W23239  11.724   4.432   1.963 -0.0070  0.0347  0.2628
 7623W        W23240   1.394   3.636  13.824 -0.0539 -0.1284  0.1474
 7624W        W23241  12.741  13.712   0.784  0.0646  0.1528  0.0483
 7625W        W23242  11.411   2.433   3.910 -0.0512  0.3739  0.1284
 7626W        W23243  14.281  10.145   5.696 -0.1332  0.1082  0.1193
 7627W        W23244  11.186   7.513   4.290 -0.2621  0.0721 -0.0402
 7628W        W23245   9.122   3.785   4.370  0.0600 -0.1107 -0.1564
 7629W        W23246  10.864   3.076   4.516  0.2596 -0.0246 -0.0337
 7630W        W23247  17.712   0.949  12.366 -0.0413  0.0368 -0.0848
 7631W        W23248   3.397  18.244   2.754  0.0762  0.1961 -0.1142
 7632W        W23249  15.067   0.443  12.025  0.3754 -0.1135  0.3028
 7633W        W23250  13.935   1.119   3.095 -0.0541 -0.2338 -0.1595
 7634W        W23251  17.272  11.812   3.875 -0.2458  0.0018 -0.0262
 7635W        W23252  13.698   3.488  10.931  0.1129 -0.0150  0.3413
 7636W        W23253   1.072  13.168   5.230  0.3652 -0.3433  0.0731
 7637W        W23254   1.453   9.321  14.597  0.0692  0.3072  0.0964
 7638W        W23255  16.548   8.539  12.464  0.0064 -0.1042 -0.0268
 7639W        W23256  11.543  18.514   3.910 -0.0308  0.1806  0.0754
 7640W        W23257  10.185   0.720   4.599 -0.3979 -0.4100  0.1832
 7641W        W23258   3.327   3.439  14.056 -0.0471  0.0163  0.2057
 7642W        W23259   8.660   9.587  10.827 -0.0648  0.2102 -0.2288
 7643W        W23260   2.819   8.208  12.165  0.1443  0.3370  0.3636
 7644W        W23261   8.371  17.975   1.842  0.2406  0.0511  0.0863
 7645W        W23262   2.944  18.896   5.129  0.0383  0.1001  0.2148
 7646W        W23263   9.774  15.465   0.739  0.1158 -0.2656 -0.0140
 7647W        W23264   1.634   5.404   2.128 -0.1925  0.0213  0.0168
 7648W        W23265   4.539   6.629  10.892  0.1923  0.1193  0.0272
 7649W        W23266  14.658   4.633   3.845 -0.0246  0.0058 -0.0814
 7650W        W23267   5.769   0.542   0.632 -0.2401  0.1678  0.2540
 7651W        W23268  11.542  16.593  11.032 -0.0565  0.3155 -0.2162
 7652W        W23269   7.368  13.056   0.047 -0.1048  0.2022  0.0670
 7653W        W23270   1.858  14.307   1.105 -0.0920 -0.0048  0.3078
 7654W        W23271  13.435   6.796  10.783 -0.3595  0.2115  0.0050
 7655W        W23272   5.773  15.245  12.502 -0.1998  0.0402  0.0971
 7656W        W23273   9.840  17.677   2.024  0.1232  0.0154 -0.4543
 7657W        W23274   3.579   7.797   3.147 -0.0926  0.1608 -0.0998
 7658W        W23275  10.004  17.357   5.359  0.0843 -0.1577 -0.4713
 7659W        W23276   1.283  17.773  14.580 -0.4736 -0.3778 -0.0094
 7660W        W23277   7.872  12.146  13.907 -0.5521  0.2586  0.1622
 7661W        W23278   6.343   9.461  15.201  0.0744 -0.0948 -0.2072
 7662W        W23279  17.128   4.412  11.535  0.3534 -0.3574 -0.0775
 7663W        W23280   8.050   0.307  14.288  0.2781 -0.0553 -0.1505
 7664W        W23281  12.498   7.617  13.262  0.2945 -0.0145  0.2599
 7665W        W23282   9.621  16.077   0.127  0.0423 -0.0225  0.1679
 7666W        W23283  17.940   5.479  12.047 -0.0267  0.0384 -0.0356
 7667W        W23284   9.640  16.677  12.492 -0.0753 -0.2113  0.1640
 7668W        W23285  11.144   9.530   4.762 -0.1061 -0.2733 -0.1305
 7669W        W23286  18.571   2.855   3.505 -0.1618  0.0735 -0.1453
 7670W        W23287  16.281   1.756  13.684  0.4456  0.3591  0.0072
 7671W        W23288   9.007   8.626   4.405  0.1801 -0.0134  0.2565
 7672W        W23289   1.172  10.697   2.448  0.0756 -0.2458  0.0867
 7673W        W23290  16.522  18.551   3.815 -0.1318 -0.0811 -0.2202
 7674W        W23291  18.485  15.210  12.854 -0.2500  0.0890 -0.0125
 7675W        W23292  11.674   2.619  13.928  0.0520  0.3627 -0.1437
 7676W        W23293  15.639  12.526  10.529  0.0534 -0.1074  0.2226
 7677W        W23294   3.837  13.525  13.174  0.3334 -0.3596 -0.3591
 7678W        W23295  13.908   7.331   3.239 -0.0530  0.0821 -0.0640
 7679W        W23296   6.043  13.999   0.532 -0.0118  0.1487 -0.0745
 7680W        W23297  16.796   3.888  10.680 -0.0902 -0.2164  0.0419
 7681W        W23298   1.076   8.648  12.844  0.2413 -0.0738 -0.0198
 7682W        W23299   4.933  18.675  14.859  0.1421 -0.2859  0.3565
 7683W        W23300   1.774  10.046   1.480  0.3125 -0.0922  0.1569
 7684W        W23301   1.872  12.490   3.594  0.2293  0.1020  0.1820
 7685W        W23302  12.182  11.809   4.291  0.3185 -0.1779  0.1962
 7686W        W23303   6.204   8.676   2.942  0.2057  0.4317 -0.1651
 7687W        W23304  11.971  17.537  11.676  0.2189 -0.1859  0.1121
 7688W        W23305   4.396   6.258   2.146  0.0190 -0.0240  0.1589
 7689W        W23306  10.803  18.525   0.855  0.1963 -0.0110 -0.3779
 7690W        W23307  13.531   6.266  11.029  0.1099 -0.2263 -0.1096
 7691W        W23308  14.597  12.552   1.513 -0.1066 -0.0696 -0.0418
 7692W        W23309   6.808   8.070  12.136  0.2344 -0.0348  0.0673
 7693W        W23310   0.602   6.182   1.747 -0.2118  0.0360 -0.0594
 7694W        W23311   7.941  11.585  11.181 -0.5663  0.0593  0.2870
 7695W        W23312   3.685  14.706   9.967  0.1241  0.0263 -0.2627
 7696W        W23313   9.325   4.680   5.413  0.1583 -0.2698 -0.0480
 7697W        W23314  13.242  11.264  10.848 -0.1787  0.2994  0.0255
 7698W        W23315  13.284   8.683  11.846  0.1315 -0.1399  0.2815
 7699W        W23316   5.812   4.872   1.465 -0.1631  0.1596 -0.1551
 7700W        W23317  16.273  11.759  13.182  0.0290 -0.0764 -0.1573
 7701W        W23318  10.004   2.775   4.047 -0.3159  0.1042 -0.0913
 7702W        W23319   5.367   9.346  12.446 -0.4808 -0.2774  0.2688
 7703W        W23320  13.194  16.050  14.449  0.1522 -0.0069 -0.1779
 7704W        W23321   3.215  10.901   1.374  0.0620 -0.1978  0.0132
 7705W        W23322   0.727  10.155   0.534  0.1137 -0.0314  0.0430
 7706W        W23323   3.205   4.832  14.290  0.0310  0.0681 -0.1556
 7707W        W23324  14.826   8.547   2.958 -0.1656  0.3910 -0.1768
 7708W        W23325   3.336   3.903   5.612  0.1687  0.0386 -0.0632
 7709W        W23326   5.054   6.854   5.269 -0.1779  0.4404 -0.0428
 7710W        W23327  12.790   0.300  13.135  0.4549  0.3028  0.1238
 7711W        W23328  17.230   7.047   0.730  0.1720  0.1501  0.1194
 7712W        W23329   9.416   6.904   2.211 -0.0601  0.0888  0.2118
 7713W        W23330  10.333  14.217  13.895  0.2785  0.0979 -0.0202
 7714W        W23331   2.528  11.914   3.611 -0.2324  0.2665  0.0200
 7715W        W23332   9.392  14.497   2.068  0.0124  0.0167  0.4669
 7716W        W23333  16.436  11.258  13.407 -0.0978  0.0044 -0.0667
 7717W        W23334  12.481   6.660  13.916  0.1268  0.1502 -0.0107
 7718W        W23335   6.089  17.928   0.749 -0.2258 -0.2801 -0.2067
 7719W        W23336   8.358   3.155   0.174  0.0994 -0.0316  0.1995
 7720W        W23337  13.539  14.961   3.407 -0.0777 -0.4363  0.1559
 7721W        W23338   7.589   9.765   2.256 -0.0407 -0.2034  0.2679
 7722W        W23339   9.460  17.011  13.186  0.1358 -0.0278 -0.0293
 7723W        W23340  17.600  13.586  14.966 -0.2265 -0.0575  0.2084
 7724W        W23341   7.432   8.925  12.739  0.0066  0.1096 -0.1555
 7725W        W23342   0.366  11.408  14.946 -0.1100 -0.0943 -0.1003
 7726W        W23343   5.438   0.945   5.502  0.0096 -0.3156  0.4921
 7727W        W23344   5.899  19.020   0.005 -0.3227  0.1263 -0.0904
 7728W        W23345   6.085  15.926  15.216 -0.2120 -0.1097 -0.0175
 7729W        W23346   5.452  12.912   3.665 -0.1391  0.1781 -0.1952
 7730W        W23347  16.326   5.227  13.516  0.2138 -0.2456 -0.1471
 7731W        W23348  18.329  18.037   4.620  0.0320  0.1178 -0.4532
 7732W        W23349  11.099   4.479  10.049 -0.0725  0.3986 -0.0601
 7733W        W23350  13.042  17.628   2.118  0.0537  0.1177 -0.5600
 7734W        W23351   3.195  13.122   4.526 -0.2449  0.0977 -0.0893
 7735W        W23352  17.930   4.168  11.861  0.3805 -0.1920 -0.0173
 7736W        W23353   9.965   3.936   2.748  0.1871 -0.3547 -0.1390
 7737W        W23354  17.906  14.433  14.051  0.1068  0.1123 -0.4411
 7738W        W23355   8.748   6.358  10.569 -0.0398  0.0512 -0.1625
 7739W        W23356   7.642   9.953  14.905  0.3490  0.2466 -0.1781
 7740W        W23357  13.366   6.646   1.397  0.0132 -0.1181  0.0392
 7741W        W23358   6.600   6.670   0.823 -0.2014  0.1013 -0.0428
 7742W        W23359  18.354  15.655  15.112 -0.0717  0.3077 -0.1173
 7743W        W23360  13.238   3.028   3.008 -0.1788 -0.0895  0.0745
 7744W        W23361  11.855   0.343   2.824  0.1989  0.1257  0.0150
 7745W        W23362   1.633   0.905   2.094 -0.1522  0.2944 -0.4279
 7746W        W23363  10.872  10.252  13.070  0.2295  0.1861  0.0453
 7747W        W23364  16.281   8.548  11.935 -0.3664  0.1274  0.0237
 7748W        W23365  13.615  12.958   4.400 -0.2315 -0.0217  0.0695
 7749W        W23366   9.760  18.384  12.842 -0.0509  0.1132  0.2423
 7750W        W23367   1.826   5.824   2.849 -0.1899  0.0286 -0.2464
 7751W        W23368  10.725   2.460   5.067  0.1342 -0.1684  0.1023
 7752W        W23369   6.404  12.296   2.825  0.2170  0.1321 -0.1800
 7753W        W23370  16.526  15.354   2.001  0.0148 -0.3405  0.3079
 7754W        W23371   4.510   2.354   5.447 -0.0701 -0.1116  0.3611
 7755W        W23372   4.088   3.970  15.179  0.0280  0.1645 -0.1153
 7756W        W23373   8.551   1.205   1.930  0.1064 -0.2497  0.5257
 7757W        W23374  10.039  15.029   0.922 -0.3463  0.0141  0.2738
 7758W        W23375   9.018   0.129   2.369 -0.1166 -0.3805  0.0627
 7759W        W23376   4.645   8.640  11.538 -0.4090 -0.0346  0.3058
 7760W        W23377  13.594   0.922   0.380 -0.2370  0.0647  0.1026
 7761W        W23378  18.746  11.891   2.771  0.3120 -0.1573  0.2744
 7762W        W23379  18.546  10.456  15.176  0.1609  0.1687 -0.2687
 7763W        W23380  18.662  12.939   5.032  0.0929 -0.1961  0.0215
 7764W        W23381   1.566   6.284  13.103 -0.4822  0.2759  0.2756
 7765W        W23382   5.676   7.031  11.169  0.3496 -0.2479 -0.0670
 7766W        W23383   5.160   0.532  13.574  0.1123  0.1266  0.0005
 7767W        W23384   2.462  11.969   2.152  0.2145 -0.0312  0.3937
 7768W        W23385   7.048   3.156  13.231  0.1358 -0.2923 -0.0547
 7769W        W23386  15.165  10.780   0.711 -0.1335 -0.1472  0.0449
 7770W        W23387  12.090   8.516  12.323 -0.3091 -0.1923 -0.0080
 7771W        W23388   1.036   8.369  13.831  0.3550 -0.0555  0.2245
 7772W        W23389   3.835   7.536   5.818 -0.1813 -0.1051 -0.1579
 7773W        W23390   9.686  18.479   3.604 -0.2950 -0.2288 -0.3150
 7774W        W23391  15.942   5.707   4.169  0.2553  0.2126 -0.2672
 7775W        W23392   0.561  10.370  10.425  0.4731  0.2149  0.0106
 7776W        W23393  10.258   5.509   0.641 -0.1905  0.3765 -0.1525
 7777W        W23394   7.670   4.856   2.824 -0.1375 -0.0994  0.2810
 7778W        W23395  16.330   6.851   4.295 -0.0644 -0.1474  0.0445
 7779W        W23396  17.379   5.485   1.642 -0.2906 -0.0883 -0.3551
 7780W        W23397   1.595  11.636  14.049  0.1559 -0.1218 -0.0292
 7781W        W23398  13.350   0.879  10.960 -0.0066  0.0421 -0.1576
 7782W        W23399  13.298  16.351  10.339 -0.3603  0.0137  0.1237
 7783W        W23400  15.023  11.662  13.270  0.1994  0.3066 -0.2966
 7784W        W23401  10.506  16.015   0.887 -0.0107  0.2884 -0.1609
 7785W        W23402   0.852   7.335  12.218 -0.1553  0.0464  0.1121
 7786W        W23403  10.263  12.338  11.732 -0.2309  0.3805  0.1368
 7787W        W23404  17.297   2.257   3.569  0.0049  0.0430  0.0804
 7788W        W23405  18.627  19.060  14.083 -0.3572 -0.0306  0.0717
 7789W        W23406   8.204  15.004  13.587 -0.1665 -0.1997  0.0749
 7790W        W23407   3.747   7.105   1.258  0.0603 -0.2006 -0.0117
 7791W        W23408  14.526   9.341  14.717  0.2456 -0.1795 -0.0791
 7792W        W23409  13.552  14.874   2.606  0.0971  0.0697 -0.0022
 7793W        W23410   7.470   0.424   2.102  0.0958 -0.0127  0.2471
 7794W        W23411   7.417  10.843   3.830 -0.5907 -0.0865 -0.1201
 7795W        W23412   7.404   7.020   3.049 -0.4360  0.2409 -0.1136
 7796W        W23413   8.250  15.408   3.339 -0.0360 -0.4285 -0.0380
 7797W        W23414  16.044   2.864   3.422  0.3867  0.0979  0.2637
 7798W        W23415   6.170  15.187  14.623 -0.1815 -0.0490 -0.1713
 7799W        W23416  13.635  17.267   4.200  0.0286 -0.2599  0.2739
 7800W        W23417  14.936  16.336   1.130  0.0434 -0.0326  0.0571
 7801W        W23418   9.437  18.323  11.763  0.0955 -0.1289 -0.1863
 7802W        W23419   9.241  16.602  15.031  0.0337  0.2234  0.0997
 7803W        W23420  18.901  15.151   3.580  0.1699 -0.0130 -0.1747
 7804W        W23421   9.091   4.327  12.206 -0.0866 -0.0936  0.0123
 7805W        W23422   0.276  18.798   3.540  0.1638 -0.0241 -0.3984
 7806W        W23423   4.166  15.783  12.633  0.5206 -0.2229 -0.1808
 7807W        W23424  13.245  10.502  12.388 -0.0013 -0.2879 -0.1902
 7808W        W23425   9.892   2.738   4.645 -0.0363 -0.1208  0.1489
 7809W        W23426   2.791  13.475  11.452  0.0666  0.3812 -0.2076
 7810W        W23427  13.282  17.621  13.067 -0.0224 -0.1266  0.0075
 7811W        W23428  10.138  16.775   2.092  0.0577  0.0583  0.5815
 7812W        W23429   0.704  13.267   1.826  0.3315 -0.1936 -0.0701
 7813W        W23430  16.973   7.174   4.516 -0.1762 -0.1205  0.4013
 7814W        W23431  12.490  12.322   0.022 -0.2949  0.5626 -0.4095
 7815W        W23432  15.465   5.738  11.694  0.3589 -0.4048  0.0272
 7816W        W23433  10.049  10.550   0.902 -0.0865 -0.0357  0.0361
 7817W        W23434  13.545  12.319   2.970 -0.0523  0.0006  0.0364
 7818W        W23435   9.110  13.432   2.839 -0.0365  0.2001  0.2690
 7819W        W23436   4.485   6.492  14.504 -0.4130  0.1817  0.0293
 7820W        W23437  12.254   2.911   0.892 -0.0405 -0.1553  0.2002
 7821W        W23438  17.318  11.524  11.437  0.0299  0.1535 -0.2870
 7822W        W23439  18.719   8.005   2.527  0.1593  0.1516  0.0965
 7823W        W23440   4.496  12.645  13.254 -0.1809 -0.0092  0.0663
 7824W        W23441   5.875  13.625   2.268  0.1366  0.0956 -0.0149
 7825W        W23442  10.932   9.900   3.568 -0.0324 -0.0880 -0.0850
 7826W        W23443  17.116  17.075   1.112  0.3484 -0.4184  0.1494
 7827W        W23444   0.445   6.300  14.187  0.0723  0.1396  0.1997
 7828W        W23445  14.452  17.148  10.781 -0.0175 -0.1395 -0.1195
 7829W        W23446  12.522   1.993   0.348 -0.4377  0.0357  0.3631
 7830W        W23447  15.396  14.109  11.212 -0.2061 -0.1221  0.3322
 7831W        W23448   3.899  18.043  11.584 -0.2405 -0.2160  0.2351
 7832W        W23449   2.787   9.363  13.456  0.4094 -0.1431 -0.3667
 7833W        W23450   3.871  15.461   3.951  0.0901  0.0580 -0.0506
 7834W        W23451  18.656  13.613   2.461  0.0429 -0.0417  0.1595
 7835W        W23452   2.631  10.284  11.444  0.0362  0.0335 -0.1236
 7836W        W23453   7.756   6.792   4.841  0.4407  0.1691 -0.1202
 7837W        W23454   2.572  17.355  12.566 -0.2596  0.3951  0.2889
 7838W        W23455   0.147  10.622   2.999 -0.1498 -0.2707 -0.2275
 7839W        W23456  16.587  14.704   4.887 -0.0224 -0.0181 -0.0213
 7840W        W23457   5.325   8.298  15.251  0.2665 -0.0082  0.1784
 7841W        W23458  14.887   0.443  14.636  0.0368 -0.0361 -0.2341
 7842W        W23459  13.721   1.881  12.088  0.3347 -0.0072 -0.0535
 7843W        W23460  10.191   5.773   0.215  0.2517 -0.3176  0.0421
 7844W        W23461  11.126  15.778  13.408  0.2080 -0.3114  0.0724
 7845W        W23462  13.345   5.592  13.768 -0.3243 -0.1406 -0.0195
 7846W        W23463  12.809   9.787  12.743 -0.1371  0.1857 -0.2766
 7847W        W23464  11.954  18.305   4.712  0.1473 -0.3689 -0.0825
 7848W        W23465   4.147  13.148  12.733 -0.4856  0.1793 -0.2494
 7849W        W23466  16.421  14.489  15.062 -0.3227 -0.1379 -0.0195
 7850W        W23467   0.634   6.372  10.986  0.2034  0.1071  0.2375
 7851W        W23468  16.254   1.368   4.747  0.0012 -0.0947 -0.0635
 7852W        W23469   5.599  16.011  11.610 -0.2578 -0.1428 -0.1408
 7853W        W23470  13.660   2.711  15.090 -0.2331  0.0081 -0.3296
 7854W        W23471   4.344  18.616  13.087 -0.1954  0.0241  0.2459
 7855W        W23472  16.299   7.856  13.247  0.0251 -0.1035  0.0160
 7856W        W23473  15.593   0.964  11.280 -0.3488  0.2985 -0.4802
 7857W        W23474   8.812  14.961  12.432  0.2887 -0.2773  0.1502
 7858W        W23475  14.599  16.149   4.340  0.2176 -0.3134  0.1887
 7859W        W23476   8.917   9.356   9.635 -0.1445  0.1182  0.0980
 7860W        W23477   8.804   5.407   2.234 -0.0988  0.1026 -0.1134
 7861W        W23478  12.751   0.770   1.472 -0.0548  0.0003 -0.0540
 7862W        W23479   9.400   6.993   2.679 -0.1286 -0.3942 -0.1681
 7863W        W23480  17.582   1.023   1.532 -0.2990  0.2610  0.0161
 7864W        W23481   1.038  13.152   4.685 -0.4691 -0.0570  0.1052
 7865W        W23482  17.700  10.225  12.355 -0.2271 -0.2394  0.1378
 7866W        W23483   9.465  10.873   3.647 -0.2656  0.3101  0.0986
 7867W        W23484   6.945  18.919   5.276  0.0167  0.1018  0.1851
 7868W        W23485  12.470   3.632  10.328 -0.1121 -0.1087  0.2727
 7869W        W23486  13.051   8.788  14.776 -0.0300 -0.1907 -0.1452
 7870W        W23487   2.705   5.912  11.853 -0.0926  0.0273  0.1717
 7871W        W23488   0.231  18.049  14.489 -0.0213 -0.1480 -0.1196
 7872W        W23489   1.057   2.470  12.428 -0.1400 -0.2999  0.0247
 7873W        W23490   6.475  11.703  11.214 -0.0263 -0.3508 -0.0328
 7874W        W23491  17.566   5.945   4.177 -0.0707 -0.3108 -0.3383
 7875W        W23492  13.448   3.966   5.024  0.1123 -0.0797  0.0282
 7876W        W23493  13.697   9.603   1.885 -0.1445 -0.0579  0.2872
 7877W        W23494   5.452  10.148   1.939 -0.2321 -0.2043  0.0218
 7878W        W23495  19.038   6.263   4.366 -0.3859  0.0749  0.3076
 7879W        W23496  18.552  10.763  12.358 -0.1581  0.0564  0.0048
 7880W        W23497  12.989   6.899   3.401  0.0325 -0.0119  0.1684
 7881W        W23498  13.053  10.990   0.162  0.0942 -0.0864 -0.0166
 7882W        W23499  18.829   6.529   4.789  0.3362  0.0850 -0.2000
 7883W        W23500  17.090   8.209   1.165 -0.0977 -0.1177 -0.2501
 7884W        W23501  15.852   1.556   3.452  0.0340  0.1718  0.0816
 7885W        W23502  17.003  11.479  14.144  0.0944 -0.0739  0.2829
 7886W        W23503   9.912  10.404  14.718 -0.1321  0.1936 -0.2870
 7887W        W23504   7.853   6.248  12.939  0.0478 -0.1052 -0.0732
 7888W        W23505   6.268   1.786   4.331  0.2665 -0.1007  0.1270
 7889W        W23506   8.429  16.963   1.839 -0.0538  0.0646 -0.1759
 7890W        W23507   7.620   0.198  10.822 -0.1973  0.4707  0.1172
 7891W        W23508   8.683  16.644   5.723 -0.1569  0.1914  0.0708
 7892W        W23509   0.463  15.003  15.099  0.0041  0.1152  0.0322
 7893W        W23510  16.928  17.007   4.335 -0.0642 -0.2700  0.0494
 7894W        W23511   8.808  17.026  12.952  0.0917 -0.1263 -0.0708
 7895W        W23512  14.826  16.188  11.647  0.0023 -0.2622  0.1160
 7896W        W23513   2.231   8.695  11.932 -0.1652  0.1930  0.0199
 7897W        W23514  10.581  17.045  14.196  0.1459  0.2787  0.0358
 7898W        W23515  15.212  12.275  10.197 -0.0366  0.0234 -0.5103
 7899W        W23516   5.272  11.039   5.679  0.0586 -0.0466  0.2297
 7900W        W23517   6.982   9.456  13.619 -0.1836 -0.2819  0.2521
 7901W        W23518   2.485  15.653   3.447  0.0025 -0.0398 -0.1196
 7902W        W23519   5.344   7.105   2.740 -0.1659  0.3150  0.1879
 7903W        W23520  11.860   7.893  13.911 -0.0858  0.2337  0.1936
 7904W        W23521  10.936  12.001  10.223 -0.1581 -0.1562 -0.0330
 7905W        W23522  18.536  19.005   1.936  0.0250 -0.0852 -0.1286
 7906W        W23523  17.743  13.123  14.916  0.2625 -0.0435  0.1286
 7907W        W23524   5.434   2.296   5.520  0.0168  0.1468 -0.2781
 7908W        W23525   3.454   2.153  13.282 -0.0699 -0.1083  0.0238
 7909W        W23526   9.883  13.060  12.012 -0.0067 -0.0341  0.1323
 7910W        W23527  16.143   0.298  13.543 -0.0054  0.3831 -0.1430
 7911W        W23528   7.976   6.349  12.083  0.1505  0.1862  0.3546
 7912W        W23529   8.934   6.346   4.947 -0.1924  0.1570 -0.1278
 7913W        W23530   7.477   3.463   1.565 -0.3221 -0.0264 -0.1009
 7914W        W23531  16.699   2.565  12.022  0.1588  0.1304  0.2446
 7915W        W23532   2.746   4.183   1.135 -0.1248 -0.1522  0.0159
 7916W        W23533  11.556  12.417   3.804 -0.1377  0.2306  0.0208
 7917W        W23534   8.583   7.204   1.703  0.1808  0.0513  0.1430
 7918W        W23535   2.866  12.705   2.320 -0.1242  0.1859  0.0755
 7919W        W23536   9.808  12.222  11.495 -0.1611  0.4075 -0.2207
 7920W        W23537   7.973   5.718   4.453  0.3056 -0.2739  0.0784
 7921W        W23538  13.712  13.667  11.024  0.3191  0.1242 -0.1159
 7922W        W23539  17.084  15.063  13.178  0.1308  0.0716  0.0209
 7923W        W23540  11.527   9.374   3.449 -0.2716 -0.1248  0.3052
 7924W        W23541   4.480  11.650  12.032 -0.1055  0.2714 -0.1313
 7925W        W23542  16.182   3.840  12.004 -0.1641  0.1095  0.4290
 7926W        W23543  18.493  11.617   2.375  0.1819  0.2408  0.0512
 7927W        W23544  18.182   4.882   4.652 -0.2700 -0.0717  0.3262
 7928W        W23545   5.309  14.405   3.512  0.1028 -0.1836  0.1083
 7929W        W23546   0.508  18.657   2.598 -0.2601 -0.1359  0.1625
 7930W        W23547   5.313   7.444  11.201  0.2940  0.0138 -0.1552
 7931W        W23548  12.527  13.076  14.867 -0.2533  0.2208  0.1728
 7932W        W23549   2.501   1.552  12.380 -0.2269  0.2406 -0.0442
 7933W        W23550   6.554  18.053  14.515  0.0081  0.2755 -0.2060
 7934W        W23551  15.463   0.215   3.959 -0.2355 -0.3311 -0.0665
 7935W        W23552  17.203   9.135  12.744 -0.0325  0.2475  0.1975
 7936W        W23553   0.628   5.941  10.722 -0.2461 -0.3065  0.2287
 7937W        W23554   9.068   5.151  12.305 -0.0488 -0.3339  0.1868
 7938W        W23555  18.252   1.778  11.291 -0.1498 -0.1980  0.1355
 7939W        W23556  10.604   8.945   2.937 -0.0400 -0.2018  0.1828
 7940W        W23557   9.452   5.572  11.472 -0.0289 -0.0869 -0.0632
 7941W        W23558  16.875   8.282   9.293 -0.0060  0.0980 -0.0077
 7942W        W23559  11.912   7.727   0.341  0.0087  0.0516  0.2194
 7943W        W23560   7.274   2.494   5.488  0.1806  0.0448 -0.1029
 7944W        W23561  18.369   9.658  13.639  0.0682 -0.0356 -0.1543
 7945W        W23562   6.748   8.884   1.966 -0.2669 -0.1265 -0.1447
 7946W        W23563   9.842   1.269   1.217 -0.4044  0.2848  0.0191
 7947W        W23564  12.965   0.598  12.661  0.0581 -0.0471  0.1458
 7948W        W23565   9.839   6.298  13.230  0.1463  0.0362 -0.1638
 7949W        W23566  17.379  15.030  13.584 -0.2576 -0.0569 -0.0059
 7950W        W23567  18.305  11.885  11.803  0.1202  0.3157 -0.3402
 7951W        W23568  11.241   0.044  12.403 -0.0016 -0.3413 -0.2256
 7952W        W23569  18.220  18.415  13.004  0.0869  0.0834 -0.2563
 7953W        W23570   7.643   5.360   2.871 -0.0320 -0.1405  0.0831
 7954W        W23571  14.631  14.986   4.634  0.0648 -0.0290 -0.0962
 7955W        W23572  14.253   7.695  13.064  0.0567 -0.1070 -0.4816
 7956W        W23573  13.479   0.919  13.212  0.2653  0.1199 -0.0035
 7957W        W23574   3.777   4.793   0.493 -0.1001 -0.0418  0.0755
 7958W        W23575  10.602   8.750  14.482 -0.0166  0.3920 -0.1783
 7959W        W23576  10.654   9.134   0.250  0.2356 -0.1279  0.1556
 7960W        W23577   1.030   9.530  12.871  0.3625  0.0969  0.0334
 7961W        W23578   6.888   6.141  12.715 -0.0939 -0.0815  0.5461
 7962W        W23579   1.405   1.054   0.902 -0.4641  0.0538 -0.0676
 7963W        W23580  15.788   2.919  14.845 -0.0385  0.1245  0.1295
 7964W        W23581   6.515  10.866   4.546  0.1828  0.2083  0.0703
 7965W        W23582   6.032  10.253   4.136  0.2255 -0.0664 -0.0146
 7966W        W23583  17.025   6.202  14.715  0.5242 -0.0085  0.1088
 7967W        W23584   3.705  11.245   2.151 -0.0549  0.0404  0.0832
 7968W        W23585   3.037   0.094  12.245 -0.2479  0.0004  0.1428
 7969W        W23586   5.616   9.534  13.786 -0.0141 -0.1856 -0.1541
 7970W        W23587   7.168   3.453   3.569 -0.3716  0.2885 -0.0805
 7971W        W23588   2.088   5.326   2.363 -0.1152 -0.0008  0.3724
 7972W        W23589  14.981  14.969  14.106 -0.1143 -0.0161  0.4255
 7973W        W23590  17.220  12.538   2.354  0.1000 -0.3604  0.0298
 7974W        W23591  14.675  10.440   5.861  0.1777  0.0560  0.4626
 7975W        W23592  10.795  18.671  15.202 -0.0832 -0.0067  0.0874
 7976W        W23593   1.802  12.139  12.424  0.1694  0.4103  0.0605
 7977W        W23594   3.193   7.765   5.178 -0.1422  0.0852  0.0168
 7978W        W23595   0.580  16.707   4.405 -0.3877  0.0327  0.1452
 7979W        W23596  11.449   0.460   0.769  0.0984  0.0665 -0.0638
 7980W        W23597   7.107  14.753   4.882  0.0774  0.3665  0.2131
 7981W        W23598  15.672   0.071  11.853  0.1621  0.0910  0.1337
 7982W        W23599   5.869  12.730   3.344 -0.2903 -0.2144 -0.2256
 7983W        W23600   4.470  14.867  11.494 -0.1562 -0.0198 -0.0819
 7984W        W23601  13.845   5.002  15.002  0.3728  0.1439  0.1754
 7985W        W23602  14.223  17.796   1.825 -0.0202 -0.2231  0.1427
 7986W        W23603  14.662  10.089  12.358 -0.1933 -0.2096 -0.1145
 7987W        W23604   8.067   2.645   0.824 -0.3290 -0.0261 -0.1689
 7988W        W23605   0.445   0.755   5.404  0.1932  0.2122 -0.1941
 7989W        W23606  14.567  12.306  12.662 -0.2277 -0.0057 -0.3058
 7990W        W23607   9.861  16.212  10.352 -0.2188 -0.0802  0.0237
 7991W        W23608   5.852   0.585   5.233  0.0317  0.2425  0.0950
 7992W        W23609   3.647   7.576   1.003  0.2683  0.0885 -0.2264
 7993W        W23610  10.232   0.560   2.228  0.0958 -0.3322  0.1026
 7994W        W23611   2.860   4.262  14.338  0.2982 -0.2042 -0.1693
 7995W        W23612  10.112   9.919  14.395  0.0128 -0.2178  0.0418
 7996W        W23613   8.796  17.976   0.544 -0.1753 -0.0830 -0.1744
 7997W        W23614   9.729   4.996   1.164  0.1315  0.0290 -0.0726
 7998W        W23615   5.414   4.895   1.782  0.1297  0.0042  0.1988
 7999W        W23616  18.508  10.297  12.782 -0.1732  0.2996 -0.3359
 8000W        W23617   1.065  16.789   4.199 -0.2783 -0.0065 -0.1755
 8001W        W23618   0.459  13.560   0.967  0.1734 -0.0164 -0.1381
 8002W        W23619   4.378  12.560   4.590 -0.0390 -0.0647  0.1714
 8003W        W23620   9.474   5.300  12.063 -0.1618 -0.0581 -0.1402
 8004W        W23621   6.508  15.614   3.679  0.5170  0.3065  0.0199
 8005W        W23622  15.539   4.672  12.075  0.0147 -0.0846  0.0182
 8006W        W23623   6.434  11.592   3.126 -0.2609 -0.2088 -0.0694
 8007W        W23624   0.275  16.915  12.586 -0.3324  0.0926 -0.1888
 8008W        W23625  12.074   9.302  14.072  0.0323  0.0296  0.2996
 8009W        W23626  12.516   4.509  10.631  0.1632  0.1614  0.2493
 8010W        W23627  12.762  17.302  11.118  0.2041  0.1705 -0.0113
 8011W        W23628  13.248  16.340   4.215 -0.1009  0.2883  0.0057
 8012W        W23629   9.607   8.694  14.219  0.1691 -0.2158 -0.0689
 8013W        W23630  18.091  13.581  11.326  0.2788 -0.0876 -0.0909
 8014W        W23631   7.511   1.460   4.479  0.0240  0.0703  0.0790
 8015W        W23632  18.398   5.548  14.044  0.0698  0.2148 -0.0847
 8016W        W23633  10.086   9.317  10.895  0.2790  0.5118 -0.1690
 8017W        W23634  16.730   7.185   4.014  0.1973 -0.0257  0.2592
 8018W        W23635   5.270   5.894  10.199 -0.0977 -0.3435  0.3939
 8019W        W23636   8.313  10.405  13.649  0.0879  0.1770  0.2167
 8020W        W23637   8.329   3.422   1.908  0.2088  0.2247 -0.2309
 8021W        W23638  14.889   6.771  12.481 -0.1196  0.0869  0.3986
 8022W        W23639  11.025   4.639  14.362 -0.1038 -0.0900 -0.2614
 8023W        W23640   5.274   7.600   0.461 -0.1032 -0.1387  0.0912
 8024W        W23641   9.912   1.656  13.950  0.1276 -0.1975 -0.0751
 8025W        W23642   3.163  11.041  13.313  0.1341  0.0332 -0.0767
 8026W        W23643  16.982  17.748   0.687  0.0896  0.0396  0.4947
 8027W        W23644   3.574   2.894   1.853  0.0278  0.1589  0.1606
 8028W        W23645   6.589   0.809   9.652 -0.2363 -0.0591 -0.1580
 8029W        W23646   1.083   6.002   1.997  0.3362 -0.0045 -0.1298
 8030W        W23647   4.426  12.713   1.274  0.4238  0.1300 -0.4707
 8031W        W23648  12.118   5.387   0.591  0.1341  0.0218  0.2194
 8032W        W23649   7.655   5.687  12.401 -0.2800  0.1374 -0.0193
 8033W        W23650  16.478   8.987  10.960  0.0442  0.1961  0.1903
 8034W        W23651   9.689  19.059  14.023 -0.0305  0.1215 -0.0525
 8035W        W23652   1.934  11.488   4.407  0.0200  0.2252  0.1713
 8036W        W23653  11.778  17.432   6.221  0.1510  0.0287  0.1523
 8037W        W23654  17.029  10.647  14.920 -0.0301 -0.1117  0.2232
 8038W        W23655   1.880  18.739  11.829  0.0728 -0.3396  0.2207
 8039W        W23656  15.203   4.733  15.129 -0.0432 -0.0143  0.2201
 8040W        W23657  16.830  14.222   4.428  0.0321 -0.2012 -0.1088
 8041W        W23658  18.835  15.759  10.926  0.0649 -0.1926 -0.2064
 8042W        W23659  15.558   7.917  13.097  0.0680 -0.1187 -0.1453
 8043W        W23660  10.134  17.456   1.225  0.1442 -0.3345 -0.2711
 8044W        W23661   7.523   7.879   2.810  0.0567 -0.0829 -0.1190
 8045W        W23662  15.462  15.474  10.781 -0.2945 -0.1121 -0.3571
 8046W        W23663   3.611  11.348  10.859  0.0254 -0.1313  0.1018
 8047W        W23664   4.791  11.565  12.799 -0.0065  0.0164 -0.1831
 8048W        W23665   0.941   6.050  11.263 -0.1254 -0.4054  0.2428
 8049W        W23666   5.526   6.614   1.189 -0.1233  0.0918 -0.0759
 8050W        W23667   0.508   4.259   3.744  0.0975  0.2597 -0.1967
 8051W        W23668   4.953   8.821   1.844 -0.4086 -0.0261 -0.3382
 8052W        W23669   9.279   3.898  11.705 -0.1256 -0.3981 -0.2400
 8053W        W23670  14.267   1.629  14.130  0.0900  0.0912 -0.5906
 8054W        W23671   5.374  13.557   0.254 -0.1662  0.0545 -0.0823
 8055W        W23672   6.341  12.178   5.571  0.1671 -0.0890  0.2182
 8056W        W23673   6.393  12.261  11.928 -0.0699 -0.2812 -0.3915
 8057W        W23674  14.502   7.417   1.171  0.0301 -0.1051  0.2505
 8058W        W23675   7.156  15.662   2.787  0.0755  0.0778  0.0321
 8059W        W23676  13.127   6.948   2.753 -0.0457  0.2001 -0.0363
 8060W        W23677   7.023   2.973   3.695 -0.1662 -0.2743 -0.0259
 8061W        W23678   4.220   2.617   0.122  0.0761 -0.0015  0.3618
 8062W        W23679   6.921   9.367   3.137  0.2176  0.0379  0.2860
 8063W        W23680   8.308  15.031  14.513 -0.1588  0.1722  0.1863
 8064W        W23681  13.637  10.390  12.632  0.2942  0.0800 -0.1981
 8065W        W23682  12.572   6.916  10.394 -0.1083 -0.4194  0.1050
 8066W        W23683  18.877  12.804   4.361 -0.1233  0.1659 -0.1122
 8067W        W23684   8.934  11.564  10.968 -0.1443  0.0813 -0.0694
 8068W        W23685   5.398   7.873   5.012  0.0746 -0.0507 -0.2165
 8069W        W23686  11.637  15.850  11.768  0.3092 -0.3169  0.2384
 8070W        W23687   6.221   8.649   5.614 -0.2577 -0.2171 -0.1910
 8071W        W23688   6.509  14.031  14.027  0.5574 -0.0493  0.1269
 8072W        W23689   9.823  13.971  10.964 -0.0381 -0.0085  0.1683
 8073W        W23690  11.167   0.561   5.203  0.1611  0.0453  0.1381
 8074W        W23691   3.375   6.235   5.027 -0.2227 -0.1164  0.0655
 8075W        W23692   5.504  10.469   1.509 -0.0820 -0.2559  0.4934
 8076W        W23693  11.620   1.610   2.459 -0.0606  0.2140  0.0413
 8077W        W23694   4.269   6.226  12.581  0.0186  0.0760  0.1475
 8078W        W23695   1.536   8.864   2.333 -0.1553  0.0330  0.0286
 8079W        W23696   5.259   7.250   4.923  0.6002  0.1731  0.1550
 8080W        W23697   3.144  10.508  14.120 -0.0422 -0.0758 -0.1307
 8081W        W23698   6.058   7.743   4.641 -0.0741  0.0563 -0.0140
 8082W        W23699   0.553   2.714  13.721  0.1225  0.1892 -0.2223
 8083W        W23700   2.214   8.546  14.237  0.0036 -0.1581 -0.0629
 8084W        W23701  13.867  10.337  14.296  0.0596 -0.0470  0.0644
 8085W        W23702  18.252   7.920  13.978  0.0921 -0.1846 -0.2640
 8086W        W23703   4.279  17.281   0.004  0.3665  0.0495  0.3456
 8087W        W23704   5.023   1.810  10.976  0.2300  0.1005 -0.2567
 8088W        W23705  12.689   4.752  10.253 -0.1217  0.2707  0.0403
 8089W        W23706  13.825  13.514   0.690 -0.0433 -0.0802 -0.0668
 8090W        W23707  15.819  12.021  12.330 -0.1406 -0.1892 -0.1404
 8091W        W23708   5.712   8.465   1.276  0.0192 -0.0636  0.0008
 8092W        W23709   9.041  14.748  13.346  0.0397  0.1290  0.1314
 8093W        W23710  16.247   1.190   4.217 -0.1479  0.1717 -0.0467
 8094W        W23711  16.820   8.612  14.405 -0.2012  0.3245  0.2188
 8095W        W23712   8.605   0.823  12.499 -0.0776  0.1013 -0.0376
 8096W        W23713  14.618  13.779   0.428 -0.1855  0.0426 -0.3087
 8097W        W23714   9.678   8.847  12.131  0.1787 -0.1978  0.4034
 8098W        W23715  11.934  12.607  13.057  0.1421  0.1062 -0.1882
 8099W        W23716   0.493   5.795   5.480 -0.0945 -0.2105 -0.1724
 8100W        W23717  19.012  11.675  10.302 -0.0771 -0.1010 -0.0502
 8101W        W23718   4.060   5.160  12.373  0.0576 -0.0267 -0.1586
 8102W        W23719  19.044   6.734   2.669 -0.3803 -0.0591 -0.0103
 8103W        W23720  10.798   9.602   3.181 -0.1359 -0.1498  0.0846
 8104W        W23721   1.446   6.995  15.215  0.0857 -0.2176  0.1513
 8105W        W23722  16.945  11.882   2.523  0.0858 -0.1129  0.0844
 8106W        W23723  14.521   0.742   5.246 -0.0399  0.1286  0.0492
 8107W        W23724  13.919   7.727   1.834  0.0694 -0.0375 -0.0977
 8108W        W23725   2.363   4.031   5.268  0.2052 -0.0820  0.1464
 8109W        W23726   8.169   2.812  11.787 -0.0509 -0.0503 -0.0078
 8110W        W23727  13.157   7.662  10.773 -0.0990 -0.1960 -0.3546
 8111W        W23728   0.887   5.525   4.831  0.0759 -0.0438  0.3619
 8112W        W23729   3.942  12.744  12.463  0.4350 -0.1399  0.0842
 8113W        W23730   1.616   2.719   3.174  0.1284  0.1380  0.2890
 8114W        W23731  12.596  11.116   1.695 -0.1364 -0.2092 -0.0145
 8115W        W23732   4.495   7.960   4.692  0.0218 -0.0081 -0.1981
 8116W        W23733   5.943   7.144  14.948  0.0020  0.3263 -0.3653
 8117W        W23734   5.416  12.586  14.901  0.2228 -0.0173 -0.2386
 8118W        W23735  18.579  12.624  14.027 -0.3172  0.0266  0.1386
 8119W        W23736  15.427  18.135   1.495 -0.1693  0.1103  0.0221
 8120W        W23737   6.753   4.561  12.628 -0.3595  0.0773 -0.3416
 8121W        W23738   5.427   7.941  12.931 -0.1034 -0.4978  0.1696
 8122W        W23739  11.322   1.371  12.238 -0.1507  0.0316  0.1104
 8123W        W23740   7.762  16.871   5.069 -0.1762  0.1323  0.1798
 8124W        W23741  13.133   7.712   1.964 -0.1825  0.1099 -0.5399
 8125W        W23742  16.482  19.051  10.522  0.0975 -0.0105 -0.0357
 8126W        W23743   6.952   7.708   5.534 -0.0611 -0.2721  0.1449
 8127W        W23744  18.037   4.480  12.254  0.0969  0.1382 -0.2428
 8128W        W23745   2.936  16.214  14.316 -0.1063  0.0189 -0.1668
 8129W        W23746   2.407   8.296   2.325 -0.1623  0.1174 -0.2728
 8130W        W23747   3.800  18.194   0.117 -0.2633  0.3931 -0.6041
 8131W        W23748   7.014   4.491  13.091  0.1647 -0.1397 -0.1996
 8132W        W23749  13.020  12.521   0.736  0.1606 -0.3342  0.0083
 8133W        W23750  11.781  13.764  13.121  0.1151  0.0212  0.0486
 8134W        W23751  13.653   5.278   2.109 -0.0434  0.0623 -0.1782
 8135W        W23752  11.483  12.748  13.236 -0.0934 -0.0838  0.3283
 8136W        W23753  17.479   6.069  12.541  0.0710 -0.3448  0.0045
 8137W        W23754   6.990   2.569  14.136 -0.1944  0.0274 -0.2085
 8138W        W23755   6.316   4.518  13.849  0.3176  0.1976 -0.4281
 8139W        W23756   7.104   5.477   0.109  0.0063  0.0135  0.2173
 8140W        W23757  10.336  16.924  13.198 -0.1587  0.1798 -0.3469
 8141W        W23758   3.550   6.410   2.794  0.2734 -0.4259 -0.2488
 8142W        W23759  13.425   5.982   2.369 -0.1441 -0.0822 -0.2841
 8143W        W23760   7.872   7.980  13.449 -0.0055 -0.0704 -0.0960
 8144W        W23761  16.278   3.516  14.253  0.3782 -0.2728  0.0723
 8145W        W23762   6.925  16.601   3.604 -0.1008  0.2892  0.2248
 8146W        W23763   7.121  13.563  13.471  0.0857  0.6253  0.2145
 8147W        W23764  10.519  10.038   4.347  0.0373 -0.0947  0.3908
 8148W        W23765  19.076  17.719   3.183 -0.0898 -0.2081  0.0071
 8149W        W23766  13.723   1.880  13.132 -0.0059 -0.0981  0.2237
 8150W        W23767   5.835  15.876   4.077 -0.1275  0.1786  0.0845
 8151W        W23768   8.020   9.362  13.800  0.0128  0.0337 -0.2065
 8152W        W23769  15.755   1.588  11.968 -0.0425 -0.2420  0.2639
 8153W        W23770   9.477  18.709   4.543 -0.1783 -0.3348 -0.2480
 8154W        W23771   4.516  14.107   0.523 -0.0871  0.1860 -0.0595
 8155W        W23772  12.783  15.254  14.178 -0.1694  0.1153  0.1293
 8156W        W23773   5.951   3.785  13.345 -0.1481 -0.2084 -0.2059
 8157W        W23774   0.055  15.831   0.255  0.2783  0.2453  0.1305
 8158W        W23775   0.728   7.230  14.956  0.3477 -0.0207 -0.2201
 8159W        W23776   9.049   3.652   3.497 -0.1987 -0.1217 -0.2358
 8160W        W23777   7.708   0.725   1.794 -0.1211 -0.1397  0.0674
 8161W        W23778   2.130  16.658   3.449 -0.2008  0.0288 -0.2223
 8162W        W23779  11.376   5.753   2.485  0.2631 -0.2045  0.1700
 8163W        W23780  16.392  12.292   2.990 -0.1944  0.1189 -0.0778
 8164W        W23781  11.996   8.768   3.235  0.2104  0.0952  0.2614
 8165W        W23782   1.458   3.090   1.416  0.1682 -0.1576  0.0669
 8166W        W23783  16.856  18.442   2.091  0.3662 -0.0590 -0.1454
 8167W        W23784  16.498  11.353   2.903 -0.2917 -0.0468 -0.0116
 8168W        W23785  17.652  10.308   0.678 -0.1458 -0.1222  0.0406
 8169W        W23786   4.417   3.365   5.609  0.2674  0.0570 -0.0754
 8170W        W23787   8.455   7.428  14.828 -0.0061 -0.0594  0.3858
 8171W        W23788   8.386  17.434  11.382 -0.1131 -0.1786 -0.1675
 8172W        W23789  10.153   6.114  13.811 -0.1523 -0.0649  0.0839
 8173W        W23790  14.156  18.205   3.343  0.3680 -0.0307 -0.1129
 8174W        W23791  15.383   9.072  13.788  0.0864  0.2298  0.1498
 8175W        W23792   9.153  12.958   2.905 -0.1552 -0.2042 -0.2779
 8176W        W23793   9.936   9.592   1.383  0.3144 -0.2165  0.0924
 8177W        W23794  16.756  12.354   2.410  0.2969  0.0995 -0.1852
 8178W        W23795   5.075   5.896   1.753  0.0309 -0.3887 -0.0425
 8179W        W23796  11.192  18.266   4.284  0.0819  0.1587  0.0252
 8180W        W23797   7.360  15.854   3.357 -0.1818 -0.1569 -0.0845
 8181W        W23798  12.918  12.346   2.842 -0.0428  0.0916 -0.4111
 8182W        W23799  11.058  10.051   4.981 -0.0368  0.0571  0.1522
 8183W        W23800   0.484  14.092   1.020  0.5514  0.0617  0.1690
 8184W        W23801   5.805   4.450  14.719  0.1523  0.1007  0.5545
 8185W        W23802   9.435   5.568   5.286 -0.1528 -0.2107  0.1980
 8186W        W23803   3.609  14.212  12.099 -0.0886 -0.0421 -0.3956
 8187W        W23804   3.837   8.429   4.602  0.2053 -0.3855 -0.0718
 8188W        W23805   6.565  18.997   4.228 -0.1144  0.0003  0.1090
 8189W        W23806  16.625   8.877   0.811  0.2681 -0.1275  0.1274
 8190W        W23807  12.443   9.664   4.680  0.1916 -0.2457 -0.1314
 8191W        W23808   8.424  17.473   1.856  0.2362 -0.1580 -0.2809
 8192W        W23809   3.144   2.963  14.248  0.1388 -0.0989  0.3277
 8193W        W23810  11.912  16.620  11.875 -0.1859  0.1128  0.1151
 8194W        W23811  10.306  17.480  13.221 -0.3738  0.1432 -0.0036
 8195W        W23812   4.215  18.331   3.314 -0.1735  0.1618 -0.0897
 8196W        W23813  18.195  13.466   1.550  0.2645 -0.1358 -0.1798
 8197W        W23814  13.654  17.687   4.749  0.1568 -0.2813 -0.3289
 8198W        W23815   3.708   3.211  13.830  0.0538  0.0629  0.0189
 8199W        W23816   7.356   2.421   1.454 -0.2884 -0.1424 -0.2609
 8200W        W23817   1.019  12.977   2.613 -0.1263 -0.3676 -0.0367
 8201W        W23818  10.016  16.300  12.695 -0.1056 -0.3369 -0.2203
 8202W        W23819  14.642  12.984  11.207  0.0726  0.0559 -0.2846
 8203W        W23820   7.425  13.183  11.115 -0.0072  0.3934  0.1269
 8204W        W23821   6.947   5.876   3.247 -0.3022 -0.0543 -0.0991
 8205W        W23822   6.185  15.999   3.723 -0.0704  0.2591  0.3048
 8206W        W23823  14.153  18.521   0.885 -0.0811 -0.2057 -0.0771
 8207W        W23824   5.951  14.798  12.601 -0.0335 -0.2085 -0.2742
 8208W        W23825   0.454   9.139  11.669  0.3138 -0.0109  0.0932
 8209W        W23826  12.322  17.274  14.814  0.0844 -0.0892  0.0471
 8210W        W23827   2.413   4.585   1.123  0.0350 -0.1303  0.1464
 8211W        W23828  11.859  10.006  12.847 -0.2307  0.0649 -0.0392
 8212W        W23829  14.936   2.928  11.273 -0.0303  0.1539 -0.1037
 8213W        W23830  11.410   6.600  11.372 -0.0224 -0.0180 -0.2674
 8214W        W23831   2.548   8.055  11.250 -0.0255 -0.0205  0.4167
 8215W        W23832   1.954   9.923   4.799 -0.2389  0.1511  0.2684
 8216W        W23833   4.695  12.673  13.905  0.1623 -0.0328  0.1239
 8217W        W23834  10.880   0.789  12.165 -0.0182 -0.0306  0.3419
 8218W        W23835   7.902  11.976   3.654  0.1296 -0.0634 -0.2158
 8219W        W23836  12.454   3.051   1.777  0.0936  0.0326 -0.2347
 8220W        W23837   2.038  11.575   2.844  0.0164  0.0899  0.0456
 8221W        W23838  11.349   4.484   3.655  0.2749  0.1962 -0.3394
 8222W        W23839  10.194  18.198  12.596 -0.1205 -0.0986 -0.3690
 8223W        W23840  17.969   7.583   0.851 -0.1872  0.0800 -0.0950
 8224W        W23841   7.397   1.855  13.221 -0.1416 -0.1621  0.3272
 8225W        W23842   4.525   7.552   3.836 -0.2918 -0.3217  0.0436
 8226W        W23843  16.970  15.987   1.973  0.0555  0.2379  0.0850
 8227W        W23844  11.018  17.665  13.820 -0.1212  0.2648  0.1637
 8228W        W23845   0.973  11.039   4.336  0.1028 -0.0649 -0.0927
 8229W        W23846   0.191  18.527  12.180  0.1239 -0.2993 -0.1437
 8230W        W23847  10.106   2.197   0.226  0.1476 -0.4574 -0.0288
 8231W        W23848   7.714   2.258   0.881  0.2680  0.2057 -0.0798
 8232W        W23849  11.709   7.621   1.831 -0.2121 -0.3515  0.1424
 8233W        W23850  14.055  14.421  14.939  0.0262  0.0320 -0.2988
 8234W        W23851  13.831   0.903  10.790 -0.2229  0.3450 -0.1204
 8235W        W23852   3.977  16.332  14.671  0.1298 -0.0432 -0.1823
 8236W        W23853  13.032  17.152   4.958 -0.0825 -0.3256 -0.5309
 8237W        W23854   8.344  11.340   3.903  0.4206 -0.3349 -0.0843
 8238W        W23855   1.904   8.586  12.300 -0.0821  0.0448  0.0057
 8239W        W23856  11.765   0.444   2.027 -0.3641 -0.0784 -0.0767
 8240W        W23857  11.225  12.713  10.696  0.1545  0.0445 -0.0430
 8241W        W23858   3.082  17.360  14.401 -0.1675  0.2455 -0.0598
 8242W        W23859   9.262   8.148   1.459 -0.1664 -0.1867  0.0472
 8243W        W23860  13.780   3.741  12.484 -0.2978 -0.1291  0.0546
 8244W        W23861  15.500  16.214   4.567  0.1094  0.3317 -0.1151
 8245W        W23862  11.247   1.774  15.013 -0.0966  0.2531  0.0975
 8246W        W23863  17.237  14.499  12.908  0.2574  0.3834 -0.1203
 8247W        W23864  14.376  10.820   3.449  0.1408  0.0079  0.4939
 8248W        W23865  17.470  13.792  13.041  0.4311  0.4393 -0.3218
 8249W        W23866   3.528   4.831   5.219 -0.2563 -0.1905 -0.0742
 8250W        W23867   9.732  14.862  11.057 -0.2937  0.1033  0.3316
 8251W        W23868   2.722   6.390   4.959  0.2018 -0.1656  0.0917
 8252W        W23869   8.943  18.756   2.614 -0.2116 -0.1895  0.2304
 8253W        W23870  13.857   5.939  11.208 -0.1918 -0.0656 -0.3349
 8254W        W23871   3.385   1.723   3.862  0.1214  0.2191 -0.1093
 8255W        W23872  10.714  12.934  15.156  0.0824  0.0217 -0.1443
 8256W        W23873   6.622  14.500  13.019  0.0419 -0.2960 -0.2323
 8257W        W23874  18.317  10.292   0.309  0.3251  0.0796  0.0408
 8258W        W23875   0.839  18.810  12.797  0.2282 -0.0034  0.2645
 8259W        W23876   2.696   4.886   0.345 -0.1372 -0.1261  0.4519
 8260W        W23877  13.796  12.118   1.954  0.2287  0.0783  0.1079
 8261W        W23878  18.544   2.201   3.645 -0.1910 -0.2341 -0.3999
 8262W        W23879  11.968  14.401  11.389  0.0546  0.1608 -0.2432
 8263W        W23880   7.446  17.958   1.548 -0.2685 -0.0850  0.1732
 8264W        W23881  13.793   6.399   1.497  0.0236  0.1061  0.1288
 8265W        W23882   4.162   0.363   4.937 -0.1556  0.1170  0.1545
 8266W        W23883  10.936   4.809   3.380 -0.0957  0.1922  0.3040
 8267W        W23884  15.465  15.764   5.534  0.0052 -0.2066 -0.1860
 8268W        W23885   1.179  18.128  11.631 -0.2703  0.0602 -0.0569
 8269W        W23886   8.942   4.896  10.096 -0.1480  0.0893  0.1032
 8270W        W23887   3.733  14.201  12.775 -0.2374 -0.0565  0.0165
 8271W        W23888  13.480   3.756  11.956  0.0922  0.0508  0.1838
 8272W        W23889   7.210  14.582   1.503  0.0914 -0.0648 -0.1637
 8273W        W23890   9.188   2.071   2.520 -0.1589  0.0429  0.1851
 8274W        W23891  18.054   0.879   0.746 -0.0278 -0.0388  0.2120
 8275W        W23892   3.400  17.110  14.753  0.0913  0.2451 -0.0610
 8276W        W23893   4.969   2.860   1.398  0.3801  0.3088  0.1342
 8277W        W23894  15.753  18.453   1.713 -0.1036 -0.0625  0.1829
 8278W        W23895   2.406  11.124   4.164 -0.1746  0.1689 -0.1788
 8279W        W23896  13.088  19.016  12.184 -0.0901 -0.0598 -0.1930
 8280W        W23897  12.890   8.341  11.692 -0.0691  0.0468 -0.2341
 8281W        W23898   3.230  12.790   9.860  0.0503  0.1942 -0.1141
 8282W        W23899  10.339   1.837   0.622  0.2642 -0.1734 -0.0724
 8283W        W23900   8.878   2.106   5.126 -0.0812  0.4701 -0.0934
 8284W        W23901   1.135  16.486   4.583 -0.0582  0.1695 -0.1831
 8285W        W23902   7.595   8.727   3.244 -0.1296  0.0424 -0.2369
 8286W        W23903  16.766   6.001  13.261  0.1254 -0.2186  0.0193
 8287W        W23904  15.185   5.040  11.233  0.3131 -0.2703 -0.0896
 8288W        W23905  13.615  10.681   1.889  0.1053 -0.1111 -0.0485
 8289W        W23906  11.380   8.657   2.551  0.4980 -0.0157 -0.1735
 8290W        W23907  11.551  16.103  14.908  0.1617 -0.0599 -0.2222
 8291W        W23908  18.021  15.658   2.806 -0.0042  0.0669  0.3226
 8292W        W23909   2.507   0.190  13.028 -0.0654 -0.2595  0.0250
 8293W        W23910  18.635   4.938   3.893 -0.1194 -0.1310  0.1873
 8294W        W23911   8.527   0.220   3.872  0.3031  0.1804  0.1564
 8295W        W23912   7.335  10.062  11.233 -0.0640 -0.0093 -0.0258
 8296W        W23913   0.735  13.570   3.637 -0.2250 -0.3968  0.0943
 8297W        W23914   2.104  14.316   5.245 -0.0106  0.1704 -0.0879
 8298W        W23915   0.346  12.820   9.497  0.2783  0.2889 -0.3390
 8299W        W23916  12.834   8.102  13.219  0.0452 -0.1691 -0.0660
 8300W        W23917   7.086  10.715   2.177  0.5379  0.0783  0.2074
 8301W        W23918   6.123   3.581   3.882  0.2901  0.3246 -0.0295
 8302W        W23919   2.589   5.767  14.302  0.0215  0.0111 -0.1458
 8303W        W23920   5.634   7.495  12.857 -0.2570  0.2262 -0.0674
 8304W        W23921  16.511   5.505   2.754  0.0123  0.0119  0.2671
 8305W        W23922  15.793   2.204   4.083 -0.1724  0.2034 -0.1133
 8306W        W23923   2.134   3.233   9.977  0.1777  0.1236  0.0619
 8307W        W23924   5.349  10.714   5.049 -0.0923  0.1736  0.0717
 8308W        W23925  14.526   4.415  12.174 -0.3510  0.1164 -0.0237
 8309W        W23926   8.964   1.153   4.367  0.0674  0.0552 -0.2631
 8310W        W23927   4.384  11.767   3.038  0.1616 -0.0034 -0.0937
 8311W        W23928   7.156  17.064   2.585  0.1550  0.1747  0.0880
 8312W        W23929   6.169   4.897  14.397  0.0469  0.0321 -0.1507
 8313W        W23930   2.664  14.487   0.542 -0.0540  0.0146 -0.2151
 8314W        W23931  14.456   2.927   2.176  0.0691  0.0709  0.2222
 8315W        W23932  13.967   5.684   4.808  0.4955  0.0522  0.0940
 8316W        W23933   0.054  14.340   2.816  0.0158 -0.2746 -0.0267
 8317W        W23934   9.040   7.179   0.395 -0.3827 -0.0837  0.1226
 8318W        W23935   0.133  14.952   4.268  0.0292  0.2541 -0.2243
 8319W        W23936  10.598   8.864   0.651 -0.0510 -0.0179 -0.2861
 8320W        W23937   8.357  11.767  13.255  0.2351  0.3566  0.0981
 8321W        W23938  16.884   4.139   2.366  0.0215  0.2277  0.3593
 8322W        W23939  10.934  10.529  14.622 -0.1309 -0.1119  0.3079
 8323W        W23940  17.255   2.878   1.676 -0.1480  0.3137  0.3289
 8324W        W23941   9.016   2.685  10.632 -0.0903 -0.1841 -0.1818
 8325W        W23942   5.059   3.543   1.925 -0.2641  0.1715  0.2469
 8326W        W23943   4.036   4.573   2.929  0.0785  0.2326 -0.1239
 8327W        W23944  15.964  17.535   5.190  0.0054  0.0494  0.0064
 8328W        W23945  13.653  10.320  15.146 -0.1505 -0.1326 -0.1892
 8329W        W23946  11.494  17.954   3.356 -0.2284  0.0342 -0.1819
 8330W        W23947   6.595  15.960  14.294 -0.1923  0.0771 -0.2192
 8331W        W23948  13.580   5.339   1.174  0.4320  0.0027  0.2054
 8332W        W23949  18.933   7.779  15.181 -0.2910 -0.3863  0.0946
 8333W        W23950   2.257  10.553   3.287  0.1551  0.0929  0.0631
 8334W        W23951  18.511   8.692  12.139 -0.0750  0.2935  0.1756
 8335W        W23952   9.994  15.061  13.256  0.2244 -0.1160 -0.0144
 8336W        W23953  11.095  13.399   2.569  0.1211 -0.1263 -0.0679
 8337W        W23954   3.634   6.975   5.053  0.0992  0.0730  0.1236
 8338W        W23955  14.276  14.101  13.206 -0.0438 -0.1735  0.0909
 8339W        W23956  14.503  16.533   3.399 -0.1030  0.3029  0.1585
 8340W        W23957   2.942   4.514  14.799 -0.0272  0.0826  0.1897
 8341W        W23958  12.072   3.948   3.472  0.1678 -0.1039 -0.0955
 8342W        W23959   5.956   9.611   2.289  0.0477 -0.1657 -0.2197
 8343W        W23960   4.925   8.841  14.110  0.0206  0.0738  0.0764
 8344W        W23961   9.672   3.314   0.012  0.2882  0.2095  0.1138
 8345W        W23962  15.905  10.688  11.064 -0.0977 -0.0154  0.1119
 8346W        W23963  10.010   8.478  13.261  0.3935 -0.2658 -0.1358
 8347W        W23964  17.045   4.128   2.885 -0.0440  0.1216 -0.0567
 8348W        W23965   9.441   8.807  15.063 -0.3700  0.3001  0.1275
 8349W        W23966   8.283  17.354  10.859 -0.1995  0.2675  0.3211
 8350W        W23967   8.677   4.269   2.524 -0.1091 -0.0535  0.0675
 8351W        W23968   3.302   3.797  13.631 -0.2532  0.0868 -0.3315
 8352W        W23969   1.965  12.574   2.231  0.2523  0.1681  0.1152
 8353W        W23970   4.039   3.582   2.942  0.2044  0.0740 -0.2521
 8354W        W23971   6.764   7.057   3.654  0.0333  0.0070 -0.1011
 8355W        W23972  11.157  14.992   5.605  0.1531  0.0471 -0.2596
 8356W        W23973  10.495  10.401   1.335 -0.1074  0.0679  0.0319
 8357W        W23974  11.355   6.650   3.748  0.3202  0.1122 -0.2949
 8358W        W23975  12.452  15.335  13.801  0.0200 -0.0432  0.1589
 8359W        W23976  16.867   5.367   1.410 -0.0350 -0.1218  0.0100
 8360W        W23977   0.934   1.125  12.484 -0.0157  0.5402 -0.2578
 8361W        W23978  17.087  10.778   5.597 -0.3029  0.0617 -0.1590
 8362W        W23979   8.486  17.948  15.278 -0.0640 -0.0487 -0.3369
 8363W        W23980   3.432   0.333   4.391  0.1696  0.1168 -0.2024
 8364W        W23981  18.944   2.859   4.811  0.3028 -0.2140  0.2677
 8365W        W23982  18.990  12.252  11.370  0.4575 -0.0106 -0.0694
 8366W        W23983   8.118   4.811   5.914 -0.1546  0.2824  0.3387
 8367W        W23984  11.569   2.651   3.499  0.1748 -0.1093 -0.1165
 8368W        W23985  16.763   4.990  11.134  0.0102  0.2295 -0.2562
 8369W        W23986   1.581  13.820  12.501 -0.2910 -0.0703  0.1075
 8370W        W23987  13.911  18.447   3.732  0.0388  0.4757 -0.0591
 8371W        W23988   6.931   5.380   3.955 -0.1086  0.0400 -0.0405
 8372W        W23989  10.645  18.839   1.606  0.0543  0.1770  0.2557
 8373W        W23990  17.801  15.403  12.148 -0.1019  0.2964 -0.2431
 8374W        W23991   5.553  13.449   0.886  0.0909  0.0100  0.2407
 8375W        W23992   1.487   6.866   3.266 -0.1995  0.2324  0.0119
 8376W        W23993  17.656  17.070   2.700  0.4113 -0.2280  0.2207
 8377W        W23994  17.523   5.665  12.296 -0.2869  0.3447  0.2306
 8378W        W23995   4.707   2.112  14.700 -0.0979  0.2767 -0.0983
 8379W        W23996  11.951   3.997   2.854 -0.0927 -0.3346 -0.2034
 8380W        W23997   7.752   5.268  11.531 -0.1483 -0.4999 -0.0366
 8381W        W23998   7.703  13.492  14.537  0.2337 -0.0981 -0.0030
 8382W        W23999  13.794  15.788  10.596  0.4059  0.0407 -0.1009
 8383W        W24000   2.487  12.423  12.562  0.0593 -0.0586 -0.3032
 8384W        W24001   7.219  10.028   0.868 -0.0565 -0.1449  0.2296
 8385W        W24002  12.778   6.116   5.148 -0.0707  0.0156 -0.2374
 8386W        W24003  14.250   4.991   3.098  0.0011 -0.2886  0.0363
 8387W        W24004  12.033  13.169   3.316 -0.3686 -0.1213 -0.2240
 8388W        W24005  11.455   1.558   3.522  0.0045 -0.0014 -0.1095
 8389W        W24006  10.272   5.527  12.513 -0.1248 -0.0451  0.0169
 8390W        W24007   0.925  16.825   0.286 -0.1045  0.0096  0.0014
 8391W        W24008   1.847   8.287  11.911 -0.1581  0.2124  0.2132
 8392W        W24009   4.012  14.183   1.376  0.0898  0.1871  0.1626
 8393W        W24010   9.146   7.014   3.170 -0.2855  0.0992  0.3456
 8394W        W24011  12.461  17.942   1.321 -0.2149  0.2075 -0.1636
 8395W        W24012  18.086  16.884  12.820 -0.2184  0.2269 -0.0237
 8396W        W24013   0.533   5.813  12.926 -0.0819 -0.0529 -0.0234
 8397W        W24014   2.939   0.950   0.508  0.1051  0.2914 -0.0266
 8398W        W24015   0.808  14.669   2.086  0.3620 -0.1475  0.0292
 8399W        W24016  18.339  15.247   2.768  0.0571 -0.4251  0.1238
 8400W        W24017  14.230  13.960   4.536 -0.2881  0.1981  0.0820
 8401W        W24018  19.061  16.080   1.901  0.5761  0.1788  0.1531
 8402W        W24019  12.931   7.865   1.498 -0.0582  0.2657 -0.2540
 8403W        W24020  18.776  13.230   2.060 -0.5120 -0.3027  0.2308
 8404W        W24021   4.732   6.774   2.212  0.0416 -0.2012  0.4528
 8405W        W24022   0.722   0.848   4.867 -0.0444 -0.1183  0.1012
 8406W        W24023   1.553  17.493   0.283 -0.0193 -0.2874  0.1502
 8407W        W24024   8.582  17.445   3.280  0.0587 -0.0332  0.1485
 8408W        W24025   5.883  15.694   0.292 -0.1239 -0.0882  0.1863
 8409W        W24026  11.343  15.242   3.919  0.0130 -0.0687 -0.2758
 8410W        W24027   4.871   3.084  14.414  0.0400 -0.0983  0.1176
 8411W        W24028   0.664   1.898   4.939  0.3848  0.1676 -0.0386
 8412W        W24029  15.731   8.669  14.262 -0.1310 -0.0937 -0.1782
 8413W        W24030  16.872  17.698  13.904  0.0865 -0.0862  0.0688
 8414W        W24031   2.924  17.368   5.486  0.2550  0.1145  0.0236
 8415W        W24032  11.093   2.711   4.223  0.2942  0.5323  0.0608
 8416W        W24033  11.167  11.182  15.218 -0.1129  0.1192  0.2696
 8417W        W24034  17.214  13.607   0.393 -0.1228  0.2366 -0.4605
 8418W        W24035   8.698   2.839  12.633 -0.1690  0.1552 -0.2147
 8419W        W24036  14.032  11.454  11.442  0.1797 -0.1521 -0.0266
 8420W        W24037   3.679   2.850   3.194 -0.0745 -0.2415  0.2126
 8421W        W24038   8.397   7.757   3.703  0.1891  0.2062 -0.2083
 8422W        W24039  17.369  18.118  10.987 -0.2858  0.1309  0.0863
 8423W        W24040  14.672  15.820   4.846 -0.0010 -0.1219  0.0107
 8424W        W24041   9.960  16.418  13.912 -0.0746  0.1684  0.0656
 8425W        W24042  11.549   4.746  10.574  0.0712  0.4594  0.1151
 8426W        W24043  11.779   8.344  13.617  0.2008 -0.0260  0.3047
 8427W        W24044   1.873   3.903  10.530 -0.0106 -0.1390  0.1888
 8428W        W24045   6.815   5.636  12.483 -0.1725 -0.3084 -0.1637
 8429W        W24046   9.736   2.431  11.123  0.1444 -0.3858  0.0946
 8430W        W24047  15.007   3.536   1.612  0.2045  0.0749  0.2120
 8431W        W24048  10.812   2.178  12.398  0.1462  0.2931 -0.0752
 8432W        W24049  15.676   2.601  13.585 -0.2864 -0.0016 -0.2166
 8433W        W24050  12.418   0.265   2.679  0.1071  0.1806 -0.1965
 8434W        W24051   7.972   6.633  12.493  0.0447  0.1886  0.0117
 8435W        W24052  11.093  16.858  11.007  0.1747 -0.2983  0.1770
 8436W        W24053  15.732  12.131  13.739 -0.0929  0.1022 -0.0749
 8437W        W24054   2.095  10.128  14.750  0.1894  0.2350  0.2668
 8438W        W24055   9.131  17.971   1.993  0.0873 -0.1769  0.0685
 8439W        W24056  13.797   9.018   4.472 -0.1191  0.1298 -0.0949
 8440W        W24057   1.498   0.614  14.947 -0.1176  0.2007 -0.0230
 8441W        W24058   3.148  15.999   0.371  0.4272 -0.1201  0.2822
 8442W        W24059  18.118   4.883  15.078  0.0325 -0.0553 -0.2424
 8443W        W24060  12.023   4.427  14.236  0.3246 -0.2219 -0.0078
 8444W        W24061  12.654  10.332   0.967  0.3300 -0.0748  0.3946
 8445W        W24062   8.968  16.182  11.918 -0.0077  0.0513  0.0927
 8446W        W24063  15.033   0.145  10.582  0.0004 -0.3024 -0.1505
 8447W        W24064  11.761   6.012   2.259 -0.0559  0.4685 -0.3872
 8448W        W24065  16.044   6.256  11.454 -0.2372  0.0138 -0.3341
 8449W        W24066   6.582   4.910   0.842 -0.0312  0.2673 -0.2038
 8450W        W24067   7.977   2.228  12.999 -0.3116 -0.3815 -0.2868
 8451W        W24068  17.715   1.944  11.714  0.2881  0.1511  0.0480
 8452W        W24069  14.386  12.937  12.194 -0.0513 -0.0191  0.0039
 8453W        W24070  11.377   9.027   3.827 -0.0450 -0.2018 -0.0844
 8454W        W24071   4.728  13.577  14.692  0.0630  0.2229  0.4057
 8455W        W24072  13.896   8.160  14.481 -0.2568 -0.2356 -0.2848
 8456W        W24073  12.743  10.243  13.699  0.0083 -0.0363 -0.0529
 8457W        W24074   3.574  11.839  14.463 -0.1376  0.0416  0.0104
 8458W        W24075   4.894  10.440  11.945 -0.0742 -0.2050 -0.4886
 8459W        W24076  14.526  11.505  11.641  0.1498  0.1724  0.3750
 8460W        W24077   6.395  11.849  14.306 -0.1192  0.2183  0.1364
 8461W        W24078  17.066   6.185  12.848  0.1114  0.0438  0.1467
 8462W        W24079   8.391   4.492   0.188 -0.0950  0.2848  0.1848
 8463W        W24080   6.982   4.750   5.283 -0.0912  0.1546  0.2462
 8464W        W24081   9.465   8.310  13.616  0.0373 -0.0026 -0.0484
 8465W        W24082  14.202  12.711   1.935 -0.1400 -0.0894 -0.1221
 8466W        W24083   1.863  11.284   4.871 -0.1200 -0.3413  0.1526
 8467W        W24084  17.851  17.667  12.310 -0.3295  0.0611 -0.0392
 8468W        W24085   8.302  10.985   3.513 -0.0811 -0.1610 -0.2280
 8469W        W24086  11.717  17.325  15.274  0.0224  0.1854 -0.1044
 8470W        W24087  17.721   4.315   2.208 -0.2467  0.0713  0.1618
 8471W        W24088   6.767  15.783  12.378 -0.1852 -0.1775 -0.0697
 8472W        W24089   5.290   8.983  14.929  0.1384 -0.2842 -0.0324
 8473W        W24090  19.031   4.829   2.276 -0.4556 -0.0669 -0.0535
 8474W        W24091   3.489   0.942   3.236 -0.3457  0.0568 -0.1425
 8475W        W24092   6.536   1.915   1.499 -0.0915  0.0395  0.0831
 8476W        W24093  16.324   1.793   2.635  0.2294 -0.0051  0.1607
 8477W        W24094  10.347  12.484  12.581 -0.0616  0.2315  0.1061
 8478W        W24095   8.519   5.099  11.947 -0.3444  0.1957 -0.0907
 8479W        W24096  13.480   4.052  13.548 -0.0665 -0.0835 -0.2491
 8480W        W24097  15.792  18.091   3.344 -0.0052  0.0281  0.2403
 8481W        W24098  18.279   1.331  13.651  0.3263  0.0373  0.0162
 8482W        W24099   4.162  17.255   4.295 -0.0705 -0.2005  0.0307
 8483W        W24100  15.401   6.855  14.355  0.0817  0.0392 -0.3360
 8484W        W24101   6.630   2.330  12.914 -0.2243  0.0357  0.0140
 8485W        W24102  14.127   6.224  13.259  0.1933  0.0502  0.0992
 8486W        W24103   2.274   1.234   3.274  0.0699 -0.1640 -0.0148
 8487W        W24104  10.277   5.699  15.050  0.3632 -0.1622 -0.3503
 8488W        W24105   7.257  14.811   2.806  0.3466 -0.1731  0.0376
 8489W        W24106   0.331   9.439   4.647  0.0502  0.0286  0.5019
 8490W        W24107   7.280  14.663   3.277 -0.1412 -0.1396 -0.1077
 8491W        W24108  16.808  15.509  12.640  0.0440  0.3172 -0.3890
 8492W        W24109   0.272  16.725  13.173  0.0582 -0.0782 -0.2543
 8493W        W24110  17.368  13.838  14.392  0.1186 -0.1924  0.1516
 8494W        W24111   5.777  16.008   4.947  0.1361 -0.2345 -0.2288
 8495W        W24112   5.854   2.528  11.709 -0.3659 -0.0937 -0.1893
 8496W        W24113   8.039   2.739   4.361 -0.4126  0.0395 -0.0601
 8497W        W24114   8.361  16.460  12.288 -0.1622  0.4210 -0.0415
 8498W        W24115   2.553   6.637  12.155 -0.0236  0.0392 -0.2563
 8499W        W24116  16.477   6.772   0.052  0.3318  0.0233  0.2185
 8500W        W24117   4.595  19.006   1.345 -0.2019  0.2301  0.0029
 8501W        W24118  11.104  16.342  10.841 -0.0364 -0.0076  0.1564
 8502W        W24119   1.391  14.838   5.313  0.1690  0.3102  0.0100
 8503W        W24120   2.609   8.035   0.527  0.1927 -0.0057  0.0678
 8504W        W24121   5.252   5.055  12.981 -0.3458 -0.0262  0.0252
 8505W        W24122   4.524   9.203  15.092 -0.2799 -0.2555  0.2099
 8506W        W24123  11.522   1.086  14.259  0.2041  0.1623  0.1690
 8507W        W24124   4.617   6.780   3.309 -0.1601  0.0938 -0.0259
 8508W        W24125  16.912   6.676  14.519  0.1176  0.1149  0.0311
 8509W        W24126   4.784   9.300   0.255 -0.0947  0.2633  0.0431
 8510W        W24127  17.462   6.523  12.868  0.1504 -0.4615 -0.0879
 8511W        W24128   0.449   0.266   0.553 -0.0953 -0.1877  0.0521
 8512W        W24129  17.379   8.491  10.273 -0.3587 -0.0514  0.1372
 8513W        W24130   8.720  13.705   2.888 -0.0643  0.1423  0.0357
 8514W        W24131   9.432   3.023  13.059  0.0989 -0.3042  0.0190
 8515W        W24132   3.237  15.877   4.705 -0.2239 -0.2938  0.1240
 8516W        W24133   4.745   1.874  15.184  0.2769  0.0697 -0.0633
 8517W        W24134   1.917   8.554   0.264  0.0191  0.0830 -0.1515
 8518W        W24135   6.539  17.982   2.434 -0.0323  0.0364 -0.0792
 8519W        W24136  17.953   8.613   2.658  0.0719 -0.2963  0.1430
 8520W        W24137   1.832  14.065   3.919  0.1736  0.1935 -0.0930
 8521W        W24138  10.031  11.858  14.686  0.1435 -0.1178  0.2221
 8522W        W24139   9.238  17.423   2.096 -0.1045 -0.3643  0.0499
 8523W        W24140   4.085   2.819   3.488  0.1775  0.3288  0.1051
 8524W        W24141   1.789  17.746   1.231 -0.2833  0.1611  0.0402
 8525W        W24142  11.071  13.834   5.323 -0.2136  0.2182 -0.1773
 8526W        W24143   5.621  17.719   0.283 -0.1992  0.2472 -0.3296
 8527W        W24144  17.793  14.590   4.318 -0.1613 -0.1586 -0.0400
 8528W        W24145   9.328  11.016  15.037 -0.0177  0.3350  0.0611
 8529W        W24146  11.751  16.016   2.975  0.2531  0.0893  0.1798
 8530W        W24147   9.602   2.637  14.823 -0.1042 -0.0774  0.0287
 8531W        W24148   5.789   3.777   5.960 -0.1511  0.1452 -0.0196
 8532W        W24149  14.167  15.814   1.591  0.1289  0.0522  0.4176
 8533W        W24150  13.030   4.235   1.572  0.0921  0.1467  0.0796
 8534W        W24151  16.668  18.623   0.507  0.1136 -0.2802  0.1259
 8535W        W24152  14.877   5.049   3.945  0.3273  0.3491 -0.0557
 8536W        W24153   7.090  12.231   3.405  0.0673  0.1250 -0.0265
 8537W        W24154   0.154  16.664   4.699 -0.1110 -0.0302 -0.0020
 8538W        W24155   9.178  18.911   2.002  0.1475  0.1063 -0.1086
 8539W        W24156  10.764  15.160  12.198 -0.1640 -0.1500 -0.2383
 8540W        W24157   3.825   4.775   0.948 -0.2106 -0.2161 -0.1684
 8541W        W24158  16.445  15.538  14.623 -0.1077  0.0891 -0.2110
 8542W        W24159  18.703  15.697  12.506  0.5584 -0.1740  0.0966
 8543W        W24160  16.481   1.000  11.592  0.1459 -0.3738  0.0945
 8544W        W24161  16.332  11.548  11.973 -0.0921 -0.2173 -0.1705
 8545W        W24162  10.933  17.025  13.194  0.1631 -0.0115 -0.0365
 8546W        W24163  17.512   4.385   5.216 -0.0950  0.1728 -0.3292
 8547W        W24164  13.022   4.142   3.673  0.1402  0.0768  0.0075
 8548W        W24165   5.258  18.251   2.802  0.0291  0.1895  0.0961
 8549W        W24166  13.027  18.469   2.062 -0.0524 -0.3036 -0.3248
 8550W        W24167  17.759   3.949  11.377  0.0075 -0.3320 -0.0031
 8551W        W24168  15.106  14.789  13.656 -0.0525  0.0676  0.0137
 8552W        W24169   8.882   3.835   3.062 -0.1172  0.2919  0.3231
 8553W        W24170  10.988   0.957  10.782 -0.3802  0.2770  0.2301
 8554W        W24171   0.723  16.740   3.829  0.3852 -0.0617  0.1487
 8555W        W24172   6.454   4.938   4.328 -0.3922  0.2014  0.2562
 8556W        W24173  14.970  14.855   9.728 -0.0616  0.0537 -0.0293
 8557W        W24174  15.566   4.001   4.512  0.0577 -0.3962 -0.0294
 8558W        W24175  15.424  16.857   0.203  0.0145 -0.0579  0.2320
 8559W        W24176   3.624   9.180  13.408  0.3108 -0.1874 -0.2176
 8560W        W24177  11.996  18.286  11.696 -0.2557 -0.0993 -0.2075
 8561W        W24178  12.621   4.245  13.637  0.0871 -0.0610  0.1731
 8562W        W24179  14.268  14.241   2.757  0.0693  0.1379  0.5029
 8563W        W24180   2.055   9.901  12.105 -0.2997 -0.0372  0.0443
 8564W        W24181   3.580   9.222   3.269  0.0569  0.0272  0.0535
 8565W        W24182  15.378   0.725  14.927  0.0199 -0.2045  0.3581
 8566W        W24183   0.687   0.925   1.391 -0.1638  0.0876  0.2018
 8567W        W24184   2.884   6.451   2.921  0.2973  0.0534 -0.1355
 8568W        W24185   1.776   8.501  13.504  0.0567 -0.0420  0.0539
 8569W        W24186  13.427   0.988   2.857 -0.0724  0.2642 -0.4348
 8570W        W24187  17.536   5.499  10.707 -0.1640 -0.1253 -0.0882
 8571W        W24188   2.879   7.077   2.390  0.2577  0.3356  0.0596
 8572W        W24189   1.642   6.097   0.456 -0.1061 -0.0002 -0.1792
 8573W        W24190   8.892   1.848   3.505  0.1273  0.0065 -0.1239
 8574W        W24191  15.373  18.287   2.544  0.1079 -0.0049  0.0430
 8575W        W24192   0.563   6.722  11.484  0.0327  0.1100  0.1285
 8576W        W24193   1.404   7.152  13.113 -0.0324 -0.2117  0.0893
 8577W        W24194   4.183   2.934   0.782  0.1613 -0.3852  0.5117
 8578W        W24195  14.603   3.484  14.766  0.6168  0.1083 -0.1438
 8579W        W24196   8.894  13.075  14.977 -0.1732  0.2860  0.0192
 8580W        W24197   5.612  14.150  11.612 -0.1830 -0.0808  0.0979
 8581W        W24198  11.787   8.882  14.215 -0.3812  0.0895  0.0315
 8582W        W24199   9.657   5.122   2.501 -0.0959 -0.0710 -0.0827
 8583W        W24200  18.345  12.197  15.190 -0.0266 -0.1391  0.2288
 8584W        W24201  15.741  18.077  14.199 -0.0034  0.3020  0.0077
 8585W        W24202   0.348   0.227   2.241  0.0169  0.0549 -0.1840
 8586W        W24203  12.544  15.062   0.356  0.1279 -0.2580  0.0046
 8587W        W24204  16.318   6.730  13.731  0.0595  0.0559  0.1142
 8588W        W24205  14.538  18.573   2.770  0.2836 -0.1429 -0.0251
 8589W        W24206   0.299   2.781   4.445 -0.1474 -0.1616 -0.2502
 8590W        W24207   8.882   3.911  10.548 -0.0222  0.0447  0.1499
 8591W        W24208   6.564  14.173   0.261  0.2106 -0.1786  0.0616
 8592W        W24209  14.672   7.952  13.620 -0.2678  0.1769  0.0161
 8593W        W24210   6.143   6.204  13.816  0.0294  0.2238 -0.2207
 8594W        W24211  18.891   9.716   1.117  0.0226 -0.2957  0.0411
 8595W        W24212  13.245  13.918   3.981  0.3508  0.0570 -0.0487
 8596W        W24213  17.848  16.941  10.619 -0.2513 -0.1910 -0.2444
 8597W        W24214   6.137  18.765   6.078  0.0056 -0.1841  0.0943
 8598W        W24215  17.868  14.789   2.401 -0.0779 -0.0974  0.0029
 8599W        W24216   6.220   5.808   0.474 -0.1521  0.3033 -0.1435
 8600W        W24217   4.330  17.064   2.942  0.2756  0.2676  0.0412
 8601W        W24218   0.304   2.697   1.882 -0.0873  0.0021 -0.2732
 8602W        W24219  11.570  17.513  11.383 -0.1166  0.1177 -0.1718
 8603W        W24220   7.039  15.931  10.641 -0.0799  0.1790  0.1955
 8604W        W24221  18.080   1.462   5.633 -0.0667 -0.0800 -0.0411
 8605W        W24222   6.573  12.831   2.538 -0.0141  0.0490 -0.3023
 8606W        W24223  10.220   8.598   1.621 -0.0581 -0.3340 -0.2064
 8607W        W24224   2.792  10.109  14.141  0.1660 -0.0233 -0.3302
 8608W        W24225   9.129   7.854  11.172 -0.2967 -0.0311 -0.2814
 8609W        W24226  13.353   1.945  12.760  0.0698  0.0751 -0.1611
 8610W        W24227   2.964  15.361  13.253 -0.2963  0.0891  0.1698
 8611W        W24228   3.737  17.199   4.040 -0.4690 -0.3625 -0.1111
 8612W        W24229  10.564  16.395   4.884  0.4061 -0.1242  0.0649
 8613W        W24230   4.524  15.768  14.271 -0.0838  0.0168  0.1156
 8614W        W24231   9.379   2.117   1.980  0.3568 -0.0224 -0.0403
 8615W        W24232   5.687   9.372  15.092  0.0957 -0.1531  0.1242
 8616W        W24233   7.129   3.870   5.511  0.0115 -0.0837 -0.2091
 8617W        W24234   6.530  18.400   0.238 -0.1042  0.0073  0.2127
 8618W        W24235  10.049   4.638  14.202 -0.0403 -0.1212  0.4969
 8619W        W24236   4.152  14.889  13.053  0.1802  0.0311 -0.1579
 8620W        W24237   5.021   6.551  14.615 -0.0967  0.1239 -0.1233
 8621W        W24238  12.674   6.049   0.410  0.1336 -0.1419 -0.0355
 8622W        W24239  14.979   5.471  11.984  0.2477  0.0806 -0.0598
 8623W        W24240  14.718  15.284   1.082 -0.4482  0.0309 -0.0414
 8624W        W24241  18.257   7.410   2.017 -0.1495  0.0170  0.0271
 8625W        W24242   6.495   8.018   4.767  0.1216  0.4267  0.0744
 8626W        W24243  11.345  18.656  13.363 -0.1491  0.0636  0.0210
 8627W        W24244   0.967   4.462  14.151  0.1170 -0.1228  0.0704
 8628W        W24245  12.989  10.033  12.257 -0.2836  0.1175  0.1480
 8629W        W24246   0.417  15.627  10.552  0.0138  0.1657 -0.0600
 8630W        W24247   5.932   1.680   2.794  0.1437  0.2966 -0.0006
 8631W        W24248  14.718   1.030  11.284  0.0265 -0.2331  0.1742
 8632W        W24249   8.134  15.858   1.040  0.0252 -0.2502 -0.0757
 8633W        W24250  13.292  14.944   1.556  0.0774  0.0595  0.1607
 8634W        W24251  14.160   0.300   3.723  0.0752  0.1257 -0.0187
 8635W        W24252   6.778   0.474   5.845 -0.2196 -0.1101  0.0350
 8636W        W24253   7.385  12.724  12.569  0.1409  0.0062 -0.4054
 8637W        W24254   1.779  16.256   3.309  0.2370  0.1994 -0.0490
 8638W        W24255  14.773  14.198   0.265  0.1883 -0.1144 -0.0410
 8639W        W24256  13.323   7.198  11.040  0.0088  0.1674 -0.4007
 8640W        W24257  14.847  18.283   2.479 -0.0906  0.0224 -0.1406
 8641W        W24258  12.518  14.562  11.396  0.1383 -0.0540 -0.0105
 8642W        W24259   1.297  15.419  13.416 -0.0342  0.3297 -0.0620
 8643W        W24260   5.722   5.817   2.616 -0.1006 -0.3321  0.0843
 8644W        W24261   0.604   2.949  10.307  0.1362  0.2584 -0.0151
 8645W        W24262   8.958   6.341   3.216 -0.1030  0.1651  0.1863
 8646W        W24263   7.169   4.394  13.559 -0.3899 -0.0404 -0.2864
 8647W        W24264  17.962  12.186   2.578  0.2585  0.0137  0.3965
 8648W        W24265  11.414   8.814  12.859  0.2311 -0.2298 -0.0335
 8649W        W24266   3.935  19.076  13.722  0.2878  0.2478  0.2409
 8650W        W24267   1.447   0.259   1.870 -0.3052  0.2295 -0.0791
 8651W        W24268  12.106   0.646   2.473  0.0184 -0.0926 -0.2823
 8652W        W24269   4.016  13.172  13.613  0.4147  0.0414 -0.1630
 8653W        W24270  18.243  14.468   2.646  0.0070  0.0670  0.0286
 8654W        W24271   2.779  13.770  12.935 -0.0747  0.1029  0.1777
 8655W        W24272  10.524  14.630  10.639 -0.1422  0.0607  0.0743
 8656W        W24273   8.853  10.455  10.637  0.4524  0.0073  0.0447
 8657W        W24274  10.449  16.628  12.067 -0.3436  0.3349  0.1204
 8658W        W24275   0.825   2.929  13.306 -0.2157  0.0121 -0.1864
 8659W        W24276   5.119  13.780   1.041  0.1727 -0.1125 -0.1571
 8660W        W24277   0.330  14.782  12.587 -0.2306  0.3141  0.1373
 8661W        W24278  18.474  18.678   3.030 -0.0603 -0.2108 -0.0400
 8662W        W24279  12.402   4.701   1.099 -0.0196  0.2158  0.2424
 8663W        W24280  12.287   6.882   0.633 -0.2608  0.1818  0.2163
 8664W        W24281  11.848   8.349   3.501  0.1312 -0.2715  0.2328
 8665W        W24282  10.312  11.095   3.816  0.1693 -0.1089 -0.0752
 8666W        W24283   1.017   8.264   0.049  0.3100  0.1390  0.1025
 8667W        W24284  11.991   1.891  11.283 -0.2431  0.2585 -0.1828
 8668W        W24285   7.836  16.723  12.940 -0.1039  0.0124 -0.2877
 8669W        W24286   0.049  14.320  12.259 -0.1124 -0.0829 -0.1704
 8670W        W24287  14.986  16.889   2.109 -0.0758  0.1130  0.0244
 8671W        W24288   5.887  17.446   0.727  0.2112  0.1592  0.2691
 8672W        W24289   0.621   1.692   2.615 -0.3119 -0.1208  0.0769
 8673W        W24290   0.856   7.763  12.979  0.1710  0.3311  0.0151
 8674W        W24291  12.257   4.585  13.657 -0.1281  0.0798  0.0341
 8675W        W24292   9.222   7.371  15.169 -0.1028  0.0212  0.1189
 8676W        W24293   0.946  17.324   9.979  0.3968 -0.1118  0.0681
 8677W        W24294  17.785   3.192  14.739  0.0521  0.0959 -0.0380
 8678W        W24295  18.567   0.180   2.947  0.3819 -0.3950 -0.0403
 8679W        W24296   1.111   6.875   2.897 -0.0053  0.1280 -0.0865
 8680W        W24297   0.617   5.450   1.890 -0.3343 -0.3013 -0.2356
 8681W        W24298  16.123  16.195  10.843  0.1156 -0.0647  0.0336
 8682W        W24299   3.969  14.699   9.598 -0.1658  0.1730  0.5327
 8683W        W24300  11.997  17.867  10.752 -0.1339  0.0060  0.1152
 8684W        W24301  18.679  18.848  10.398 -0.0988 -0.1612 -0.0098
 8685W        W24302   9.661  10.158  10.226  0.2840 -0.0056  0.1080
 8686W        W24303   6.260   4.590  11.227 -0.0193 -0.0381 -0.2530
 8687W        W24304  17.199   7.030  14.767 -0.0019 -0.2435 -0.0148
 8688W        W24305   3.385   2.082   1.529 -0.1639 -0.2659  0.0154
 8689W        W24306  18.415  15.213   3.813 -0.0665 -0.0314  0.1775
 8690W        W24307  11.680   6.336  13.756  0.0692 -0.1238 -0.2138
 8691W        W24308  13.119   6.431   0.357  0.2249 -0.0617 -0.2391
 8692W        W24309   7.322   3.148   2.251 -0.0871 -0.1214  0.0979
 8693W        W24310  18.717   3.696  12.702  0.1766 -0.4299 -0.2706
 8694W        W24311   3.239  17.016  11.958 -0.0235 -0.0784  0.0848
 8695W        W24312   1.629   9.021   0.052  0.2761 -0.3381 -0.0917
 8696W        W24313  14.310   3.532   3.409 -0.2090  0.1086  0.2495
 8697W        W24314  14.877   7.700   0.193 -0.1706  0.0777 -0.5733
 8698W        W24315   5.138   3.146   4.316  0.0898  0.1872 -0.2336
 8699W        W24316  15.328  12.041  14.219  0.2909 -0.0047 -0.1280
 8700W        W24317  12.011   4.372   1.065  0.0578 -0.3100 -0.0692
 8701W        W24318  11.786   3.890  10.309  0.1253 -0.0683 -0.1667
 8702W        W24319   1.376   1.796  12.009  0.0322  0.1923  0.0261
 8703W        W24320   9.694   4.585   1.545 -0.0218 -0.1217  0.1099
 8704W        W24321   8.412   4.051   3.967  0.0533 -0.2384  0.0972
 8705W        W24322  17.182  11.762  12.807 -0.0271  0.1959  0.2933
 8706W        W24323   5.853   1.725   4.129  0.0727  0.0276  0.0153
 8707W        W24324   1.225   7.459   2.009 -0.3350  0.2400  0.3446
 8708W        W24325  16.693   3.831   4.901  0.0983 -0.1232 -0.1673
 8709W        W24326   3.382  14.932  11.045  0.2525  0.0198 -0.3722
 8710W        W24327   3.289   1.271   2.712  0.0984  0.3356  0.0235
 8711W        W24328   9.961   8.789   3.598  0.1067 -0.1261 -0.0900
 8712W        W24329  18.564  11.013  14.115  0.0461  0.3034  0.0533
 8713W        W24330   7.049  17.200  14.119  0.3234  0.0158 -0.2089
 8714W        W24331   6.072  16.667   0.386 -0.0935  0.0906 -0.1203
 8715W        W24332   0.682  16.242  11.967 -0.2969 -0.0866  0.2430
 8716W        W24333   6.897   4.861   5.868  0.1679 -0.2612  0.1681
 8717W        W24334  17.409   6.874  14.337 -0.0776  0.3875 -0.1546
 8718W        W24335  14.807   2.618   2.405  0.0554 -0.0997 -0.0271
 8719W        W24336  18.987  18.507  14.093 -0.1308  0.0622 -0.0047
 8720W        W24337   4.208   9.812  12.790  0.0374  0.0178  0.1929
 8721W        W24338  14.569   9.332  13.651  0.0832  0.2841  0.1337
 8722W        W24339   0.509   4.305  12.966 -0.0491  0.2194  0.1445
 8723W        W24340  17.682  10.456  15.258 -0.0081 -0.2846 -0.0141
 8724W        W24341  16.614  17.945  12.791  0.0041  0.2258 -0.0764
 8725W        W24342  12.307   8.202  14.964 -0.0261  0.0445 -0.1546
 8726W        W24343   2.652  16.198   1.240  0.0355 -0.5083 -0.0751
 8727W        W24344   3.988   6.312   0.415  0.1466  0.0926  0.0330
 8728W        W24345   5.953   0.313  14.791  0.2788  0.0618 -0.0031
 8729W        W24346  11.089   9.662   4.146  0.1921 -0.1519  0.3437
 8730W        W24347   9.569   0.251   1.171 -0.0513 -0.0479  0.0329
 8731W        W24348  12.826   7.086   3.822 -0.0560 -0.0513  0.0668
 8732W        W24349  13.171  18.107  14.040  0.0127  0.1020  0.0768
 8733W        W24350   2.075   5.915   0.179 -0.3383  0.0352  0.0335
 8734W        W24351   2.744  16.737   1.900 -0.3849  0.1042  0.1773
 8735W        W24352  10.788   6.705   3.987 -0.1380 -0.4221  0.0856
 8736W        W24353  15.812   5.258   1.327 -0.3385 -0.0323  0.1920
 8737W        W24354  17.991   0.248  12.161 -0.0098  0.0131  0.1296
 8738W        W24355   5.238  18.806   1.293 -0.0338  0.1737 -0.1471
 8739W        W24356   1.784  12.039  10.992  0.0370  0.2212 -0.1278
 8740W        W24357   3.028  10.365  11.176  0.0472 -0.3796  0.1039
 8741W        W24358  11.228  17.348   2.166 -0.0597 -0.1007  0.0006
 8742W        W24359  15.210  12.687   0.683  0.0832 -0.1231 -0.0015
 8743W        W24360  18.710   2.039  10.369 -0.0156 -0.3356 -0.0337
 8744W        W24361   2.244  18.537   0.830 -0.2131  0.0568  0.0373
 8745W        W24362  13.037  15.808   5.118 -0.0218 -0.0928 -0.5359
 8746W        W24363  15.244   7.177  12.055 -0.2644 -0.0518  0.0145
 8747W        W24364   2.191  12.763   0.505 -0.0576 -0.2293 -0.3507
 8748W        W24365  16.240  14.053   2.724 -0.1824  0.2408 -0.1111
 8749W        W24366   7.479  14.986   1.589 -0.0187  0.3796 -0.1628
 8750W        W24367  15.706  13.077   3.681  0.1871 -0.1659 -0.0979
 8751W        W24368  18.727  10.742   5.705 -0.1507 -0.1344 -0.0715
 8752W        W24369  13.133   5.738  11.744  0.1823 -0.0407  0.0105
 8753W        W24370   3.446   4.932  12.163  0.1289 -0.5248  0.0375
 8754W        W24371   7.371  18.658   1.829 -0.1408  0.0686  0.3472
 8755W        W24372  10.874   5.745  14.110  0.2425  0.2638 -0.0579
 8756W        W24373  13.284   4.841  12.032 -0.0665 -0.1401  0.1036
 8757W        W24374  14.793   1.793  11.954 -0.1790  0.0891 -0.0810
 8758W        W24375  10.297   8.633  13.591  0.1835  0.4470 -0.0390
 8759W        W24376  11.711   1.008  14.977 -0.0002  0.2928 -0.4555
 8760W        W24377  18.000   7.847   2.673 -0.1407 -0.2881 -0.2141
 8761W        W24378  18.556  13.361  12.387  0.0552 -0.0490 -0.0050
 8762W        W24379  10.797  10.953   0.143  0.1504  0.2673 -0.3712
 8763W        W24380  11.444  12.146   0.003  0.1450 -0.1931  0.1893
 8764W        W24381  14.583   5.179   2.690  0.0994 -0.1518  0.3302
 8765W        W24382   9.550   4.823  14.273 -0.1130  0.3516 -0.0070
 8766W        W24383   8.925  12.905   3.404 -0.1381  0.1324 -0.2113
 8767W        W24384   6.040  14.518   2.909  0.3105  0.2604  0.0072
 8768W        W24385  15.861   4.967  12.942  0.2811  0.1732 -0.1763
 8769W        W24386   4.999   7.947   1.242 -0.2814  0.0601  0.1228
 8770W        W24387  13.960  13.057   2.260  0.3528  0.2550 -0.1727
 8771W        W24388  13.375  14.971  11.260  0.0197  0.1681  0.2972
 8772W        W24389  10.989  18.791   4.456 -0.3031  0.2331  0.0236
 8773W        W24390   5.833  16.679   4.218  0.1193 -0.1181  0.0501
 8774W        W24391  14.073   2.750   1.580 -0.0510  0.0469  0.1508
 8775W        W24392  13.672  11.717   2.763  0.0026  0.3845 -0.3552
 8776W        W24393  11.233  14.777  12.638 -0.0547  0.0472 -0.1358
 8777W        W24394  12.918  16.903   2.507 -0.0848  0.0856 -0.3245
 8778W        W24395   6.738   1.933  15.147  0.4077  0.1144 -0.0543
 8779W        W24396   4.507   6.057  12.150 -0.0130 -0.1437 -0.3447
 8780W        W24397   4.537   4.717   3.793 -0.0381 -0.0669 -0.4184
 8781W        W24398   4.855   2.738   4.444 -0.0239 -0.3330  0.0720
 8782W        W24399   8.550   7.499   0.306 -0.0728  0.3243  0.1959
 8783W        W24400   4.030  11.788   3.967  0.0334  0.0554 -0.1228
 8784W        W24401   3.656   7.455  10.859 -0.0752  0.1809  0.2428
 8785W        W24402   6.359   9.234  12.266  0.1988  0.1057  0.2539
 8786W        W24403   7.870  11.202   1.665  0.0661 -0.2521  0.0584
 8787W        W24404   0.396  13.559   2.499 -0.1693  0.2755  0.3925
 8788W        W24405  17.710   7.927  10.921 -0.4539  0.0858  0.1111
 8789W        W24406   4.136  14.782   3.528  0.3835  0.0671 -0.1435
 8790W        W24407   0.658   7.019   2.832  0.2867  0.1218  0.0083
 8791W        W24408  14.887  11.049  14.698 -0.1352  0.1692 -0.2393
 8792W        W24409  11.010   3.550  13.286 -0.0815 -0.0175  0.0988
 8793W        W24410  16.552   5.242  11.621  0.1619 -0.0924 -0.1186
 8794W        W24411   9.912   3.878   4.693 -0.2825  0.0280 -0.0526
 8795W        W24412   0.495   8.650   5.146 -0.0599  0.1317  0.0178
 8796W        W24413  17.413  16.145  12.835  0.2156 -0.2024 -0.1703
 8797W        W24414  12.381  18.621  12.308 -0.0234  0.0846  0.1597
 8798W        W24415  12.891  18.746   1.591 -0.1991 -0.0571 -0.2729
 8799W        W24416  16.404   0.172  11.153 -0.0529 -0.2423  0.1005
 8800W        W24417   5.379   1.314  12.317  0.2395  0.2473  0.0635
 8801W        W24418  10.881   0.019   0.191 -0.0795  0.6010  0.0470
 8802W        W24419   8.114  15.017   5.236 -0.2582 -0.0528  0.1857
 8803W        W24420   1.913  17.324   4.208  0.1338 -0.1088  0.0736
 8804W        W24421   4.909   6.444  11.844  0.0796  0.0851 -0.0136
 8805W        W24422   8.548   4.960  15.260  0.1653  0.2541  0.3728
 8806W        W24423   0.675   4.628   0.930  0.0575  0.1356 -0.0907
 8807W        W24424  18.626  14.275  14.498  0.0992  0.2037 -0.2496
 8808W        W24425   9.185  19.022   4.990  0.1026  0.2462  0.0645
 8809W        W24426   0.422  10.181   2.860 -0.1159 -0.1106 -0.1351
 8810W        W24427  18.087  16.076   4.251 -0.1559  0.2756  0.2978
 8811W        W24428   0.905   7.143   5.930  0.1563 -0.1732  0.0615
 8812W        W24429   9.328  11.922  15.229 -0.2012  0.0598 -0.0110
 8813W        W24430   0.111  10.883   3.435 -0.1834 -0.0253  0.0263
 8814W        W24431  12.397   7.847   0.520 -0.1723  0.2622  0.1867
 8815W        W24432   4.103   3.183  12.503  0.2388 -0.0503  0.2778
 8816W        W24433  12.547  12.362   0.528  0.0024  0.0110 -0.1108
 8817W        W24434   6.152   7.324   2.598 -0.0045 -0.0957 -0.0085
 8818W        W24435   2.998   5.669   2.393 -0.1060 -0.4484  0.0805
 8819W        W24436   4.099   6.892  14.557 -0.6528  0.1605 -0.0163
 8820W        W24437   4.872   1.407   0.059 -0.1518  0.1912 -0.4722
 8821W        W24438  16.930  12.987  10.823  0.3579  0.1935  0.1598
 8822W        W24439  12.024   7.603   3.779 -0.1650  0.2941  0.1936
 8823W        W24440   3.320   7.787  14.338  0.1827 -0.0798  0.3170
 8824W        W24441  11.730   0.025   3.235  0.0108  0.1926 -0.1236
 8825W        W24442   4.387  10.449  12.014 -0.1887 -0.0606  0.1617
 8826W        W24443   6.356  16.751  15.257 -0.0095 -0.5259  0.0269
 8827W        W24444   1.156  12.692  12.160 -0.2987  0.0657  0.0165
 8828W        W24445  13.812  10.401   2.843 -0.0934  0.1752 -0.1632
 8829W        W24446  17.960  16.365   3.172  0.1261 -0.0687 -0.1560
 8830W        W24447  14.657  14.385   3.552  0.1756  0.0996  0.1424
 8831W        W24448   0.030  17.904  12.670  0.2602  0.3429 -0.1264
 8832W        W24449   9.562   9.195   1.188 -0.3209  0.0524 -0.0152
 8833W        W24450   4.023   6.251   2.416  0.1561 -0.1533 -0.0261
 8834W        W24451   9.320   7.841   1.906 -0.3625  0.0610  0.3272
 8835W        W24452   3.290  10.285   1.285 -0.0284 -0.0321 -0.0521
 8836W        W24453  17.724   4.920   0.539 -0.0966 -0.1437 -0.0831
 8837W        W24454  17.121  18.415   3.995  0.1411 -0.2026 -0.1263
 8838W        W24455  12.249  16.999  11.783  0.0366  0.0530  0.0907
 8839W        W24456   1.536  18.370  10.690  0.1397 -0.0463 -0.0697
 8840W        W24457   1.588   3.097   1.961 -0.0092  0.2756  0.1296
 8841W        W24458   6.592   7.523  13.352 -0.2126  0.0014 -0.1588
 8842W        W24459  11.309   0.151  13.967  0.0601  0.0628 -0.1835
 8843W        W24460  15.491   3.208   4.667  0.1672 -0.2468  0.0513
 8844W        W24461   8.471   5.385   4.454  0.2293 -0.1073 -0.1239
 8845W        W24462  16.537   2.725   2.365  0.1029 -0.0885 -0.0002
 8846W        W24463   0.227  13.143  11.957  0.0279 -0.4117 -0.1027
 8847W        W24464   9.020   6.218  14.436  0.3164  0.2986 -0.0539
 8848W        W24465   8.327  11.854   3.974  0.4084  0.0595  0.0912
 8849W        W24466   5.340   4.555   0.807  0.0647 -0.0032 -0.2786
 8850W        W24467   1.468   2.553  12.009 -0.1713  0.0109  0.1578
 8851W        W24468   3.744  16.525  13.718  0.1522  0.1813 -0.2247
 8852W        W24469   1.572  12.716  10.105  0.0237 -0.3557  0.0828
 8853W        W24470  16.999  17.270   2.683  0.2601 -0.1458 -0.1189
 8854W        W24471  10.529   4.097   0.878 -0.0627 -0.2660  0.0663
 8855W        W24472   7.787  18.406   5.065 -0.0198  0.0404 -0.1210
 8856W        W24473   0.551  18.536   1.659  0.1428  0.1556  0.3361
 8857W        W24474   7.522  14.507  11.663  0.2037  0.3807 -0.0224
 8858W        W24475  11.954  15.567  10.706 -0.1706 -0.3288  0.2744
 8859W        W24476   1.348  14.072   4.028 -0.3126 -0.0615 -0.1782
 8860W        W24477   3.512   9.049   1.631 -0.0695  0.3149  0.0090
 8861W        W24478  11.258  11.121   0.910 -0.1026 -0.0212 -0.0984
 8862W        W24479   7.653  13.459   3.465  0.0057  0.3029 -0.3955
 8863W        W24480  13.369   7.557   2.932 -0.0967 -0.0261 -0.3059
 8864W        W24481  10.201  10.295   0.099 -0.3659  0.0590 -0.2138
 8865W        W24482   3.632   3.712   2.170 -0.0043  0.0613 -0.3082
 8866W        W24483  18.195   6.416   2.321 -0.2223  0.4494  0.3212
 8867W        W24484  17.277  18.997   5.834 -0.2636  0.1740 -0.3175
 8868W        W24485   9.551  11.738   1.990  0.1410  0.0424  0.1428
 8869W        W24486  14.444   1.215  12.704  0.1746  0.0604 -0.0267
 8870W        W24487  12.879   3.863   4.666 -0.1871  0.2221 -0.0013
 8871W        W24488  11.111   7.088   4.038  0.1463 -0.3167 -0.1315
 8872W        W24489  11.454  16.024  12.494  0.0037  0.2507 -0.0922
 8873W        W24490   6.934   1.433   0.426  0.2451 -0.1073  0.0134
 8874W        W24491   6.661   6.114   4.718 -0.3421 -0.1350 -0.3367
 8875W        W24492   6.808   9.507  12.933  0.3234 -0.2259 -0.2450
 8876W        W24493   2.574   6.629  14.001 -0.0423 -0.0699  0.2490
 8877W        W24494  12.569  16.045  11.891  0.2920 -0.2338  0.2367
 8878W        W24495   2.772  15.882  14.698 -0.1656 -0.2485  0.1479
 8879W        W24496   3.277   0.985  13.918  0.1565 -0.0051  0.0388
 8880W        W24497   7.863   9.042   0.107 -0.2519  0.3184  0.2069
 8881W        W24498   8.212  17.340  12.586  0.1310 -0.1746  0.6283
 8882W        W24499   6.023  17.870   2.428  0.0284  0.5544 -0.1095
 8883W        W24500  17.295   7.554   0.612  0.1569  0.0680 -0.1410
 8884W        W24501  17.975   9.028  11.152 -0.0279  0.2757 -0.2944
 8885W        W24502  14.088   7.127   4.359 -0.1340  0.1001  0.1406
 8886W        W24503  11.061   5.744  10.593  0.0902 -0.1553  0.3064
 8887W        W24504   2.530   7.282   1.663 -0.0830  0.1582 -0.1136
 8888W        W24505  17.269   8.707  11.433  0.0822  0.1362 -0.0491
 8889W        W24506   1.836  16.145   4.328  0.3623 -0.1459 -0.1572
 8890W        W24507  12.175  15.520   3.130  0.2496 -0.0173 -0.0207
 8891W        W24508  16.498   8.095   2.890 -0.0354 -0.0903 -0.1274
 8892W        W24509  10.806   7.217   2.335  0.0117 -0.0476 -0.0364
 8893W        W24510  15.693   0.726   0.959  0.0219  0.1257  0.1349
 8894W        W24511  17.806  10.442   4.271  0.0326  0.1579 -0.3011
 8895W        W24512   6.179   9.029   3.388 -0.0685 -0.3811 -0.3384
 8896W        W24513  17.034   0.554   0.762 -0.3272  0.2379  0.0532
 8897W        W24514  18.446  11.752  10.174  0.2106  0.4850 -0.3274
 8898W        W24515  10.028  16.823   3.518  0.0907  0.1663 -0.1083
 8899W        W24516  14.565   6.574  11.624  0.2402 -0.1885 -0.0372
 8900W        W24517   9.437   1.681  13.946 -0.1681 -0.0722  0.3371
 8901W        W24518   5.414   6.793   3.120 -0.0368  0.0808  0.1505
 8902W        W24519  13.374   5.209  12.491 -0.1654  0.3616 -0.0024
 8903W        W24520   5.057   7.135  14.713 -0.2053 -0.2158 -0.3376
 8904W        W24521   7.492   6.021   3.150  0.0728 -0.1013  0.2336
 8905W        W24522   7.088  10.658  13.170 -0.3299 -0.1690 -0.3238
 8906W        W24523   2.188  16.244  13.986  0.1173 -0.0843  0.4669
 8907W        W24524  14.891   8.920  14.753 -0.0367  0.1417 -0.1500
 8908W        W24525  13.913  13.531   1.372  0.1529  0.2993 -0.1123
 8909W        W24526  17.723   9.453  14.902  0.4776 -0.0382  0.1375
 8910W        W24527   8.012   3.068   3.982  0.0612 -0.0362 -0.1712
 8911W        W24528  17.521   6.769   0.476 -0.4273  0.1069 -0.0893
 8912W        W24529   5.371   7.295   4.090  0.0016 -0.0976  0.1662
 8913W        W24530   8.523   6.243   1.713 -0.1770  0.3705  0.1769
 8914W        W24531  11.321  17.734   4.346  0.4078 -0.1436  0.0075
 8915W        W24532  13.072   6.277   2.205 -0.0536 -0.0821 -0.2705
 8916W        W24533  12.856   3.491  14.914 -0.2205  0.3618  0.0317
 8917W        W24534   8.487   4.777  13.386 -0.1777 -0.1136 -0.1607
 8918W        W24535  15.097  14.950   1.872 -0.1711  0.1184  0.1232
 8919W        W24536  16.738  14.495   1.559  0.0531 -0.0281 -0.3165
 8920W        W24537  18.164   6.786   2.657  0.1141 -0.0641 -0.0462
 8921W        W24538   7.683  15.316   3.980 -0.1358  0.0234 -0.1843
 8922W        W24539  10.099   7.973  13.315 -0.1746 -0.1634 -0.0528
 8923W        W24540  11.311   1.000   0.988  0.1101 -0.1015  0.1022
 8924W        W24541  11.880  15.853  12.365 -0.1286 -0.1330  0.0594
 8925W        W24542   7.596   1.036   4.989  0.3635  0.0379 -0.2396
 8926W        W24543   7.903   8.560   5.044 -0.1148  0.2589 -0.0729
 8927W        W24544   4.818   1.045  13.560  0.1781 -0.0214 -0.1891
 8928W        W24545  14.235   7.158  13.030  0.0494 -0.2100  0.1386
 8929W        W24546   7.095  13.821  14.498 -0.2735  0.0709  0.1249
 8930W        W24547  14.869  10.787   1.997  0.1015 -0.0358 -0.2135
 8931W        W24548   0.062   0.182   3.387 -0.0522  0.0173  0.1262
 8932W        W24549   3.032  16.852   0.672 -0.1860  0.1141  0.2774
 8933W        W24550   3.750   4.172   0.796 -0.1851  0.1294  0.1717
 8934W        W24551  12.294   6.609   2.408 -0.0718  0.0439  0.2003
 8935W        W24552  10.831  15.219  13.953  0.0613  0.3532 -0.0980
 8936W        W24553   2.682   6.956   1.292  0.1955  0.1294 -0.0795
 8937W        W24554  10.081  11.396   4.454 -0.0899  0.0148 -0.0996
 8938W        W24555   2.120   6.200   2.946 -0.0048  0.0052  0.1299
 8939W        W24556   9.911   0.591  14.776  0.0782  0.3369 -0.1902
 8940W        W24557  16.783   2.602  14.294 -0.1632  0.1671  0.0887
 8941W        W24558  14.379   7.601  13.633 -0.0076  0.0763 -0.0160
 8942W        W24559   6.275   8.906   1.989  0.0008 -0.1612 -0.2016
 8943W        W24560  13.412  11.718   4.787  0.1461  0.3263  0.0613
 8944W        W24561   7.083   7.296   2.459 -0.0635  0.0013  0.1744
 8945W        W24562   9.549   0.887  13.860  0.0948 -0.0518  0.1263
 8946W        W24563   9.025   9.181  11.671 -0.1442  0.3444 -0.0057
 8947W        W24564   2.350  16.087   4.362 -0.1367 -0.2373  0.0500
 8948W        W24565  12.722  11.026  14.956  0.0116 -0.1490 -0.0883
 8949W        W24566  14.701  16.777  14.943  0.3009  0.1429  0.0782
 8950W        W24567   4.463   2.720   3.784 -0.0482 -0.1241  0.0830
 8951W        W24568   8.783   3.303   2.721  0.0377 -0.0892  0.2626
 8952W        W24569  17.882  12.755  11.787 -0.0476 -0.3016 -0.0786
 8953W        W24570  13.838   3.216  12.579 -0.1771  0.1992  0.0556
 8954W        W24571   9.204  12.984   1.894  0.2463  0.1574  0.1323
 8955W        W24572  18.011   2.503   1.512  0.1480 -0.0802 -0.2811
 8956W        W24573  18.384   7.144  14.797  0.1915  0.0690 -0.0665
 8957W        W24574  13.819   6.061  12.451 -0.1031 -0.0131 -0.0190
 8958W        W24575  15.223  18.872   1.004  0.0464  0.0596  0.0003
 8959W        W24576  16.647   7.840   1.859 -0.0657  0.0886  0.1660
 8960W        W24577   3.097   6.839   4.221 -0.0588 -0.0386  0.0966
 8961W        W24578  17.566   7.620   2.559  0.0328  0.3623  0.1339
 8962W        W24579   1.335   9.399  15.053  0.1159 -0.1830 -0.2365
 8963W        W24580   3.226   6.408   3.234 -0.3180 -0.2448  0.1804
 8964W        W24581   8.338   2.018  11.846 -0.2243 -0.2610  0.0746
 8965W        W24582   8.626   5.030   3.204  0.1470  0.0095 -0.0407
 8966W        W24583   2.626   2.842  11.149  0.1516  0.0779  0.0409
 8967W        W24584  10.365  15.399   1.938 -0.0689 -0.0617 -0.2444
 8968W        W24585  13.548   7.549   2.188  0.1424 -0.0232 -0.0889
 8969W        W24586   4.192   3.792  14.014  0.0350  0.3855 -0.4514
 8970W        W24587  14.388  17.594   9.677  0.1400 -0.3027 -0.0388
 8971W        W24588   8.036   3.182  15.066 -0.1192 -0.0373  0.1378
 8972W        W24589  11.620   4.652   1.496  0.1967  0.2640  0.1818
 8973W        W24590  10.706  12.309  14.020 -0.6416  0.1062  0.2209
 8974W        W24591  11.306  14.244  10.822 -0.4340 -0.2312 -0.1711
 8975W        W24592   8.189   2.052   4.076  0.0596 -0.0596  0.0694
 8976W        W24593   3.621  18.393  10.352 -0.0437 -0.0581  0.1706
 8977W        W24594   0.664   2.846  14.588 -0.0313 -0.1402 -0.2015
 8978W        W24595  18.576   8.810   0.319  0.1717 -0.1144 -0.0681
 8979W        W24596   8.185   1.085  10.090  0.1939 -0.1093 -0.2638
 8980W        W24597  12.427  15.218   0.821 -0.0845 -0.1329 -0.1139
 8981W        W24598   2.988   9.980   4.820  0.0784 -0.3492  0.2052
 8982W        W24599  10.020   0.610   0.321  0.0955  0.0650  0.3210
 8983W        W24600  11.103  14.906   3.562  0.1148 -0.1706 -0.3395
 8984W        W24601   5.025  12.205  13.783  0.0222  0.1244  0.0600
 8985W        W24602  12.420  12.950   3.485 -0.1324 -0.0927 -0.2804
 8986W        W24603   1.198  12.150   3.284  0.2784 -0.1233  0.1824
 8987W        W24604  16.862  13.240   2.845 -0.3067 -0.0045  0.2555
 8988W        W24605  12.664   4.249   4.851  0.0576 -0.0433 -0.1888
 8989W        W24606   7.422  10.288   3.954 -0.2515  0.0882 -0.0905
 8990W        W24607  18.889  10.866   0.441  0.0656  0.0798  0.0224
 8991W        W24608  16.769  16.816  12.213  0.2216 -0.3854  0.2846
 8992W        W24609   9.073   4.389   1.559 -0.3454  0.0404  0.0240
 8993W        W24610   4.884  12.565   4.415  0.0750 -0.2134  0.1397
 8994W        W24611  10.918  10.186   2.598 -0.4724  0.1190 -0.0823
 8995W        W24612   1.919   1.318  14.659  0.4254  0.0104  0.1888
 8996W        W24613  15.862  12.354  13.226  0.2010 -0.1384  0.0808
 8997W        W24614   3.534   7.504  12.530 -0.2069  0.1810  0.1995
 8998W        W24615  12.991  13.700   1.267 -0.2609  0.1119 -0.0180
 8999W        W24616  14.219   5.306   2.332  0.0168 -0.4211  0.1266
 9000W        W24617   3.045   1.958   3.208 -0.0839  0.0235 -0.0451
 9001W        W24618   4.246  11.179  13.204 -0.2852  0.0177 -0.0654
 9002W        W24619  15.930  18.512  13.076 -0.2331  0.0024  0.0737
 9003W        W24620   8.044  10.471   3.238 -0.0326  0.2428 -0.0313
 9004W        W24621  18.056   0.720  13.972  0.0237 -0.1088  0.1116
 9005W        W24622   3.484  12.026  15.024 -0.0719 -0.2048  0.3259
 9006W        W24623  15.048   6.280   3.220  0.1820  0.1355  0.2613
 9007W        W24624   0.443   2.008  13.041  0.0192 -0.0606 -0.1784
 9008W        W24625   9.273  16.051   5.642 -0.3089  0.0933  0.2123
 9009W        W24626   4.081  14.032  10.500  0.0394 -0.0408  0.0462
 9010W        W24627   3.751  12.525   1.786  0.3593 -0.0524  0.4648
 9011W        W24628  11.657  17.064   2.291 -0.0184 -0.1693  0.1916
 9012W        W24629  15.172  12.695  14.324 -0.3425  0.1659  0.0347
 9013W        W24630   8.155  17.340   2.790  0.0605  0.0463 -0.1085
 9014W        W24631  11.111   9.034   0.707 -0.3161  0.0525 -0.2884
 9015W        W24632  15.265   4.451  13.834 -0.0578  0.1331 -0.0436
 9016W        W24633  11.355  12.539  11.143 -0.0136 -0.1261  0.0331
 9017W        W24634   3.920   1.224   3.009  0.0294  0.0289  0.0444
 9018W        W24635   1.885   6.319   0.932  0.1013  0.0991  0.1380
 9019W        W24636   2.356  18.510   4.767 -0.0361  0.3437  0.3384
 9020W        W24637   6.485  14.540   2.583  0.1352  0.2278  0.0357
 9021W        W24638   4.836   3.963   3.790  0.0887  0.2348  0.1699
 9022W        W24639  16.408   3.082   1.553  0.1458 -0.0302  0.0270
 9023W        W24640   1.786  15.484  14.532 -0.0184 -0.2382 -0.0890
 9024W        W24641   1.753  14.797  12.438 -0.0559  0.3120 -0.1361
 9025W        W24642   0.375   6.827   3.502  0.0136 -0.0297  0.1583
 9026W        W24643   2.485  17.131   4.892  0.1359  0.0267 -0.0359
 9027W        W24644  12.653  10.517  13.000  0.3895  0.1302 -0.2273
 9028W        W24645   7.009   9.213  10.600  0.1201 -0.1195 -0.3408
 9029W        W24646   7.451   6.374   2.427 -0.4585  0.1484  0.1172
 9030W        W24647   8.481   9.018  10.993 -0.2294 -0.1797  0.0485
 9031W        W24648   7.791  18.576   9.892 -0.3790  0.0014  0.2086
 9032W        W24649  12.643   1.916   4.416  0.1882 -0.1503 -0.1048
 9033W        W24650   0.761   6.292   4.663 -0.2353  0.0872 -0.0316
 9034W        W24651  11.492   7.369   0.977 -0.3670 -0.0329  0.0049
 9035W        W24652  13.008  11.515   0.288 -0.0187  0.1978 -0.5105
 9036W        W24653  12.053   3.037   5.727  0.0790  0.2751  0.1652
 9037W        W24654   7.343   3.939  10.799  0.2534  0.1004 -0.2570
 9038W        W24655  11.203   4.000  13.105  0.1746  0.2648  0.1597
 9039W        W24656  14.548   0.732  12.533 -0.0826  0.1226  0.0465
 9040W        W24657   1.020   3.831   1.251  0.0518  0.0253 -0.0793
 9041W        W24658   0.775   9.070  12.944  0.0694  0.0153  0.0819
 9042W        W24659   1.110   5.213   0.518  0.0130 -0.0830 -0.1580
 9043W        W24660   8.187  10.513  12.777  0.4426 -0.4488 -0.1657
 9044W        W24661  10.482  17.618   2.977 -0.2272 -0.0598 -0.2086
 9045W        W24662  18.933   2.298   4.699  0.1051  0.0204  0.1370
 9046W        W24663   6.821  12.336  11.625 -0.1481  0.3147 -0.1664
 9047W        W24664  17.900   0.773   5.029 -0.3248  0.0211  0.2977
 9048W        W24665   9.723   4.361   2.552 -0.4057 -0.0174  0.0767
 9049W        W24666   5.889   8.360   2.680  0.0340  0.1353  0.0251
 9050W        W24667   2.688   3.381  13.440 -0.2671  0.0955  0.1719
 9051W        W24668   4.833   5.889   3.132 -0.4236 -0.2192 -0.2452
 9052W        W24669  10.100  14.503  11.164  0.1512  0.2690 -0.0130
 9053W        W24670  18.225  13.463   0.535 -0.0928 -0.4437  0.4157
 9054W        W24671   3.456  15.635   0.012  0.3600  0.0615  0.0884
 9055W        W24672  18.951   1.689   2.099 -0.0647 -0.2398  0.2004
 9056W        W24673  13.892   8.674   1.050  0.2263  0.1242  0.5438
 9057W        W24674   3.240  16.082   2.808 -0.2136  0.1216  0.2811
 9058W        W24675   6.962   1.917   0.874  0.1571 -0.0135 -0.2850
 9059W        W24676  17.046   6.699   0.368  0.1156  0.0910 -0.0114
 9060W        W24677  13.625  15.241  14.078 -0.0517  0.4397  0.3687
 9061W        W24678  13.915  10.731   2.378  0.2377  0.0233 -0.2698
 9062W        W24679  18.121   8.409   3.541  0.0054  0.1060 -0.1319
 9063W        W24680  17.511   4.271  12.784 -0.0013  0.1105  0.1608
 9064W        W24681  12.115   7.031  10.576 -0.0763  0.0104 -0.0668
 9065W        W24682   2.296   3.858  11.050  0.1093  0.0538  0.1431
 9066W        W24683  16.330  11.774   2.655 -0.0284 -0.4172 -0.2104
 9067W        W24684  14.006   9.621   0.090 -0.1701 -0.0197 -0.0890
 9068W        W24685  11.636   9.538  12.904 -0.1738  0.2666  0.3881
 9069W        W24686   5.445   2.547   3.796  0.0360  0.1257  0.0926
 9070W        W24687   5.793   6.527  14.057  0.0466 -0.2192  0.0778
 9071W        W24688   7.163  18.770   4.608 -0.0459 -0.0225 -0.2288
 9072W        W24689   5.297  16.384  15.218 -0.1990 -0.2991  0.4171
 9073W        W24690   7.139  15.693   1.047  0.1889  0.1932  0.1885
 9074W        W24691   6.689   9.582   2.755 -0.0460  0.2192  0.5665
 9075W        W24692  17.631  14.198   4.068  0.0191 -0.2758 -0.0609
 9076W        W24693   3.103  14.545   0.902  0.1438  0.1551 -0.0378
 9077W        W24694  18.699   2.788  12.586  0.4204  0.4321 -0.0407
 9078W        W24695  12.460  10.883   2.436 -0.0990  0.0005 -0.1286
 9079W        W24696   0.505   6.927  12.433 -0.3155 -0.3510 -0.4901
 9080W        W24697  16.717  18.062   3.847 -0.0641 -0.1396 -0.2848
 9081W        W24698  17.726   7.242  14.184  0.0791  0.5020 -0.4060
 9082W        W24699   8.409  18.904  13.207  0.3502  0.1497  0.1618
 9083W        W24700   5.081  10.466   3.312  0.2767 -0.1266  0.3139
 9084W        W24701  15.604   8.063  10.518  0.3118 -0.0899  0.0170
 9085W        W24702   7.040   7.345   1.014  0.2898 -0.0055  0.1331
 9086W        W24703  17.779  14.940  14.724  0.2104 -0.1503 -0.0764
 9087W        W24704   9.721  17.518  12.976  0.2058  0.3155 -0.1549
 9088W        W24705   8.337   6.956  10.956  0.1575 -0.0895 -0.0831
 9089W        W24706   0.938   7.190   4.269  0.1356  0.1237 -0.0914
 9090W        W24707  18.046   8.841   5.295 -0.0867 -0.1758  0.0549
 9091W        W24708  13.650  16.084  14.438 -0.0870  0.1857  0.1534
 9092W        W24709  15.061  15.292  10.557 -0.2949  0.2145 -0.1052
 9093W        W24710  11.076   4.153  10.964  0.1513 -0.3004  0.2882
 9094W        W24711  10.283  13.767  14.241 -0.0148  0.0501  0.0292
 9095W        W24712  16.250   9.470   2.381 -0.0320 -0.2207 -0.2290
 9096W        W24713   4.803   4.883  12.609 -0.0262  0.2198 -0.0246
 9097W        W24714   4.066  12.098   0.765 -0.1483 -0.3202 -0.2132
 9098W        W24715   4.273   5.700  13.982 -0.1010  0.2076  0.4113
 9099W        W24716   1.643   5.206  14.761  0.3687  0.6031  0.0647
 9100W        W24717  14.563   0.250   0.501  0.3546  0.1346 -0.1702
 9101W        W24718   7.652  18.810   4.709  0.1739 -0.0661 -0.0533
 9102W        W24719   6.289  18.428   0.744  0.0136  0.4240 -0.1098
 9103W        W24720  16.258   9.210   0.330 -0.1964 -0.2846  0.1939
 9104W        W24721   9.693   3.404  10.651 -0.0294  0.0820 -0.1937
 9105W        W24722   7.151  15.026   1.213  0.2134 -0.0338 -0.0236
 9106W        W24723   2.974  10.567   5.340  0.0969 -0.2015 -0.3803
 9107W        W24724   1.036  15.716  12.716 -0.1891  0.1294  0.3393
 9108W        W24725   9.155   9.745  10.851  0.0443  0.0664  0.1502
 9109W        W24726   3.815   6.029   4.863  0.1431  0.0165 -0.1270
 9110W        W24727  17.294   9.707  12.505 -0.0996 -0.0236  0.1044
 9111W        W24728   3.596   0.105  12.153  0.1860 -0.0351 -0.3269
 9112W        W24729  17.646  14.211  13.551  0.0980  0.4163 -0.0574
 9113W        W24730  13.523   9.450  14.200  0.3609 -0.0230  0.2782
 9114W        W24731  11.690  11.260  15.257 -0.0460  0.1282  0.2751
 9115W        W24732  15.350   2.199   9.800  0.0325  0.0054  0.0528
 9116W        W24733  13.508   2.560   1.647  0.2338 -0.1699  0.3493
 9117W        W24734  18.845  12.754   3.367  0.0692 -0.0840  0.1574
 9118W        W24735   2.858   1.592   0.695 -0.0428 -0.0075 -0.1761
 9119W        W24736   9.258   5.682  12.220 -0.1005  0.2310  0.1807
 9120W        W24737  10.130  11.733  13.868 -0.2198  0.1965 -0.4761
 9121W        W24738   0.395  16.228   3.864 -0.0158  0.0211 -0.1203
 9122W        W24739  17.389   4.853  10.586 -0.0846  0.0929  0.0921
 9123W        W24740   2.053  14.454   2.036 -0.3318 -0.1654 -0.1474
 9124W        W24741  15.401   0.605   4.260 -0.1116  0.2559  0.0957
 9125W        W24742   3.218  14.013   2.467  0.0040 -0.2123 -0.2469
 9126W        W24743   3.279  15.626   3.038  0.2649 -0.1706 -0.0083
 9127W        W24744  14.883   2.247   1.340  0.0398  0.0797 -0.0305
 9128W        W24745  13.188   1.882   2.183 -0.1233 -0.0784 -0.0248
 9129W        W24746  17.897   0.967   0.200  0.1432  0.1900  0.0620
 9130W        W24747  12.756   9.762  13.705 -0.1407 -0.1627 -0.1271
 9131W        W24748   5.299   4.695  14.755  0.1785  0.2203 -0.2632
 9132W        W24749   4.128   2.925   5.241  0.0853 -0.1580  0.2060
 9133W        W24750   1.782   1.671   5.390 -0.2223  0.1502  0.0037
 9134W        W24751  16.501   5.769   2.296  0.2311  0.0434  0.0549
 9135W        W24752  17.759  14.520   2.886 -0.1846  0.2150  0.0837
 9136W        W24753   1.134   7.607  12.605  0.0372 -0.3258  0.0657
 9137W        W24754   7.983  19.071  13.482  0.3654  0.2464  0.3845
 9138W        W24755  16.882  18.921   3.827  0.1188  0.0074  0.1039
 9139W        W24756  10.214   1.973   3.157  0.1562  0.2348 -0.0424
 9140W        W24757   3.718   1.000  12.958 -0.3882 -0.0288 -0.1281
 9141W        W24758  17.527   3.833   0.579 -0.2505  0.0900 -0.2141
 9142W        W24759  11.527  15.959  13.715 -0.4972  0.0295 -0.3565
 9143W        W24760  13.810  17.756   4.272  0.0577  0.1868 -0.0433
 9144W        W24761  12.671   2.378   0.082 -0.0932  0.0624 -0.4492
 9145W        W24762  16.310  14.134   4.502 -0.4111  0.3270  0.3880
 9146W        W24763   3.744  12.181   2.904 -0.0594  0.1568 -0.3281
 9147W        W24764   2.922   9.144  10.662  0.1101 -0.0611 -0.1598
 9148W        W24765  15.025  11.937  11.064 -0.0109 -0.1864 -0.1512
 9149W        W24766  15.073   8.121   0.400  0.1305  0.2911 -0.0645
 9150W        W24767  13.816  11.149   0.190 -0.2093 -0.1224  0.0424
 9151W        W24768  10.305   3.427   2.812 -0.0380 -0.3406  0.0751
 9152W        W24769   9.143   5.694   2.497 -0.2808  0.0370  0.0981
 9153W        W24770  14.220   2.650   3.409 -0.1099 -0.1874  0.3003
 9154W        W24771   6.966  17.131  11.590 -0.2267 -0.0079  0.2055
 9155W        W24772  17.462  18.018   4.266 -0.0167 -0.2373 -0.0530
 9156W        W24773  11.082  10.003  11.168 -0.1824 -0.0656 -0.2725
 9157W        W24774  14.713  16.339   3.870 -0.0578  0.1069 -0.0637
 9158W        W24775  12.633  17.951  12.671  0.1907  0.0999 -0.0433
 9159W        W24776   8.543   1.042   3.775  0.1681 -0.1531  0.0018
 9160W        W24777  16.594   4.904  13.968  0.0541  0.0827 -0.0270
 9161W        W24778  14.809  19.034   0.796  0.0278  0.1211 -0.1144
 9162W        W24779   7.949   3.847   1.238 -0.0290  0.0393 -0.0010
 9163W        W24780   9.501   9.332  10.906  0.1355  0.0616  0.3176
 9164W        W24781   8.359   8.672   4.071 -0.0913 -0.0384 -0.3474
 9165W        W24782  18.590   6.705   0.855 -0.1651 -0.0844 -0.0737
 9166W        W24783   7.461   5.175   3.791 -0.1139  0.4390  0.2204
 9167W        W24784   0.782  11.823   3.107 -0.1244 -0.4210 -0.1167
 9168W        W24785   2.135   3.175   0.088  0.0234 -0.0126  0.0198
 9169W        W24786  18.741   5.161  12.340 -0.2063 -0.1140 -0.1868
 9170W        W24787   2.420  11.561   9.943 -0.0162  0.0527 -0.0239
 9171W        W24788  17.675   7.953   0.792 -0.1776 -0.2761 -0.1429
 9172W        W24789  13.212  11.991  11.741  0.2322  0.0610 -0.0643
 9173W        W24790  12.316   6.067  14.743  0.1096 -0.1145  0.2701
 9174W        W24791  10.295  10.826   0.009  0.0565  0.0722  0.3168
 9175W        W24792  18.773   5.233  13.218  0.0110 -0.2956 -0.0047
 9176W        W24793  18.133   8.705  10.760 -0.2611 -0.2021  0.1291
 9177W        W24794   0.146   0.619   0.559  0.2232  0.1032 -0.2506
 9178W        W24795  17.702   8.924  10.060  0.0916 -0.2632  0.0577
 9179W        W24796  18.693  18.980  13.057  0.2115  0.1164  0.0997
 9180W        W24797  10.366  15.154  15.252  0.1512 -0.3110 -0.1489
 9181W        W24798  12.538  16.934  13.354  0.1070 -0.1419 -0.0484
 9182W        W24799   0.133   9.571   9.367  0.1515 -0.1502 -0.1921
 9183W        W24800   5.769  10.064  11.786  0.0262  0.0583 -0.2437
 9184W        W24801  10.614  11.016  12.742  0.2407  0.6245  0.0805
 9185W        W24802  12.797   8.765  11.912 -0.2029  0.3913  0.1595
 9186W        W24803  14.356  16.262   2.539  0.0071 -0.0944 -0.0741
 9187W        W24804   2.674  11.858  10.261 -0.0322  0.4068  0.2192
 9188W        W24805  15.443  14.231  11.765 -0.0785 -0.2869  0.0631
 9189W        W24806  18.484   7.144  14.185 -0.2330 -0.1478  0.2498
 9190W        W24807   5.869   9.230   1.973  0.1195 -0.2418 -0.0074
 9191W        W24808  15.399  13.574   1.719  0.1337 -0.3645  0.0051
 9192W        W24809  14.443   1.499  11.354 -0.0032 -0.1446 -0.1179
 9193W        W24810  12.083   5.167   3.995  0.1373 -0.1551 -0.3849
 9194W        W24811   3.444  16.693  11.570 -0.2779 -0.0871  0.0659
 9195W        W24812  19.023  18.232  10.544 -0.1842 -0.1162 -0.2471
 9196W        W24813   3.198  18.394   3.794 -0.1474  0.4922  0.0489
 9197W        W24814  18.814   9.248  10.772  0.4851 -0.1145  0.1323
 9198W        W24815   4.361   3.372  11.514 -0.1823 -0.1762  0.1327
 9199W        W24816   0.960   4.750   4.084 -0.0708 -0.5707 -0.2453
 9200W        W24817   8.771   0.236  13.283  0.2107  0.1105 -0.2105
 9201W        W24818   0.848  12.504  10.885 -0.1987  0.1723 -0.1077
 9202W        W24819  10.254  10.629   3.806 -0.0324  0.1967  0.0752
 9203W        W24820  10.670  12.330   3.675 -0.0869 -0.1927 -0.0278
 9204W        W24821  15.602   1.145  11.796  0.2039 -0.2458  0.1882
 9205W        W24822   2.197  11.965  12.066  0.2809  0.0161 -0.0400
 9206W        W24823   0.567   6.202  12.088 -0.1616  0.4546 -0.1463
 9207W        W24824  10.344  16.441   4.452 -0.2571 -0.0159 -0.0002
 9208W        W24825   0.508  11.475   0.457 -0.0355 -0.4701 -0.1050
 9209W        W24826  13.900  18.472   0.277 -0.5502  0.3584 -0.1974
 9210W        W24827  14.835   2.265  14.537  0.0884 -0.1635 -0.1760
 9211W        W24828   9.532  17.311   5.395  0.1430 -0.1279 -0.1874
 9212W        W24829  12.469  18.241  12.006 -0.0767 -0.2999 -0.4161
 9213W        W24830   4.582   4.836   5.176  0.3833  0.1486  0.2233
 9214W        W24831  15.844  10.025  12.870 -0.0015  0.1705 -0.0955
 9215W        W24832   0.113   0.356  11.071  0.1562  0.0916 -0.0483
 9216W        W24833   2.656   6.860   1.858 -0.0498 -0.3093 -0.1228
 9217W        W24834  10.569   9.637  14.758 -0.0913  0.1119  0.1465
 9218W        W24835  14.023   9.260  11.185  0.3894  0.2587 -0.0431
 9219W        W24836  11.308   0.097   0.360  0.0157  0.1063 -0.4391
 9220W        W24837   5.902  10.769   1.530 -0.0742 -0.1710  0.2821
 9221W        W24838   0.123  16.951   9.762  0.0362  0.1821  0.0199
 9222W        W24839  17.209  11.245   2.670  0.1990 -0.0221 -0.1067
 9223W        W24840   9.145  16.216  13.474  0.2631  0.3324 -0.0853
 9224W        W24841  13.817  16.941   1.544  0.0731  0.0872 -0.1484
 9225W        W24842   2.046   7.486   2.377  0.1986 -0.2521  0.0894
 9226W        W24843   7.824   9.227   3.247  0.0223 -0.4700 -0.1664
 9227W        W24844   5.338  18.346   4.883 -0.1920 -0.4586  0.0809
 9228W        W24845   0.144  12.672   4.749 -0.0931 -0.2137 -0.0214
 9229W        W24846  18.779   6.306   1.120 -0.1461 -0.0323  0.1500
 9230W        W24847  12.652   2.450  12.841  0.0115  0.1926  0.3086
 9231W        W24848  14.809  14.378  14.459  0.0508  0.1455  0.2204
 9232W        W24849  13.976   8.192   2.233 -0.0480 -0.0484 -0.1564
 9233W        W24850   1.351   9.299   0.806  0.0397 -0.0337 -0.2090
 9234W        W24851   1.216   8.192   5.296 -0.0765 -0.1894 -0.1503
 9235W        W24852  11.738  17.244  13.337  0.0494  0.2402 -0.1011
 9236W        W24853  12.950   4.115  14.269 -0.3260  0.1353  0.1488
 9237W        W24854  16.773   8.124  13.418 -0.0153 -0.1640 -0.1666
 9238W        W24855   1.146  15.207   0.970 -0.4080 -0.1934  0.0731
 9239W        W24856  15.785  11.033   3.774  0.3625  0.1476 -0.2996
 9240W        W24857  13.178  13.799  11.797  0.1299  0.0638  0.4726
 9241W        W24858  14.334  11.093   0.208  0.1762 -0.1661 -0.0958
 9242W        W24859   7.845   9.566   0.051 -0.1715 -0.0626 -0.0593
 9243W        W24860  15.136   4.520   3.754  0.1678  0.1067 -0.1309
 9244W        W24861  18.581   2.465   0.296  0.0775  0.1185  0.2612
 9245W        W24862  18.747   2.309  10.823  0.1147 -0.2864  0.1658
 9246W        W24863   7.417   3.988   4.419 -0.1868  0.3823  0.1798
 9247W        W24864  18.683  16.554  10.420  0.2435 -0.0980 -0.2257
 9248W        W24865   4.427   7.927   2.653 -0.0977  0.1465 -0.1237
 9249W        W24866   7.967   4.836   1.991  0.0878  0.1761  0.1869
 9250W        W24867  18.338   6.322   3.584  0.2884  0.2224  0.2149
 9251W        W24868  11.088  18.736  11.611 -0.4301 -0.4687  0.0795
 9252W        W24869  18.481   8.467   1.037  0.1633  0.2114 -0.1170
 9253W        W24870  16.582  15.599   0.647  0.3238  0.3802 -0.0357
 9254W        W24871  12.972   3.170   1.608  0.0634  0.0440 -0.1431
 9255W        W24872   0.659  12.804  12.263 -0.2530 -0.1877 -0.6173
 9256W        W24873   0.340  16.397   2.059 -0.1834 -0.1022 -0.2324
 9257W        W24874   2.776  10.423   3.462  0.3074  0.2921  0.2224
 9258W        W24875  12.997   4.555   4.077 -0.2114 -0.2621 -0.4743
 9259W        W24876   6.945  10.550  14.869  0.2471 -0.0497 -0.2891
 9260W        W24877  16.808  11.393   3.700 -0.1644 -0.1168 -0.2208
 9261W        W24878   8.992  14.267   2.358  0.2527 -0.0353 -0.0580
 9262W        W24879   9.130  10.635   9.943  0.0089  0.1640  0.3175
 9263W        W24880  16.375   9.665  12.338 -0.2626 -0.1267  0.2949
 9264W        W24881  15.810   7.025   3.461  0.0148  0.3927 -0.2057
 9265W        W24882   7.524  19.046   3.628  0.0265  0.0299 -0.0826
 9266W        W24883   0.859  15.504  13.134 -0.0133  0.0184  0.0636
 9267W        W24884   0.060  15.199   1.330 -0.0261 -0.0383 -0.0838
 9268W        W24885   9.386   8.260   9.432  0.1905 -0.2503 -0.0827
 9269W        W24886  13.166   8.499  10.351  0.0206 -0.3297  0.2132
 9270W        W24887  16.937   2.382   2.713 -0.4378 -0.2364  0.1270
 9271W        W24888  14.890   2.732   4.966 -0.1086 -0.1522  0.1173
 9272W        W24889   5.970   6.496  13.074 -0.3309 -0.0953  0.0191
 9273W        W24890   3.529  14.631   1.881  0.0797  0.0366  0.0789
 9274W        W24891   1.213   5.130   3.846  0.0112  0.2864  0.1163
 9275W        W24892   6.732   4.968  12.989  0.0947 -0.2134  0.0125
 9276W        W24893  18.440   3.288   3.621 -0.0174 -0.1348  0.1950
 9277W        W24894  17.868  14.045   2.685  0.0425 -0.0582 -0.1830
 9278W        W24895  11.947  12.252   1.360  0.2683 -0.3216 -0.0437
 9279W        W24896  15.270  11.462   0.197 -0.4806 -0.0846  0.2632
 9280W        W24897  16.525   2.318   4.667 -0.0373 -0.1911 -0.0954
 9281W        W24898   8.380  16.592  11.303 -0.2062  0.0103  0.0298
 9282W        W24899   7.911   3.173  13.351 -0.2443  0.2089  0.0687
 9283W        W24900  17.342   3.419  12.839 -0.1547  0.1118  0.1444
 9284W        W24901   6.900   2.157   1.313 -0.1576  0.0322  0.1967
 9285W        W24902   5.568  14.932   0.674 -0.1950 -0.0058  0.1086
 9286W        W24903   6.349  14.857   1.653 -0.0787  0.1429 -0.0915
 9287W        W24904   9.145  16.245   1.428  0.2862 -0.5264 -0.3697
 9288W        W24905  10.003  17.897   2.520 -0.1771  0.0295 -0.5179
 9289W        W24906  11.482   6.565  11.949  0.0974 -0.3496 -0.0623
 9290W        W24907  10.550  14.491   1.462 -0.0811  0.2127 -0.1168
 9291W        W24908  12.418   1.103   2.265 -0.0746 -0.0728 -0.2826
 9292W        W24909   7.938   8.814  13.476  0.1220 -0.0232 -0.3071
 9293W        W24910  10.153   4.473  10.019 -0.1468  0.2633 -0.0287
 9294W        W24911  13.383  10.152   0.280  0.0204 -0.1315  0.3917
 9295W        W24912  13.636   9.823   0.492 -0.0395  0.1184  0.0160
 9296W        W24913   8.405  14.843  14.052 -0.2477  0.0359  0.1604
 9297W        W24914   6.016  12.126   2.552 -0.0591  0.1493  0.5268
 9298W        W24915  17.946  12.760  13.570 -0.3371  0.0005  0.3641
 9299W        W24916   4.852   7.314   4.151 -0.2630  0.0364  0.3007
 9300W        W24917  18.146   9.184   1.520 -0.3597 -0.1695  0.0966
 9301W        W24918  12.374   5.408   4.363 -0.0355  0.1773 -0.1519
 9302W        W24919   2.615   8.981   3.600  0.2093 -0.0551  0.0477
 9303W        W24920   0.766  10.671   1.680  0.2866  0.1174  0.2410
 9304W        W24921  10.761  16.885   5.704  0.3457 -0.3264  0.2563
 9305W        W24922  11.595  18.374  14.907 -0.2878 -0.0978 -0.0413
 9306W        W24923  12.970   1.253  12.039  0.2663  0.1397  0.0911
 9307W        W24924  16.429   8.502   4.386  0.1782 -0.5093 -0.0151
 9308W        W24925   4.258  15.663   3.708 -0.1023 -0.0106  0.0304
 9309W        W24926   9.378   5.315  14.272 -0.2054  0.0051 -0.0742
 9310W        W24927  14.139   1.757   1.813 -0.1021 -0.0701  0.1135
 9311W        W24928   3.833   2.127   1.839  0.5586 -0.1703  0.1966
 9312W        W24929   2.467   0.259  10.621  0.0690 -0.1455 -0.3867
 9313W        W24930  18.176   6.756   9.867 -0.2783  0.1796 -0.0997
 9314W        W24931  15.153   3.358   2.709 -0.2703 -0.0827  0.1728
 9315W        W24932   6.496   1.106   3.814  0.1664  0.1755 -0.2057
 9316W        W24933   5.606  16.821   1.403 -0.1960  0.0616  0.0724
 9317W        W24934   3.917  13.470   3.856  0.0227  0.2023 -0.0903
 9318W        W24935   8.405  16.589   3.450 -0.2010  0.2794 -0.2424
 9319W        W24936  10.337  14.316   2.088  0.0203 -0.2814  0.2429
 9320W        W24937  16.953   9.157  13.143 -0.0059 -0.0835  0.3279
 9321W        W24938  12.625   5.236   3.864  0.2424  0.0231  0.0578
 9322W        W24939   9.023  11.415  15.256  0.0389  0.2202 -0.5005
 9323W        W24940  12.031  13.565  11.383 -0.0367 -0.3140 -0.0109
 9324W        W24941  14.401   7.504   1.948 -0.1426 -0.1836 -0.2066
 9325W        W24942   7.201  18.703  10.566  0.2555 -0.0491  0.1491
 9326W        W24943   7.637   1.886  12.756  0.1796 -0.3223 -0.3593
 9327W        W24944   9.780  17.397   3.513  0.1706  0.0384 -0.1959
 9328W        W24945   9.386   2.624  14.226 -0.1083 -0.1352  0.0435
 9329W        W24946   7.728  10.940  15.124 -0.0744 -0.5414  0.0252
 9330W        W24947  19.044  13.916  11.055  0.0968 -0.2387  0.2168
 9331W        W24948   7.733   0.624   1.168 -0.4244 -0.3993  0.0505
 9332W        W24949   3.218   7.677   1.856  0.2884  0.1121 -0.4259
 9333W        W24950   0.001   0.200   1.495 -0.3694 -0.0451  0.0516
 9334W        W24951  16.925   4.244   0.123 -0.0994 -0.1415 -0.2329
 9335W        W24952   0.020  11.608  12.535 -0.0770 -0.0604  0.2549
 9336W        W24953  17.161  16.412  13.198  0.3080  0.0408  0.2837
 9337W        W24954  10.709   8.797  10.855  0.0659  0.1323 -0.2542
 9338W        W24955  17.156  11.027   0.911 -0.2929 -0.1731  0.1152
 9339W        W24956   9.435   0.246  12.145 -0.0850  0.1855 -0.2075
 9340W        W24957  15.846   0.426   0.593  0.0673  0.0406  0.1142
 9341W        W24958   9.732  16.532  11.713  0.1343  0.0897  0.4022
 9342W        W24959  11.844  14.553  15.214 -0.1014 -0.1236 -0.1712
 9343W        W24960  17.074  17.749   2.749  0.0566 -0.2945 -0.1055
 9344W        W24961  13.765   5.116  12.137  0.3201  0.2377 -0.0843
 9345W        W24962   7.560   6.643  12.182 -0.1190 -0.0254  0.0751
 9346W        W24963   6.579  10.478   3.779 -0.0232  0.0787  0.0043
 9347W        W24964   6.976   1.151   1.324  0.1285 -0.1114  0.2724
 9348W        W24965   1.962  14.409   1.564 -0.1268 -0.0274 -0.0887
 9349W        W24966   4.643  10.153  12.365 -0.0246  0.2302  0.0307
 9350W        W24967  16.483   1.112  10.913 -0.0885  0.1441  0.1070
 9351W        W24968  11.762   0.013  13.101 -0.2568  0.0912  0.2228
 9352W        W24969  14.908  10.362  14.961 -0.0799  0.0945  0.0211
 9353W        W24970  16.776  18.146   2.935  0.1466  0.0241 -0.0269
 9354W        W24971   7.464  12.650  14.609  0.0819  0.2927 -0.0367
 9355W        W24972   6.334  18.486  12.211  0.0466  0.2112  0.0539
 9356W        W24973  15.393  17.379   1.137  0.0431  0.0209  0.1065
 9357W        W24974   1.605  13.638  11.312  0.0895  0.2416 -0.2238
 9358W        W24975  13.578  18.290  13.586 -0.0561  0.0664 -0.0352
 9359W        W24976  14.211   5.970  10.216 -0.1902 -0.0246  0.1858
 9360W        W24977  14.113  10.898   3.895  0.2008  0.1671  0.0127
 9361W        W24978  10.447  18.793   3.147 -0.0850  0.1798  0.0109
 9362W        W24979  13.754  11.960  10.790  0.0282  0.1987  0.1174
 9363W        W24980  18.378   9.873  15.289  0.1800  0.0050 -0.4355
 9364W        W24981  12.694  13.505   5.505  0.2717 -0.1892  0.1139
 9365W        W24982  15.393  15.252  14.532 -0.2057 -0.2158 -0.0231
 9366W        W24983  18.091   9.045  13.089  0.3535  0.0999  0.0457
 9367W        W24984  16.104   0.856   3.531 -0.2336 -0.0799 -0.1215
 9368W        W24985  13.576   0.646   0.819 -0.1531  0.1526 -0.1035
 9369W        W24986  15.236  15.937   2.136 -0.0715 -0.0324  0.0793
 9370W        W24987  16.890   1.001  12.616  0.1522 -0.2663 -0.3033
 9371W        W24988   3.947   8.390   5.283  0.1965 -0.3768  0.0207
 9372W        W24989  10.523  14.563   0.910 -0.0725 -0.3215  0.2326
 9373W        W24990  11.411   6.413  14.739  0.1379 -0.3004  0.1213
 9374W        W24991   5.533   5.745   1.602  0.0138  0.0437  0.1865
 9375W        W24992   0.493   3.212  13.703 -0.2146  0.0695 -0.5184
 9376W        W24993  18.440  12.699  11.080 -0.1655 -0.0293 -0.1901
 9377W        W24994   9.521   5.613   0.378 -0.0797  0.0477  0.0315
 9378W        W24995   8.979   6.281   0.478 -0.1570 -0.0126  0.2613
 9379W        W24996   1.413  16.685   2.343 -0.0446  0.1914  0.0681
 9380W        W24997   7.189   7.632   0.604  0.0345  0.2667  0.2632
 9381W        W24998   0.745   8.083   4.881 -0.0838 -0.0840  0.2438
 9382W        W24999  16.884   0.214   3.281 -0.0407 -0.3013 -0.0970
 9383W        W25000  11.892   6.895   1.481 -0.0741  0.3702  0.3554
 9384W        W25001   0.182  12.575  11.594 -0.1656  0.2123 -0.6768
 9385W        W25002   9.032  11.322  14.114 -0.0593  0.0607  0.2468
 9386W        W25003   5.166   4.917  14.313 -0.0489 -0.1698 -0.2534
 9387W        W25004   7.427   9.232   9.570 -0.0605  0.0559  0.3445
 9388W        W25005   1.021  13.642   0.919 -0.1223  0.1365  0.0147
 9389W        W25006  15.018   4.416   4.247 -0.0409  0.2533  0.2422
 9390W        W25007  11.913  13.493  13.672 -0.1182 -0.4124 -0.0811
 9391W        W25008  11.837   5.900   3.301 -0.1690  0.1537 -0.2466
 9392W        W25009   0.566  17.523   1.575 -0.1343  0.1410 -0.2849
 9393W        W25010  16.538  15.950  10.689 -0.1386  0.2078 -0.0446
 9394W        W25011  10.649   9.942  15.174 -0.1317  0.0667 -0.2457
 9395W        W25012   6.190   4.535  10.580 -0.2419  0.1151  0.0356
 9396W        W25013  12.760   2.719  15.036 -0.0878  0.2307 -0.0583
 9397W        W25014   6.988  11.053  14.905  0.3109  0.2428 -0.0387
 9398W        W25015  15.793   5.371  12.661 -0.0663  0.1770 -0.2616
 9399W        W25016  17.088  15.770   1.072  0.1166  0.2910  0.2419
 9400W        W25017   1.452  12.384  11.844 -0.1277  0.2056 -0.1172
 9401W        W25018   0.436   6.179  10.338 -0.2262 -0.1367 -0.1778
 9402W        W25019   2.176   0.803   5.970  0.0393  0.4458 -0.1637
 9403W        W25020   6.074   4.008   4.238 -0.1587  0.4460 -0.0488
 9404W        W25021   4.425  16.491  10.458  0.0620  0.1959  0.3677
 9405W        W25022   7.928  14.295  11.960  0.2832 -0.0327  0.4655
 9406W        W25023  12.328   5.477  13.341  0.0475 -0.2273 -0.1930
 9407W        W25024  18.968   8.480  10.225  0.4140 -0.4704  0.4552
 9408W        W25025  15.888   2.936   4.801  0.1022  0.0283 -0.1637
 9409W        W25026   9.878  13.991  14.105  0.2176  0.1804  0.1787
 9410W        W25027  11.702  14.134   4.256 -0.3110  0.0967  0.0849
 9411W        W25028  18.690   5.468   3.024  0.0127  0.0504 -0.1700
 9412W        W25029   7.863  15.122   3.579 -0.1113  0.3451  0.1475
 9413W        W25030   8.737  12.971  13.939 -0.0558 -0.0984  0.2554
 9414W        W25031  11.385   8.748   4.329  0.1667  0.1902  0.1945
 9415W        W25032   0.049  11.166  12.967  0.2734  0.1608 -0.3611
 9416W        W25033  10.959   9.333  10.644 -0.1227 -0.0893  0.0173
 9417W        W25034  17.569   3.154  10.975 -0.0286 -0.0696 -0.2723
 9418W        W25035   0.676  15.763   1.563  0.2009  0.1786  0.0870
 9419W        W25036  12.925   7.612  12.852  0.2147  0.2391  0.1989
 9420W        W25037  11.972   0.807  14.171 -0.1472  0.0137  0.1326
 9421W        W25038   1.923  15.909  13.080 -0.1475 -0.3065  0.2051
 9422W        W25039   8.533  11.175  12.346  0.0139  0.1674 -0.0861
 9423W        W25040   3.013   1.296   5.733  0.3635  0.0386 -0.1005
 9424W        W25041  12.334  18.790  13.658 -0.3378 -0.0834 -0.2206
 9425W        W25042  18.412   3.328  11.292 -0.1411  0.1457 -0.1551
 9426W        W25043   0.925  10.176   0.940  0.2723  0.1435  0.4080
 9427W        W25044   9.325  16.462   1.023 -0.1312  0.4157  0.1930
 9428W        W25045   3.535   9.676   0.099  0.0209 -0.1046  0.0177
 9429W        W25046   3.425  17.105   0.503  0.1500 -0.0748  0.2192
 9430W        W25047  15.654   3.839   2.038  0.0681  0.0438  0.3957
 9431W        W25048   3.529  15.440  12.901 -0.0582  0.0888  0.0741
 9432W        W25049  11.933   2.093   2.701 -0.1599 -0.0138 -0.0288
 9433W        W25050   7.630  10.049   1.819 -0.0663  0.2454 -0.1441
 9434W        W25051  17.398   1.534  11.701  0.3098 -0.0089 -0.2933
 9435W        W25052  18.244  13.953  12.358 -0.0805 -0.0767  0.0276
 9436W        W25053  11.950   8.956  12.735  0.6266 -0.1279 -0.2324
 9437W        W25054  13.923   1.098   4.502  0.2891  0.2771 -0.2054
 9438W        W25055  13.096   6.305  13.249  0.1627  0.0670  0.1949
 9439W        W25056   7.786   0.317  12.926 -0.2724  0.1470  0.2107
 9440W        W25057  10.540  15.463   9.399 -0.0202 -0.0425  0.2385
 9441W        W25058   0.402  17.503   2.395 -0.0713 -0.2564  0.0525
 9442W        W25059   0.880   3.012   5.742  0.2352  0.0522 -0.0509
 9443W        W25060  17.759  18.330  14.062  0.0895  0.4190  0.2504
 9444W        W25061  13.952  11.068   4.413  0.0062 -0.1709 -0.0202
 9445W        W25062  17.493   2.421  12.024  0.1799 -0.0279 -0.0250
 9446W        W25063  16.803  10.623  10.348  0.2671  0.0603  0.3206
 9447W        W25064  15.406   4.940  11.673  0.3057  0.1249  0.1347
 9448W        W25065  11.093  18.760   3.972 -0.1433 -0.3085  0.1132
 9449W        W25066   7.755   2.683  12.715  0.3258  0.0465  0.3048
 9450W        W25067   1.297   9.062   3.728  0.2143 -0.3113 -0.1396
 9451W        W25068   4.344   9.056   1.103 -0.2294  0.2716 -0.0102
 9452W        W25069   9.737   0.742   0.677  0.2670 -0.2105  0.0816
 9453W        W25070   7.151  14.116  11.692 -0.1620 -0.0542  0.2555
 9454W        W25071  18.450   5.757  15.052 -0.2455  0.0512  0.0658
 9455W        W25072   9.701   8.952  10.616 -0.2038  0.0904 -0.1652
 9456W        W25073   0.482   6.814   2.382  0.3435  0.1635  0.0477
 9457W        W25074   0.608  14.702  11.223  0.1514  0.0830 -0.5148
 9458W        W25075  17.773   2.742  14.950  0.1213  0.0440  0.1900
 9459W        W25076   9.371  13.948   2.096 -0.0032 -0.2720  0.2384
 9460W        W25077   7.889   5.778   3.050 -0.2521  0.2354  0.0167
 9461W        W25078   1.602  15.521   9.611  0.3473  0.3296  0.3867
 9462W        W25079  18.548   9.087  12.740 -0.0162 -0.0088 -0.2467
 9463W        W25080   4.218  10.109   4.564 -0.2718  0.1996  0.4479
 9464W        W25081  15.306  13.582   3.232  0.0588 -0.1677  0.0887
 9465W        W25082   6.487   7.840   5.353 -0.0647  0.1049  0.0519
 9466W        W25083  12.277   9.002   4.234  0.0541 -0.1559  0.0151
 9467W        W25084   6.616   3.196  13.440 -0.3126 -0.0078  0.0199
 9468W        W25085  15.170  15.481  12.834 -0.1226  0.1820 -0.2311
 9469W        W25086   5.987   7.513  14.332 -0.0733  0.1216 -0.1083
 9470W        W25087  13.625   6.380  13.332  0.0354 -0.1431  0.1308
 9471W        W25088  17.737   5.987  10.728 -0.3339 -0.2993  0.2140
 9472W        W25089   9.919   4.719  11.357  0.0415  0.0588  0.0279
 9473W        W25090  15.847  13.026   4.434  0.1042  0.1359  0.1356
 9474W        W25091  13.103   2.693   2.393 -0.2782 -0.0896  0.0836
 9475W        W25092   4.177   9.843   0.884 -0.2753  0.0377 -0.1058
 9476W        W25093  12.234  13.653   2.592 -0.0615 -0.1285  0.0952
 9477W        W25094  16.551   9.613  12.917 -0.0001 -0.1058 -0.2311
 9478W        W25095  18.985  16.796   3.249 -0.2994  0.1566 -0.3710
 9479W        W25096  10.828  13.533   5.910  0.2025 -0.3786  0.1816
 9480W        W25097  13.537  11.648  11.543  0.2274 -0.2672  0.2791
 9481W        W25098  10.106  16.083   0.042  0.0046  0.0737  0.0272
 9482W        W25099  14.519   6.695   2.320 -0.1864 -0.0106 -0.0586
 9483W        W25100  13.928   4.169  12.761 -0.3122 -0.6055 -0.4748
 9484W        W25101   7.870  15.606   4.786  0.1048 -0.3419  0.2138
 9485W        W25102   0.710  17.496  15.000 -0.0295 -0.2250  0.1131
 9486W        W25103   7.528   9.135  13.625 -0.0356  0.3303 -0.3174
 9487W        W25104   5.234   5.267   3.689  0.2613 -0.0080 -0.0367
 9488W        W25105   7.347  10.415   0.266 -0.3001  0.0080  0.0940
 9489W        W25106  14.725  18.864  13.023  0.1025 -0.3560  0.0442
 9490W        W25107  15.884  10.513   3.072  0.0979  0.1677  0.2600
 9491W        W25108   9.159   5.243   2.631 -0.2046 -0.1291  0.2249
 9492W        W25109   9.982  10.695   4.737 -0.0708 -0.0460  0.1324
 9493W        W25110   4.490  11.967  11.603 -0.1263  0.0658  0.4007
 9494W        W25111  10.406   8.860  13.152  0.2325 -0.0093 -0.0686
 9495W        W25112   4.912   8.116  12.521  0.2422  0.0227 -0.1107
 9496W        W25113  11.848   3.542   4.889 -0.2517  0.1089 -0.0364
 9497W        W25114   4.101  18.264  14.955 -0.0872 -0.0073 -0.0151
 9498W        W25115  16.628  16.415  13.023 -0.1232 -0.1892 -0.1990
 9499W        W25116   2.004  12.462   0.966 -0.0694  0.1774 -0.1086
 9500W        W25117  14.674   0.560  14.222 -0.0629 -0.5382 -0.0469
 9501W        W25118   6.872  11.367   2.359 -0.1930  0.1390 -0.3977
 9502W        W25119   0.460   6.202   4.238 -0.0819 -0.0878  0.1037
 9503W        W25120   4.614   5.881  15.281  0.0612  0.3688  0.0012
 9504W        W25121   7.557  11.613  12.103 -0.1381 -0.0673 -0.1254
 9505W        W25122   0.561   3.559  11.106  0.0716  0.1797 -0.0859
 9506W        W25123  10.541   7.115  13.468 -0.2570  0.0817  0.1508
 9507W        W25124   1.554  17.659   4.334  0.2277  0.1531 -0.0473
 9508W        W25125   1.432  15.029   4.869  0.3101  0.1823  0.1641
 9509W        W25126  10.973  12.864   4.153  0.0888 -0.2656 -0.2354
 9510W        W25127   2.878  16.521  11.928  0.2129 -0.0001  0.0858
 9511W        W25128   4.162  15.128   1.670  0.2019  0.1894 -0.1731
 9512W        W25129   3.148  12.690   0.882 -0.2595 -0.1916 -0.0151
 9513W        W25130   1.199  14.781   4.398 -0.2430 -0.1706  0.0809
 9514W        W25131  17.483   4.198   3.106  0.3043  0.0159  0.0592
 9515W        W25132   9.593   5.174   3.011  0.0618  0.0537  0.0192
 9516W        W25133   8.592  18.630  13.860 -0.0279  0.2428 -0.0565
 9517W        W25134  18.060  12.467   3.905 -0.2214  0.2342 -0.0862
 9518W        W25135   1.007   3.138  11.774 -0.3299  0.0126  0.0733
 9519W        W25136  10.953  18.202   0.305  0.1604 -0.1459  0.1057
 9520W        W25137   8.934  15.176   2.816  0.1520  0.0381  0.0444
 9521W        W25138  11.592  15.470   3.479 -0.0203  0.1724  0.2220
 9522W        W25139  18.124   2.633  13.723 -0.0973  0.2594  0.2113
 9523W        W25140  14.417   4.067   3.837  0.1032  0.0533  0.2382
 9524W        W25141   4.339   0.017   5.470  0.1436  0.2671  0.0618
 9525W        W25142  13.665  10.130   1.841 -0.1711 -0.3746 -0.1197
 9526W        W25143  17.672  17.300  10.910 -0.1232 -0.1645 -0.3173
 9527W        W25144  10.555   6.074   4.406 -0.0567  0.3597  0.0097
 9528W        W25145  18.319  14.414  11.189 -0.1185  0.1727 -0.1046
 9529W        W25146  10.072   3.959   1.892  0.0248 -0.2742 -0.2458
 9530W        W25147  13.483  10.451  14.611  0.1407 -0.1614  0.0812
 9531W        W25148   3.759  15.211  13.292  0.1939  0.1127  0.0561
 9532W        W25149  12.925   3.582   3.767 -0.3627 -0.1052 -0.1166
 9533W        W25150   8.454   3.583   0.479 -0.0730  0.1097  0.0510
 9534W        W25151   0.165  13.182  14.750  0.0705 -0.2148  0.0225
 9535W        W25152   3.059   0.377  13.052  0.1645 -0.0552  0.3399
 9536W        W25153   3.314   7.792  10.726  0.0556  0.1140 -0.2660
 9537W        W25154   7.161  12.859   5.148 -0.1246 -0.2806 -0.4034
 9538W        W25155   9.458  10.811   4.418  0.0708 -0.3309 -0.1660
 9539W        W25156  18.902  12.799  11.971 -0.1538  0.1719 -0.1991
 9540W        W25157  12.670   8.618  11.358 -0.0937  0.0110  0.1148
 9541W        W25158   9.216   4.454  10.098  0.1502  0.1947 -0.0717
 9542W        W25159  15.370   6.290  11.055  0.1531 -0.3007  0.1471
 9543W        W25160   3.309   3.449   1.888  0.1816 -0.1082  0.0467
 9544W        W25161   4.765   2.282   4.677  0.2441 -0.2857  0.1780
 9545W        W25162  13.110  17.639  11.002 -0.0847 -0.0198 -0.2576
 9546W        W25163  10.214   1.960   3.980  0.0944 -0.4026 -0.0565
 9547W        W25164   5.336  18.884  15.049  0.0048  0.0214 -0.0181
 9548W        W25165  10.837  14.536  14.300 -0.1285 -0.2145  0.0973
 9549W        W25166  16.816   8.335   9.770  0.2042  0.3164 -0.3544
 9550W        W25167   4.341   6.468  13.579 -0.1296 -0.2162  0.1473
 9551W        W25168   2.027   1.389  12.333 -0.1362  0.1777  0.1492
 9552W        W25169  14.689  10.442   3.474  0.0316  0.1946  0.0415
 9553W        W25170   3.614  11.389  12.507  0.3943  0.0817  0.0254
 9554W        W25171   2.054  15.990   1.997  0.2678  0.4712  0.0680
 9555W        W25172   4.924  13.396  10.607  0.0770  0.0594 -0.0590
 9556W        W25173   3.934   2.854   2.678 -0.0156  0.0669 -0.3123
 9557W        W25174  18.697  17.902   2.148 -0.1737  0.1594  0.3495
 9558W        W25175  18.087  10.593  15.039 -0.0615 -0.1148 -0.0225
 9559W        W25176  11.446   8.671  11.393 -0.2285  0.1528  0.0825
 9560W        W25177  15.641   8.245  13.610 -0.5477  0.0528 -0.0257
 9561W        W25178   8.207   3.174  11.061  0.0435 -0.2478 -0.0506
 9562W        W25179   6.813  16.397  10.746  0.5221 -0.1285  0.0541
 9563W        W25180   3.738  12.283  12.171 -0.0009 -0.2276 -0.0494
 9564W        W25181  14.309  16.314  12.659 -0.1078 -0.3455  0.0506
 9565W        W25182   5.569   1.863   3.064 -0.1070 -0.3031 -0.0958
 9566W        W25183  17.118  15.894   5.340  0.0060 -0.0434 -0.1253
 9567W        W25184  10.046   2.289   2.549  0.3062  0.1965  0.0506
 9568W        W25185   9.796  11.615  10.854  0.3553 -0.2100  0.1547
 9569W        W25186   3.056  12.366   9.595 -0.1875 -0.1107  0.1052
 9570W        W25187  12.568  16.585  14.435 -0.2896 -0.3571 -0.3846
 9571W        W25188  17.971  14.640   1.184 -0.0787 -0.1505  0.0851
 9572W        W25189   0.705   5.270  12.017  0.5278 -0.1658  0.0512
 9573W        W25190   3.339  13.114  11.272 -0.0208 -0.2839  0.0217
 9574W        W25191   1.516  12.904  12.621  0.0244  0.1054 -0.0770
 9575W        W25192  10.215   8.814   0.188 -0.0589 -0.3863  0.2460
 9576W        W25193  10.773   3.541  12.781  0.3399 -0.0844  0.0452
 9577W        W25194   8.686  14.707   4.532 -0.1551 -0.0068 -0.0161
 9578W        W25195   5.756   9.951   2.749 -0.3563  0.1857  0.0292
 9579W        W25196  18.645   5.987   4.894 -0.1400  0.1893 -0.0003
 9580W        W25197  15.156  12.791  15.233  0.2045 -0.2577  0.1993
 9581W        W25198   3.730  15.913  14.414  0.0216 -0.0529  0.1601
 9582W        W25199  15.925   3.211   0.590 -0.1761  0.1340 -0.2380
 9583W        W25200   9.641  16.408   5.101  0.1084  0.0203 -0.0028
 9584W        W25201  12.831   0.178   0.071  0.1260  0.1557 -0.1917
 9585W        W25202  14.671  13.138   4.758 -0.1415 -0.3687 -0.0775
 9586W        W25203  15.534  15.520  12.097  0.5468  0.1059  0.2187
 9587W        W25204   5.646   7.024  13.754 -0.1779 -0.0900  0.1600
 9588W        W25205   8.726   4.154   1.237 -0.0956  0.0661 -0.0755
 9589W        W25206  15.936  10.006  12.306  0.2137 -0.2022 -0.0212
 9590W        W25207  11.364  13.926   3.868 -0.1856  0.3407 -0.2061
 9591W        W25208   4.525  15.770  13.419  0.0715  0.0269 -0.0517
 9592W        W25209  17.914   2.464  12.922  0.0846 -0.0932  0.0853
 9593W        W25210   3.990   4.671   5.203 -0.3717  0.0404  0.1127
 9594W        W25211  11.156  17.698   0.983  0.1256  0.1417 -0.0253
 9595W        W25212   2.201   1.955   5.301 -0.0291  0.3614 -0.0179
 9596W        W25213  17.088   3.315   5.139 -0.3830 -0.0471  0.1362
 9597W        W25214  18.194  15.917  12.700  0.1230 -0.0738 -0.1230
 9598W        W25215   0.293  12.498  12.077 -0.0833 -0.3504  0.1324
 9599W        W25216   5.990  19.011  11.399 -0.1759 -0.1645  0.0944
 9600W        W25217  17.658  17.248  13.600 -0.1676  0.0488 -0.4460
 9601W        W25218   7.743   3.560   9.746 -0.3472 -0.1338 -0.1483
 9602W        W25219   1.906  16.957   3.046 -0.3228 -0.2105 -0.0486
 9603W        W25220   6.510   3.940   3.732 -0.1092 -0.2602  0.1641
 9604W        W25221  18.861  15.787  14.025  0.1559  0.2074 -0.3257
 9605W        W25222  16.631  11.466  15.021  0.3885  0.1207  0.2066
 9606W        W25223  15.400  13.392   0.292 -0.4329 -0.1655 -0.1051
 9607W        W25224   0.985  10.553   4.528  0.0749  0.0725  0.1962
 9608W        W25225  16.213  15.703  11.601 -0.1572  0.0547  0.0300
 9609W        W25226   2.167  18.013  13.976 -0.0420 -0.1950 -0.0595
 9610W        W25227  10.811   9.164  14.765 -0.1146 -0.1889 -0.1213
 9611W        W25228  15.767  16.390  14.152 -0.0991  0.1754 -0.0290
 9612W        W25229   1.709   7.378  10.406 -0.1599  0.0219 -0.2556
 9613W        W25230   3.701   6.282  13.568  0.1015 -0.1702  0.0939
 9614W        W25231   4.460  14.921  13.500 -0.0999 -0.1226  0.0874
 9615W        W25232   8.557  15.689  14.004 -0.2398 -0.0058  0.1226
 9616W        W25233  12.188   4.701  14.704 -0.0391  0.0372  0.2070
 9617W        W25234   4.886   1.076  12.098  0.0003  0.3506 -0.2165
 9618W        W25235   5.532   2.274   3.397 -0.1450 -0.0117 -0.0832
 9619W        W25236   3.251   9.571   4.446 -0.2835 -0.0124  0.2154
 9620W        W25237  14.350  10.677  13.686  0.1883 -0.0278  0.0892
 9621W        W25238  16.349   8.915   2.705  0.2118 -0.1952  0.3158
 9622W        W25239   5.253  11.075   2.139 -0.1440 -0.0481 -0.2822
 9623W        W25240  18.830   2.487  11.768 -0.0199  0.3780 -0.0567
 9624W        W25241   0.228   5.531  12.698 -0.2209  0.1162 -0.1832
 9625W        W25242  17.589   8.394  12.780 -0.4042 -0.3415 -0.0481
 9626W        W25243  14.439  15.237  10.318  0.2967 -0.2063  0.3122
 9627W        W25244  10.129   2.116  10.874  0.0335 -0.0649 -0.1254
 9628W        W25245   2.329   4.996  10.915  0.3392 -0.4150  0.3033
 9629W        W25246  16.242  14.318   3.541  0.1236 -0.1447  0.0669
 9630W        W25247   9.473   5.997   1.005  0.1670  0.3197 -0.1365
 9631W        W25248   8.223   5.897   0.301  0.3648 -0.1731 -0.1442
 9632W        W25249   8.802   8.808   0.271 -0.1581  0.1056  0.0899
 9633W        W25250   5.385  16.551  13.930 -0.1979 -0.1280 -0.0969
 9634W        W25251  15.221   9.709   3.718  0.0733 -0.1560 -0.1933
 9635W        W25252  12.350   6.484   2.913  0.5022 -0.2413  0.0957
 9636W        W25253  12.947   2.963   4.231  0.5221 -0.3736 -0.0820
 9637W        W25254  16.775   4.594   0.488 -0.2344  0.4027 -0.2173
 9638W        W25255   5.428   4.611   1.326  0.4518 -0.2610  0.6545
 9639W        W25256   6.637  12.634   1.400  0.1453  0.0422 -0.0136
 9640W        W25257  16.211   6.391  12.564 -0.2709  0.0110 -0.0818
 9641W        W25258   4.242  18.728  15.045  0.0036 -0.0972  0.0336
 9642W        W25259  17.013   6.048   0.893 -0.0775  0.0258 -0.2360
 9643W        W25260   4.260  15.901   4.623 -0.1173  0.2887  0.0049
 9644W        W25261   0.026   7.548  11.169 -0.0808 -0.1212  0.2069
 9645W        W25262  11.010   1.644   0.121  0.2616 -0.0470 -0.3328
 9646W        W25263  13.154  14.546   1.769 -0.0463 -0.1479  0.2219
 9647W        W25264  11.798   3.494   2.743  0.4259 -0.0870  0.2087
 9648W        W25265   3.985   3.677   3.717  0.0131 -0.0126 -0.0261
 9649W        W25266   8.163  10.005   4.704 -0.0488 -0.3168  0.0878
 9650W        W25267  14.796   5.372  11.067 -0.0834 -0.1442 -0.2900
 9651W        W25268   5.022   2.086   4.246  0.0423 -0.4098 -0.0962
 9652W        W25269   7.240   0.392  13.666  0.1428  0.2359 -0.0250
 9653W        W25270   2.034  19.056   2.056  0.0059  0.1982  0.1285
 9654W        W25271   2.163   3.465  13.420  0.2133  0.0918  0.0815
 9655W        W25272  13.328  10.846   3.435 -0.2047  0.1869 -0.3591
 9656W        W25273  11.187   4.963  14.770  0.3928 -0.1088 -0.1100
 9657W        W25274   9.302  10.903   2.874  0.1506  0.0137  0.2101
 9658W        W25275  18.439   9.149   5.297 -0.3104  0.0519 -0.1936
 9659W        W25276  12.002   6.711   2.006 -0.1854 -0.0277  0.0413
 9660W        W25277   7.139  17.377  15.118 -0.1666 -0.0233  0.0634
 9661W        W25278  10.671  14.962   3.234  0.1212 -0.4480 -0.1418
 9662W        W25279  10.325  18.538   5.630 -0.1122 -0.1559  0.1492
 9663W        W25280   7.750  18.201   0.218 -0.1475  0.3805  0.2480
 9664W        W25281  16.892  15.347   1.034  0.1669  0.4424 -0.1986
 9665W        W25282  15.252  11.368   4.221  0.1499  0.1249 -0.3453
 9666W        W25283   3.241  12.581   1.961  0.0700  0.0998 -0.0680
 9667W        W25284   7.938  16.307   1.233 -0.2532  0.3262  0.1095
 9668W        W25285  16.005   8.250  14.840 -0.2567 -0.0827  0.0547
 9669W        W25286  15.946  14.126  13.919 -0.0130  0.2714 -0.0606
 9670W        W25287  13.756   8.902  12.017  0.1747  0.2771  0.0360
 9671W        W25288   5.515   3.401   4.037 -0.4802  0.1838 -0.0511
 9672W        W25289   4.315  14.970   5.169 -0.0658  0.3828 -0.3899
 9673W        W25290   5.785   4.322  14.187 -0.2092  0.0034  0.0493
 9674W        W25291  18.712   4.093   1.282 -0.0568  0.2022 -0.0709
 9675W        W25292   7.889  15.057  10.645  0.0014  0.0450  0.1495
 9676W        W25293  12.275   7.353   0.381  0.1973 -0.2856  0.0110
 9677W        W25294  13.795  18.680  13.919 -0.3259  0.2441 -0.0200
 9678W        W25295  13.169   3.901  14.997 -0.1508 -0.2615 -0.4618
 9679W        W25296   9.663  18.668  12.137  0.1688 -0.0495 -0.0662
 9680W        W25297  15.339   1.234  13.518  0.0003 -0.2212 -0.1744
 9681W        W25298  11.775   7.279   2.775 -0.0044  0.0346  0.0155
 9682W        W25299   1.563  18.866   9.857  0.2488  0.2183  0.0921
 9683W        W25300  18.544  10.824  13.649 -0.0173  0.0816 -0.1374
 9684W        W25301  16.570   9.363   3.955 -0.0721 -0.3648  0.0246
 9685W        W25302   8.452   8.821  13.672  0.3334 -0.1104 -0.5170
 9686W        W25303   5.346  11.610   1.054  0.1027  0.0843 -0.0798
 9687W        W25304   4.871   4.066  13.319  0.0406 -0.3481  0.1026
 9688W        W25305  14.324  14.662  13.198  0.1274 -0.0790  0.2583
 9689W        W25306  11.321  15.063  11.236  0.0950 -0.2790  0.1119
 9690W        W25307   8.104  18.179   2.698 -0.0968 -0.1287 -0.2435
 9691W        W25308   0.497  10.431  12.148 -0.0298  0.2354 -0.1631
 9692W        W25309  16.525   6.864   5.381 -0.1063  0.3238 -0.2703
 9693W        W25310   5.944  15.473  11.436  0.2274  0.2371  0.0021
 9694W        W25311   2.174  14.944  11.735 -0.1430  0.1140  0.1965
 9695W        W25312  17.364  11.395   0.135 -0.2728  0.0744 -0.0200
 9696W        W25313   5.124  12.607   4.852  0.0534 -0.0565  0.0763
 9697W        W25314  14.035   8.169   0.575  0.2110 -0.1644 -0.2473
 9698W        W25315  17.300  18.344  13.162 -0.1153  0.2949 -0.2098
 9699W        W25316  13.278  15.234   0.432  0.2272 -0.0923 -0.0626
 9700W        W25317   8.389   1.934   3.462  0.0409 -0.1856  0.0501
 9701W        W25318  17.558   1.491   2.843 -0.1766  0.3083 -0.1436
 9702W        W25319  15.712   2.109  10.922  0.3399 -0.2007  0.0840
 9703W        W25320   5.495   3.310   0.746  0.3052  0.1421  0.1230
 9704W        W25321   9.035   5.807   3.979  0.1125  0.1429  0.1996
 9705W        W25322   5.066   8.297   3.866  0.2743  0.2474 -0.0712
 9706W        W25323   1.037   2.167   0.189 -0.0203 -0.0649  0.0081
 9707W        W25324  17.429  11.175  10.801 -0.2557 -0.1478  0.2008
 9708W        W25325   9.905   1.546   0.675  0.0761  0.5301 -0.2520
 9709W        W25326  13.200  15.486   0.990 -0.2978  0.2303 -0.0300
 9710W        W25327   6.221  12.646  14.567  0.1149  0.4407  0.0625
 9711W        W25328   0.895   3.254   2.585  0.0877  0.0198 -0.1053
 9712W        W25329  10.673  13.116   1.840 -0.0333  0.0328  0.1885
 9713W        W25330  10.275  10.177  11.005  0.1314  0.0270  0.0419
 9714W        W25331   8.791   3.334   4.239  0.4089 -0.0741 -0.1029
 9715W        W25332  14.189  18.715   3.152  0.4372 -0.2230  0.2169
 9716W        W25333  16.174  15.459   1.533 -0.0678  0.2314 -0.3049
 9717W        W25334   5.652  15.426   4.244  0.0629 -0.0650  0.0818
 9718W        W25335  17.050   2.222  11.993 -0.0873 -0.1851  0.2580
 9719W        W25336  11.137  11.214  13.378  0.0748  0.1467  0.0092
 9720W        W25337  15.255   7.953  10.180 -0.0577 -0.3080  0.3261
 9721W        W25338   4.228  16.137  14.221  0.5010 -0.4090 -0.4386
 9722W        W25339   9.079  15.107  12.922  0.1935  0.1806 -0.0371
 9723W        W25340   1.460   9.289  12.406  0.0311  0.0448 -0.3824
 9724W        W25341   9.940   4.078  11.221 -0.0709 -0.2223  0.0040
 9725W        W25342   6.505  13.607  13.057 -0.0274 -0.2105  0.1416
 9726W        W25343   3.416   3.257  11.647 -0.0976  0.2327 -0.0076
 9727W        W25344  13.027   8.506   4.635 -0.1824 -0.0813 -0.3049
 9728W        W25345   4.078  14.047  13.957  0.0551  0.0514 -0.1317
 9729W        W25346  16.259  11.239  12.650  0.0097 -0.3293 -0.1163
 9730W        W25347  17.327  10.682   2.026  0.0764  0.1815 -0.1282
 9731W        W25348  10.267   6.387  11.015 -0.1450 -0.1478  0.0387
 9732W        W25349   9.365  12.960   0.094 -0.2748 -0.0001  0.0274
 9733W        W25350  15.383   9.870  13.103 -0.1790 -0.1753 -0.1337
 9734W        W25351   5.797  13.029   4.536 -0.0848 -0.0867  0.0798
 9735W        W25352  14.418   2.598   2.849  0.1253 -0.1012 -0.3124
 9736W        W25353   9.033  13.873  13.429  0.1906 -0.0102 -0.6119
 9737W        W25354   7.478  16.688   5.463 -0.2039 -0.1983 -0.1602
 9738W        W25355   5.721   1.256   4.534  0.2237 -0.2459  0.0794
 9739W        W25356   7.568   8.187   2.483 -0.3136 -0.1175  0.0967
 9740W        W25357   4.304  14.538  11.911 -0.0738  0.2983 -0.2314
 9741W        W25358  16.516  14.661   4.397 -0.1072  0.0801 -0.0390
 9742W        W25359   4.387  14.883   0.201 -0.1612 -0.5615  0.1324
 9743W        W25360  14.135  11.330   2.212  0.0485  0.4572  0.0841
 9744W        W25361   4.938   3.900   1.446  0.1763  0.2142 -0.2072
 9745W        W25362  17.145  17.208   3.157 -0.2381 -0.1121 -0.0892
 9746W        W25363   8.040  16.045  13.690  0.2959  0.0905 -0.0250
 9747W        W25364   8.154  11.784   2.745 -0.3188  0.2144  0.0617
 9748W        W25365   8.565  15.986   2.614  0.2449 -0.1968  0.2183
 9749W        W25366  16.292   1.857  12.171 -0.0897 -0.0233 -0.2537
 9750W        W25367   4.397   2.566   4.860  0.2381 -0.2307 -0.2283
 9751W        W25368  11.810  13.567   3.582 -0.2803  0.0392  0.0491
 9752W        W25369  10.045   8.152   4.573 -0.0554 -0.0119 -0.1216
 9753W        W25370   3.840  10.484  11.468 -0.0086 -0.2508 -0.2695
 9754W        W25371  16.053  15.588  12.608  0.0055 -0.1182 -0.0880
 9755W        W25372   8.465   6.901  13.172 -0.0766 -0.0862  0.3294
 9756W        W25373   0.967   4.203   1.600 -0.1196  0.0751 -0.0655
 9757W        W25374  11.147   7.299   0.449 -0.0451 -0.2212  0.0085
 9758W        W25375   0.981  10.181  13.659 -0.0289 -0.2455 -0.2290
 9759W        W25376  17.011  10.772  12.033  0.3520 -0.0855  0.2332
 9760W        W25377   2.056  18.538  14.184 -0.1497 -0.1539  0.0422
 9761W        W25378   8.876  16.199   3.203  0.2916  0.1142  0.1883
 9762W        W25379   4.688  18.339  11.752  0.4017 -0.0554  0.1439
 9763W        W25380   3.045  17.732  10.043  0.1788  0.0193 -0.2564
 9764W        W25381  10.059  13.804   9.539 -0.2292 -0.0394  0.2387
 9765W        W25382   1.191   8.522   2.250 -0.2862 -0.1589  0.0473
 9766W        W25383  14.582   2.990   4.147 -0.0771  0.1765 -0.0604
 9767W        W25384  10.658  17.131   2.707 -0.0826  0.1275  0.2058
 9768W        W25385  18.384  13.987  11.456 -0.0078 -0.0516  0.0332
 9769W        W25386   4.742  17.987  11.400 -0.2946  0.1607  0.1220
 9770W        W25387   4.765   1.019   2.423 -0.0930 -0.0134 -0.0303
 9771W        W25388   9.103  14.422  10.921 -0.0423  0.2321 -0.0507
 9772W        W25389  16.685   8.877   0.223 -0.0778  0.0940 -0.2861
 9773W        W25390   8.290   0.800   3.303  0.2019  0.0397  0.0157
 9774W        W25391   7.920   3.267  11.477 -0.1644 -0.2766  0.3196
 9775W        W25392  14.863   3.540  15.233 -0.4159  0.1264 -0.2188
 9776W        W25393   4.082  15.601  13.560 -0.0671 -0.1286  0.0118
 9777W        W25394  11.057   4.455   2.653  0.0437  0.4264  0.0957
 9778W        W25395   7.248   7.941  10.929  0.2538  0.1815 -0.1588
 9779W        W25396   3.760  15.536   3.440 -0.5195  0.4700  0.0858
 9780W        W25397  18.829  17.226   2.968  0.2799  0.1088  0.0638
 9781W        W25398   2.781  14.399   0.074  0.3535  0.1830  0.1972
 9782W        W25399  16.248   5.364   0.312  0.3744 -0.0066 -0.1423
 9783W        W25400   7.170  12.012  12.907 -0.0984 -0.0281 -0.1439
 9784W        W25401   2.904  18.849   0.792 -0.1208 -0.1585  0.2093
 9785W        W25402  17.827  15.627   4.181  0.1850  0.2031  0.2947
 9786W        W25403  18.346   8.303   2.739  0.1123 -0.1050 -0.2173
 9787W        W25404   4.372  12.457   0.554  0.0008 -0.2548  0.1410
 9788W        W25405   9.474  18.102  13.456  0.1522  0.0608  0.2623
 9789W        W25406   0.474   9.561   5.916  0.2925 -0.2747  0.1579
 9790W        W25407  11.204  16.248   1.451  0.0313  0.3512 -0.2598
 9791W        W25408   3.430   6.576  15.195  0.0534  0.1119 -0.1938
 9792W        W25409  18.841   9.949  12.679  0.0527 -0.1060  0.1998
 9793W        W25410   9.438   4.708   2.379  0.0874  0.3385 -0.0937
 9794W        W25411   2.386   0.484   2.283  0.0698 -0.1368 -0.0021
 9795W        W25412   8.421  15.903   3.076  0.0432  0.1260 -0.0174
 9796W        W25413  16.857  14.026  14.207 -0.1462  0.1648 -0.0257
 9797W        W25414  12.424   4.895   4.510 -0.0510  0.1458  0.2421
 9798W        W25415   7.040   6.817  12.316  0.1477  0.2817 -0.3463
 9799W        W25416   3.508   1.337   3.476  0.1682 -0.0315  0.0603
 9800W        W25417   6.338  16.818  14.119 -0.0852 -0.1918  0.0885
 9801W        W25418  11.533  14.046  11.299 -0.2253  0.0234  0.0181
 9802W        W25419  12.573  13.446   2.155  0.1273  0.0057 -0.3584
 9803W        W25420  10.159   7.251   3.193  0.2167  0.1452  0.1527
 9804W        W25421   2.472  11.181  11.971 -0.0924  0.0934 -0.1528
 9805W        W25422  13.191   9.148   3.893  0.2164 -0.2244  0.1640
 9806W        W25423  12.227   1.976  13.530  0.3347  0.2671 -0.5085
 9807W        W25424   3.367   5.855   1.567 -0.2159  0.1847 -0.1819
 9808W        W25425  10.724   8.459  14.002 -0.4361  0.0551 -0.0400
 9809W        W25426   1.435   0.581  10.876 -0.1262 -0.1460 -0.0392
 9810W        W25427  14.446   6.490  14.109  0.2942 -0.0425 -0.0825
 9811W        W25428  10.865  17.384  15.219  0.2704 -0.1506  0.3465
 9812W        W25429   9.330  14.533   5.503 -0.1108  0.1530 -0.1612
 9813W        W25430   6.652  13.734  14.455  0.1545  0.1150  0.0725
 9814W        W25431   7.776   8.450   0.931 -0.2724 -0.1275  0.1046
 9815W        W25432   1.759  18.712   4.288  0.3800  0.0270  0.0331
 9816W        W25433  16.702  17.600   5.896  0.1103  0.1424 -0.1616
 9817W        W25434   9.286  11.814   4.413  0.0971 -0.0313 -0.3099
 9818W        W25435   6.487   4.429  10.210 -0.0951  0.0685 -0.0440
 9819W        W25436   7.845   0.233   1.776 -0.1435 -0.1413  0.1745
 9820W        W25437  10.930   7.369   2.840  0.2755  0.0000  0.5385
 9821W        W25438  13.011   7.409   2.618 -0.0130 -0.0010 -0.0858
 9822W        W25439  15.921  10.098  14.731  0.0905  0.3220 -0.2352
 9823W        W25440  18.333  10.087  10.122  0.2707 -0.0853  0.1520
 9824W        W25441   1.835   4.969   1.890  0.1639 -0.2038  0.1470
 9825W        W25442  18.317  17.484  11.667  0.3848 -0.1121 -0.0493
 9826W        W25443  16.946  16.490   4.299 -0.0259  0.2122 -0.1731
 9827W        W25444  17.291   0.744   3.835  0.2722  0.1156 -0.2320
 9828W        W25445  15.541   2.501  11.616 -0.0108  0.0652  0.2189
 9829W        W25446  11.966   4.834   4.884 -0.0668 -0.0325 -0.3959
 9830W        W25447  11.743  18.352   3.012  0.1305 -0.0309 -0.1067
 9831W        W25448   8.087  18.063   3.368 -0.3224  0.1699 -0.3691
 9832W        W25449   6.166  13.133   2.601  0.2004 -0.3156  0.1337
 9833W        W25450   2.195   8.702  13.403  0.3669  0.0764 -0.2318
 9834W        W25451  15.856  17.940  12.424  0.3338 -0.3434 -0.0746
 9835W        W25452  18.308  15.713   3.955 -0.1798  0.0375 -0.1686
 9836W        W25453  13.547   4.927  13.868  0.1968 -0.2836  0.0764
 9837W        W25454  10.738   9.209   4.838  0.1861  0.3197 -0.1385
 9838W        W25455  11.119   6.390   4.752 -0.0523 -0.2651 -0.0315
 9839W        W25456  11.603   6.279   0.292  0.3110 -0.2653  0.4101
 9840W        W25457   0.259   9.361   0.696  0.3264  0.0156  0.0532
 9841W        W25458   6.685  10.792   3.066 -0.2610 -0.0591 -0.2142
 9842W        W25459   6.908   1.241   3.039  0.0932  0.0879  0.0668
 9843W        W25460  15.110  12.352   4.477  0.0392  0.0938 -0.0667
 9844W        W25461   8.395  16.143   5.907  0.2736  0.1099 -0.1992
 9845W        W25462   5.334   1.414  15.216  0.1684 -0.3071 -0.1109
 9846W        W25463  10.047  13.320   4.688 -0.1985  0.0857  0.1952
 9847W        W25464  15.410  16.359  14.834  0.1818 -0.1168  0.0787
 9848W        W25465   1.886   7.973  10.686  0.0600  0.4751  0.1021
 9849W        W25466   2.662  11.113  10.874 -0.0540 -0.3491 -0.1626
 9850W        W25467  14.125   0.624   3.130  0.1003 -0.2772  0.0553
 9851W        W25468  15.838   8.848   1.541  0.1449  0.0820  0.4379
 9852W        W25469  12.032   2.685   4.853  0.1973 -0.1022 -0.0261
 9853W        W25470  14.667  12.946  14.547  0.1677 -0.3013 -0.0412
 9854W        W25471   4.101  10.478   2.877 -0.2378 -0.1463 -0.1545
 9855W        W25472   3.397   8.367  13.056 -0.1455 -0.2253 -0.0902
 9856W        W25473   1.965   4.669  14.749 -0.0421 -0.2600  0.3322
 9857W        W25474   6.828  13.707   0.408  0.0263  0.2270 -0.1397
 9858W        W25475  17.504   5.249   2.159  0.0412 -0.1321  0.0227
 9859W        W25476  11.030  12.934   0.286 -0.0680 -0.1553  0.0578
 9860W        W25477  12.896  15.656  14.564 -0.0724  0.1668 -0.1118
 9861W        W25478  10.839   0.241   1.693 -0.1294  0.3263 -0.0449
 9862W        W25479   3.103  16.620   2.724 -0.0143  0.2525  0.0324
 9863W        W25480   2.108  15.942   3.528  0.4745 -0.2938 -0.4051
 9864W        W25481   8.122   5.058  14.477 -0.0466  0.2058  0.0436
 9865W        W25482   5.235  10.519   2.189 -0.0928 -0.2003 -0.0412
 9866W        W25483   7.463  11.381   3.656  0.2789  0.0318  0.1992
 9867W        W25484  10.457   7.370  15.054 -0.1084  0.0651  0.0151
 9868W        W25485   6.519   8.925   0.827  0.0144  0.1299 -0.1171
 9869W        W25486   3.721  18.966   4.446 -0.0877  0.0189 -0.5718
 9870W        W25487   3.646  10.147  12.347  0.2002 -0.2391  0.2313
 9871W        W25488   1.560  18.263  11.986 -0.1347  0.1858  0.0209
 9872W        W25489   8.511  10.098  12.675 -0.1400 -0.0014  0.0844
 9873W        W25490   3.821  13.578  11.401  0.0961 -0.0686 -0.2603
 9874W        W25491   3.859  14.347  13.307  0.0153 -0.4780 -0.0969
 9875W        W25492  16.096  11.827   1.350  0.0065 -0.0982  0.0962
 9876W        W25493   5.451  10.219   3.040 -0.0453  0.0464 -0.2831
 9877W        W25494   5.131  16.967  13.705  0.0355  0.0581 -0.1619
 9878W        W25495   8.243  18.165  11.265  0.3181  0.0153  0.1520
 9879W        W25496   0.782  16.341   0.815 -0.0171  0.2643 -0.2240
 9880W        W25497  14.282  18.929   1.822 -0.1598  0.1059 -0.2285
 9881W        W25498   1.891   2.897  13.586 -0.0121 -0.0048  0.0150
 9882W        W25499   3.930   4.264  12.828  0.1698  0.2452  0.0243
 9883W        W25500  15.352  18.381  10.532  0.1293 -0.3380  0.1798
 9884W        W25501   0.428   5.070  15.180 -0.0247 -0.0963 -0.2446
 9885W        W25502  10.998   2.377   1.231  0.0297 -0.1907 -0.3191
 9886W        W25503   7.868   2.197   3.676 -0.1127  0.0112  0.4142
 9887W        W25504   4.481  10.301  13.591 -0.3567  0.2111 -0.0514
 9888W        W25505  10.428  16.132  13.623  0.1437 -0.2110 -0.5037
 9889W        W25506  12.290   4.083  10.483  0.2548  0.2890 -0.2740
 9890W        W25507  16.026   4.457  12.971 -0.0576  0.0058 -0.4546
 9891W        W25508   6.685  17.126  15.112 -0.3607 -0.0590 -0.1488
 9892W        W25509  13.444  18.912  10.669  0.0617  0.0382  0.1814
 9893W        W25510   3.479   6.932  13.148 -0.2285  0.0192  0.1044
 9894W        W25511  17.828   3.377  10.647  0.1214 -0.0301  0.1524
 9895W        W25512   1.183  10.583  10.574  0.1962 -0.2284 -0.0421
 9896W        W25513  17.567   5.798   3.627 -0.2331 -0.2556  0.1893
 9897W        W25514   4.896   4.342  14.715  0.0212 -0.1271  0.0040
 9898W        W25515  16.585  16.513   0.285  0.2067  0.2162  0.0247
 9899W        W25516   6.268   4.629   1.715 -0.1322  0.2275 -0.0812
 9900W        W25517  14.704   6.430   4.218  0.0712  0.1551  0.2714
 9901W        W25518  18.794  16.106  13.080 -0.1981 -0.4488 -0.0659
 9902W        W25519   6.185   2.874  13.406  0.1339  0.1557 -0.0960
 9903W        W25520  11.852   0.033   0.993  0.3650 -0.4185  0.0895
 9904W        W25521  18.864  19.049   9.951 -0.0902 -0.0944  0.1812
 9905W        W25522  17.854  14.445  11.587 -0.0824  0.4932  0.0349
 9906W        W25523   5.551  15.366  10.830  0.2282  0.0965 -0.1328
 9907W        W25524   4.721  10.148  11.609 -0.1671  0.0131  0.1838
 9908W        W25525  14.009  15.438  10.333 -0.0662  0.0862  0.1647
 9909W        W25526   8.862   0.581  14.753 -0.1672 -0.0364  0.3672
 9910W        W25527   2.432   4.508  11.475 -0.1070  0.0265  0.2113
 9911W        W25528   2.408  13.387  11.106 -0.1153 -0.2014 -0.3887
 9912W        W25529  18.381   8.657   3.138 -0.2224  0.2464  0.0135
 9913W        W25530  17.394   3.186   2.699  0.0275  0.0156 -0.0903
 9914W        W25531  15.763   8.676  13.431  0.1473 -0.1883 -0.1419
 9915W        W25532   3.319  13.531   1.237 -0.0104 -0.1297 -0.1276
 9916W        W25533   3.402  17.512   5.544  0.0412 -0.0934  0.0494
 9917W        W25534  10.623  13.622   1.163 -0.2539  0.1594  0.3221
 9918W        W25535  13.885  17.709  11.407  0.0174 -0.0776  0.0752
 9919W        W25536   6.960   1.272   4.061 -0.1176  0.0688  0.3223
 9920W        W25537   9.130  16.921   0.445  0.4513 -0.1382  0.0451
 9921W        W25538   7.778   8.876  14.467 -0.1218  0.0588  0.1193
 9922W        W25539   6.871   6.057  13.179 -0.1561 -0.1887  0.0318
 9923W        W25540   8.542   3.152  14.905  0.2564 -0.1097 -0.3857
 9924W        W25541   0.039  17.547  11.157  0.0931 -0.1029 -0.1417
 9925W        W25542   0.150   2.423   4.131  0.0317  0.2482  0.1413
 9926W        W25543   1.326   7.685  13.136  0.1417 -0.1459  0.1757
 9927W        W25544   5.312  18.938  14.421  0.1482  0.0206 -0.0397
 9928W        W25545   4.812   4.214   5.521 -0.0089 -0.3426 -0.1787
 9929W        W25546  12.016   2.498   3.291 -0.0619  0.3783  0.0218
 9930W        W25547   5.314   1.238   1.149 -0.2631 -0.0704 -0.0885
 9931W        W25548  14.894   7.843   2.044  0.0031  0.2124 -0.2132
 9932W        W25549   3.878   7.681  11.334  0.0728 -0.1177 -0.3970
 9933W        W25550  15.305   1.777   2.285 -0.2199  0.0451  0.2759
 9934W        W25551  14.847  17.073   2.682 -0.2049 -0.1659 -0.0991
 9935W        W25552   5.836  14.475  11.273 -0.0410 -0.0049  0.4568
 9936W        W25553  12.924  16.001   1.728  0.1427  0.1125  0.1175
 9937W        W25554  12.073  16.900   2.533  0.1352  0.0716  0.0085
 9938W        W25555   3.149   7.271   2.816 -0.2574 -0.2312 -0.3431
 9939W        W25556   6.302   8.805  13.447  0.1534 -0.1143  0.1451
 9940W        W25557   3.808   4.590  11.987  0.3786  0.0516  0.0679
 9941W        W25558   1.141   5.017  12.490 -0.0981 -0.1613  0.0628
 9942W        W25559   8.821  14.572   1.304  0.1355  0.0049 -0.2234
 9943W        W25560  14.290  16.541   3.939  0.3851  0.1731  0.0554
 9944W        W25561   4.715  10.363   4.564 -0.0597  0.3299 -0.3049
 9945W        W25562   0.829  16.598  13.889 -0.2538  0.0916  0.0708
 9946W        W25563  10.590  17.977   3.402 -0.1230 -0.1890  0.1735
 9947W        W25564   4.166  16.997  12.622 -0.3563  0.2283  0.2234
 9948W        W25565  13.609  18.318   5.271  0.1008 -0.1029  0.0338
 9949W        W25566   2.262   8.304  13.682 -0.0946 -0.1868 -0.0982
 9950W        W25567  15.573   6.517   0.627  0.2308 -0.4241  0.2931
 9951W        W25568   9.373   6.540  14.480 -0.0451  0.1826  0.1979
 9952W        W25569  14.502   7.561   9.939  0.0007  0.2671 -0.1980
 9953W        W25570  12.739  12.221   5.574 -0.0530 -0.0983  0.0160
 9954W        W25571   3.315   2.879  13.800 -0.2668  0.1450 -0.2985
 9955W        W25572   0.063  15.316  12.494 -0.1914 -0.1776 -0.1467
 9956W        W25573   5.815   1.989  13.891  0.0310 -0.0736 -0.0145
 9957W        W25574  10.761  11.349  11.087  0.1222 -0.0104 -0.0168
 9958W        W25575   1.964  17.725  14.719  0.2230 -0.6002  0.0516
 9959W        W25576   9.364   3.555   4.903  0.0336  0.0640  0.0407
 9960W        W25577  16.661  10.679  14.157  0.0514 -0.2554  0.0504
 9961W        W25578  13.226   2.198   9.648  0.1562  0.0998  0.0264
 9962W        W25579  14.437  14.667  14.210  0.5368  0.0213 -0.0882
 9963W        W25580  15.929  12.741   0.650  0.3631 -0.2656  0.2788
 9964W        W25581  14.591  11.207  11.023 -0.1248 -0.1027 -0.1620
 9965W        W25582   0.481   8.100   1.234  0.1043  0.1917  0.2892
 9966W        W25583  17.437   9.683   0.040  0.1815  0.0681 -0.1206
 9967W        W25584  13.039  11.436  11.668  0.1072 -0.2963 -0.2396
 9968W        W25585  11.318  11.709  13.342 -0.1975  0.1336  0.3666
 9969W        W25586   6.724  14.531   1.669 -0.1824 -0.1770  0.0016
 9970W        W25587  11.727  18.607   1.680  0.2064  0.0148 -0.3046
 9971W        W25588   8.304  17.416  13.090 -0.0537  0.2934  0.2165
 9972W        W25589   0.394  17.982   5.178 -0.0432 -0.0737  0.1726
 9973W        W25590   9.893   6.013  12.076 -0.2130 -0.0703  0.2460
 9974W        W25591   0.435  17.970  14.983  0.0641 -0.0909  0.2923
 9975W        W25592   6.039   0.656   2.359  0.6048 -0.0088  0.3285
 9976W        W25593  16.400  10.206  11.614  0.0337  0.4867  0.1606
 9977W        W25594   1.788  11.523  12.339 -0.0922  0.0736 -0.1012
 9978W        W25595  13.240  14.013   4.569  0.2202 -0.2040  0.1506
 9979W        W25596  16.615   0.425  10.739  0.1329 -0.3610  0.1094
 9980W        W25597  10.120  11.830   1.540 -0.1018  0.2323  0.2095
 9981W        W25598  14.756   4.753   2.955 -0.0640 -0.1878  0.1096
 9982W        W25599   4.723   5.786   3.719  0.1139  0.0963  0.1950
 9983W        W25600   7.582   4.791   0.378 -0.0539 -0.0767 -0.1316
 9984W        W25601   5.624   9.941   1.482 -0.1361  0.2783  0.0232
 9985W        W25602   6.207  14.655   1.153 -0.0906 -0.2016 -0.0350
 9986W        W25603   7.902  10.889  12.676  0.0555 -0.2576 -0.1917
 9987W        W25604  13.213  12.738  13.603 -0.1127  0.1731 -0.4529
 9988W        W25605   0.592  18.576  11.899 -0.2580 -0.0267 -0.1583
 9989W        W25606  13.994   9.339  10.460 -0.1049  0.1634 -0.0117
 9990W        W25607   5.710  12.355  12.537 -0.1436  0.5475 -0.0537
 9991W        W25608   1.116   6.930   0.766  0.0732 -0.0524  0.0514
 9992W        W25609  12.190   9.526  10.408 -0.2961  0.0858 -0.0644
 9993W        W25610  18.388   8.547   5.450 -0.2044 -0.0932 -0.0299
 9994W        W25611  15.987   4.134   3.852  0.1275  0.3409  0.1815
 9995W        W25612  16.113   3.358  13.723 -0.2171  0.0749  0.1464
 9996W        W25613  18.793  14.262   0.629  0.2171  0.5697 -0.3984
 9997W        W25614   1.700  18.750  14.447 -0.1448 -0.2605  0.2484
 9998W        W25615   9.958  12.118   1.912  0.2192  0.1035  0.4007
 9999W        W25616   4.134  15.787  14.639 -0.0718 -0.1189 -0.0380
10000W        W25617   3.837   4.166  10.079 -0.0429  0.4212 -0.0711
10001W        W25618   8.194   5.907   2.643  0.1136  0.0596  0.1301
10002W        W25619   7.491   7.451   4.169  0.1456 -0.2911  0.1079
10003W        W25620   7.149   1.144  10.886  0.0454  0.1206  0.1788
10004W        W25621   6.685   3.357  13.945 -0.0380 -0.2265 -0.0316
10005W        W25622   9.021  14.028  14.406 -0.0933 -0.0588 -0.0953
10006W        W25623   0.354   6.687   2.988  0.3434  0.4311 -0.0002
10007W        W25624  14.100  18.255   2.820 -0.1849 -0.1612  0.2487
10008W        W25625   1.774   7.614   2.819  0.1365 -0.0167 -0.0834
10009W        W25626   1.532  17.612  10.509 -0.1849  0.0410  0.2000
10010W        W25627   2.846  14.558  12.987  0.1184 -0.1048 -0.3195
10011W        W25628  15.283  15.399  13.991 -0.3039  0.1405  0.1879
10012W        W25629   3.840   9.494  10.970  0.0679  0.0340  0.0349
10013W        W25630  17.472  12.133   2.281 -0.0964 -0.1250  0.1340
10014W        W25631  14.676  12.499   2.109  0.2709 -0.1349  0.3054
10015W        W25632   9.057   2.271  10.885 -0.1615 -0.3142 -0.3370
10016W        W25633  16.010   2.169  14.258  0.0645 -0.2775 -0.0202
10017W        W25634   3.304  10.121  14.545  0.0768  0.2312  0.1832
10018W        W25635  10.356  10.250  12.804  0.0548  0.1539  0.1725
10019W        W25636   4.464   4.083   1.483  0.1472 -0.0258  0.0091
10020W        W25637  12.493   2.025  14.579  0.1106  0.0508 -0.1720
10021W        W25638  14.240  13.805   0.857 -0.0450 -0.3147  0.0436
10022W        W25639  15.536   3.237  11.939  0.1763 -0.0910  0.2003
10023W        W25640  16.450  14.924  11.030 -0.0708 -0.1479 -0.3119
10024W        W25641   7.382  10.951  11.831 -0.1167  0.2246  0.2073
10025W        W25642   1.321  17.661  11.297 -0.1934  0.1555  0.1897
10026W        W25643  12.861   5.609   9.346 -0.2871 -0.1254  0.1955
10027W        W25644  18.795   3.338   4.917 -0.0200 -0.5209  0.0723
10028W        W25645   0.779   6.747  12.883  0.0174 -0.1221 -0.1774
10029W        W25646   1.708   8.258   3.477  0.2534  0.1224  0.2318
10030W        W25647   9.895   8.360   3.383 -0.2778  0.1821 -0.1280
10031W        W25648   8.070  10.650  11.609  0.0489 -0.0683 -0.0741
10032W        W25649  10.563  13.135   0.268  0.2184 -0.2238  0.0946
10033W        W25650   3.167   3.700   4.970 -0.0979  0.1396  0.1409
10034W        W25651   0.096   6.261   3.488 -0.0489  0.0265 -0.0769
10035W        W25652   5.835  17.975  15.227 -0.0411 -0.0224  0.1440
10036W        W25653   6.857   7.480   0.199  0.0787 -0.0466 -0.2182
10037W        W25654  11.685   8.455   3.020 -0.0812  0.1126  0.0659
10038W        W25655   7.090  12.049   3.934  0.2023  0.3033 -0.2203
10039W        W25656  17.394   7.910  14.399 -0.2046 -0.2131 -0.2684
10040W        W25657  10.921   8.956   2.122  0.0259 -0.1829 -0.0406
10041W        W25658  11.653   0.984  11.455 -0.0667  0.0273 -0.0470
10042W        W25659  15.838  18.473   2.982  0.0512 -0.1004  0.1155
10043W        W25660  13.834  10.633   3.419 -0.0229 -0.1151  0.2221
10044W        W25661   3.631  13.044   1.740 -0.3769  0.0617 -0.2261
10045W        W25662   4.760   6.399   5.999  0.1894 -0.0526 -0.3303
10046W        W25663   1.081   3.926   4.381  0.0290  0.1731 -0.1698
10047W        W25664   0.445   6.910   1.159 -0.2342 -0.2681 -0.0705
10048W        W25665  11.830   0.165  14.564 -0.0756 -0.1427  0.1399
10049W        W25666  18.690  15.827   4.248  0.2180  0.2094 -0.2119
10050W        W25667  12.262   8.965  11.842 -0.2400  0.0654  0.0697
10051W        W25668   8.340  11.004  11.920  0.0588  0.1046 -0.0876
10052W        W25669   1.551  17.091   1.614 -0.2900  0.1427 -0.0660
10053W        W25670  12.895   0.833  14.490 -0.3371  0.0638 -0.3185
10054W        W25671   0.643  14.967   4.125 -0.3062  0.0068 -0.1813
10055W        W25672  11.059   4.892   2.330 -0.0119 -0.1638 -0.2647
10056W        W25673  14.384  15.047  12.007  0.1602  0.3467  0.1902
10057W        W25674   7.227  16.320   5.197  0.0358 -0.2099 -0.1442
10058W        W25675   7.026  18.567   3.563  0.0559 -0.0760  0.0591
10059W        W25676   7.724   7.512   0.244  0.1194  0.1292  0.1610
10060W        W25677  14.176  10.195  15.091 -0.2405 -0.1659 -0.0250
10061W        W25678   8.494  15.286  15.020  0.3098 -0.1230  0.0666
10062W        W25679   6.718  14.941   0.023  0.1453 -0.2825  0.3004
10063W        W25680  10.381  14.213  14.845 -0.3047 -0.2835 -0.0618
10064W        W25681  11.582  18.367   5.098 -0.3426 -0.2013 -0.0678
10065W        W25682  15.386  17.021  14.941 -0.0167  0.1052 -0.1687
10066W        W25683  17.097  18.284  10.102 -0.0400 -0.1225  0.3064
10067W        W25684  14.778  16.923  14.456  0.3425  0.2821  0.1837
10068W        W25685   3.926   5.641   5.300 -0.1404  0.3561 -0.0216
10069W        W25686  11.295  17.601  15.283 -0.0849 -0.1189  0.2584
10070W        W25687   0.269   5.618   1.534 -0.0321  0.1675 -0.0855
10071W        W25688   2.869   0.183   2.534 -0.2275  0.1705 -0.1644
10072W        W25689   7.769   8.196   5.747 -0.1703  0.2456 -0.2584
10073W        W25690  15.487   6.776  12.545  0.0890  0.1438 -0.4139
10074W        W25691  11.744  17.531   3.543 -0.0363  0.0498 -0.0145
10075W        W25692   8.508   6.409  14.204  0.0728 -0.0793  0.0787
10076W        W25693  16.866  10.944  12.599 -0.0036 -0.0739 -0.3349
10077W        W25694   1.849  10.697   9.730  0.1554  0.0172  0.1028
10078W        W25695  11.847   7.775  10.478  0.0930 -0.1018 -0.1276
10079W        W25696  15.782  12.463   3.731  0.2348 -0.0849 -0.3303
10080W        W25697   6.243  15.414  11.868 -0.5957  0.0267  0.2406
10081W        W25698  15.404   5.817  12.150  0.0349  0.0723  0.0442
10082W        W25699   4.917   3.623  11.335 -0.0254  0.3294 -0.0355
10083W        W25700  17.185   1.733   4.214  0.4532  0.3466 -0.0214
10084W        W25701  14.951   3.381   3.211  0.1015  0.1672  0.1372
10085W        W25702   9.820   9.988   0.146  0.0537 -0.1534  0.1029
10086W        W25703   8.340  17.152   4.207 -0.0296 -0.0124 -0.2264
10087W        W25704   7.757   7.081   4.367  0.0146 -0.2409  0.2665
10088W        W25705   1.152  12.858   4.273 -0.3612 -0.1901 -0.0003
10089W        W25706   9.407   6.812   4.908  0.2750 -0.2618 -0.0489
10090W        W25707  14.176  11.761   4.321  0.0411 -0.1053  0.1718
10091W        W25708   6.593  16.235   1.478  0.1529 -0.1666  0.0970
10092W        W25709   5.658   8.212  12.546 -0.0706  0.1884  0.2189
10093W        W25710  11.715  18.924  12.242  0.0550 -0.1785  0.1435
10094W        W25711   6.036  12.089  13.786  0.2079 -0.3543 -0.1521
10095W        W25712  15.567   9.645   9.750 -0.1230  0.2895  0.2205
10096W        W25713   2.023  14.489  12.685 -0.0734 -0.0151 -0.0125
10097W        W25714  10.951   4.173  11.446  0.1622  0.2009 -0.1254
10098W        W25715   4.571   8.056   4.021  0.1531  0.0861 -0.5086
10099W        W25716  12.164   2.822  11.380 -0.4547 -0.0336  0.0104
10100W        W25717  18.767   9.883   4.052  0.1239  0.0644  0.4351
10101W        W25718  15.020  16.392  10.618 -0.3141 -0.0905  0.0814
10102W        W25719   8.697  16.629  13.755 -0.3543  0.1849 -0.1580
10103W        W25720   8.027  10.929   2.529 -0.1464  0.0304  0.2697
10104W        W25721  16.137  11.339  10.446  0.0031 -0.0841  0.2480
10105W        W25722   7.127  10.928   5.603 -0.1274 -0.0291 -0.2230
10106W        W25723   8.681   6.524   2.605 -0.1961 -0.1786 -0.1302
10107W        W25724  17.807   4.373   2.734  0.1341  0.0209 -0.0557
10108W        W25725   9.070  17.294  11.014  0.2988 -0.1412 -0.0377
10109W        W25726   2.505  10.032  11.052  0.0680 -0.0933  0.0545
10110W        W25727  17.957  18.442  11.583 -0.2804 -0.0450  0.0959
10111W        W25728   1.913   5.431   4.534  0.0882 -0.3110 -0.0204
10112W        W25729  13.645  15.053   0.706  0.3073  0.0008 -0.0169
10113W        W25730  11.532  10.502  13.514 -0.1675  0.0566  0.1329
10114W        W25731   3.614   2.979  14.258 -0.1368 -0.0284  0.0526
10115W        W25732   6.735   2.352   0.685 -0.1122  0.3244  0.2128
10116W        W25733  10.539   4.132   4.750  0.2415 -0.2089  0.0581
10117W        W25734   9.647   6.928  10.090  0.2259  0.0517  0.4228
10118W        W25735   5.724  14.186   3.686 -0.0152 -0.0708  0.0609
10119W        W25736  10.836  15.065   2.268 -0.0199 -0.0072 -0.1753
10120W        W25737  17.473   2.701   2.646  0.5106  0.0763 -0.0284
10121W        W25738   4.981   9.056   2.390 -0.0372  0.3105 -0.2863
10122W        W25739  14.389  18.390   0.147  0.0850  0.2947 -0.0635
10123W        W25740   4.441   8.500   1.271  0.0202 -0.0105  0.2024
10124W        W25741   7.148   7.197   1.475 -0.2897 -0.0333  0.3090
10125W        W25742  15.583   9.667  12.616 -0.0150 -0.1173  0.0568
10126W        W25743  18.450   8.913  11.235 -0.1156  0.0241 -0.4832
10127W        W25744   4.121   6.301  11.196  0.2549  0.1135 -0.2268
10128W        W25745  17.872   1.959  12.739  0.0860  0.0863 -0.0010
10129W        W25746   3.781   7.323  14.649 -0.2170 -0.1737 -0.6046
10130W        W25747   9.913   1.728   1.618 -0.1310  0.3690  0.4318
10131W        W25748   1.978   1.228   3.697  0.0803  0.0342  0.2864
10132W        W25749  18.371   9.997   2.834  0.1112 -0.2099  0.0360
10133W        W25750  13.353  13.942   5.058 -0.4952 -0.0276 -0.0378
10134W        W25751   6.499   7.914   3.292 -0.0904 -0.0082  0.1356
10135W        W25752   2.501  13.790  14.996  0.1981  0.0673 -0.0291
10136W        W25753   8.541   1.806  12.526  0.0773  0.0776 -0.1617
10137W        W25754   4.133  15.570  13.084  0.0228 -0.1263  0.2175
10138W        W25755   7.150   4.973  14.261 -0.1506 -0.3068 -0.0252
10139W        W25756  12.002  18.308  14.562  0.2234  0.1455 -0.0542
10140W        W25757  12.490  18.562   3.446  0.0550 -0.0756 -0.2996
10141W        W25758  18.952   6.635   3.205 -0.0406 -0.0353  0.0676
10142W        W25759   8.830  15.649  14.430  0.1721 -0.0210  0.0628
10143W        W25760   3.650   5.258  11.443  0.0167  0.3625  0.1407
10144W        W25761   3.098   6.412   5.486 -0.2498  0.2232 -0.2445
10145W        W25762  14.757  12.665  12.341  0.1301  0.1252  0.1635
10146W        W25763   4.580   9.596   3.355 -0.1531 -0.0043 -0.2162
10147W        W25764   3.308  10.067  11.981 -0.0478 -0.1361 -0.0523
10148W        W25765   9.925   7.035   2.630 -0.1707 -0.0375 -0.0769
10149W        W25766   8.267  19.033   1.531  0.4581  0.0530  0.0103
10150W        W25767   8.332   3.030  13.539 -0.2194 -0.0988  0.0285
10151W        W25768   3.736   0.749  14.455  0.1734  0.0473  0.1014
10152W        W25769  17.956  16.390   4.691 -0.0682 -0.2540  0.1631
10153W        W25770   0.155   5.878   0.265 -0.1106 -0.1863  0.1722
10154W        W25771  17.720   2.913   1.301  0.3864  0.1004 -0.2794
10155W        W25772  16.203   7.633   1.922  0.0066  0.1357  0.1189
10156W        W25773  18.679   3.695  11.495 -0.0560 -0.0806 -0.1606
10157W        W25774   1.932   7.062  12.315  0.0276  0.0867 -0.0496
10158W        W25775   1.127   4.357   2.484  0.0860 -0.2310  0.0082
10159W        W25776   1.909  13.058  12.362  0.1248  0.3980  0.0130
10160W        W25777  11.157  11.246   0.434 -0.0416  0.1565  0.1299
10161W        W25778   9.723  15.261   4.420 -0.0577 -0.3194  0.3631
10162W        W25779   4.665  10.104  14.617  0.0455 -0.1641  0.1413
10163W        W25780   7.497  17.693   4.594  0.2617  0.1435 -0.3840
10164W        W25781   9.115  13.019   4.998 -0.0018 -0.5509  0.5383
10165W        W25782   6.046   3.393   0.876 -0.1270 -0.2841 -0.0360
10166W        W25783   1.219   9.868  11.686 -0.3137 -0.0856  0.0014
10167W        W25784   4.783   0.888  11.568 -0.2656 -0.0145  0.0291
10168W        W25785   5.727   8.140   1.971 -0.0898  0.0459  0.1415
10169W        W25786   1.836   0.273   4.351  0.1767  0.0974 -0.0059
10170W        W25787   8.066  12.603   5.441 -0.2300  0.0222  0.1009
10171W        W25788   9.296   1.263  15.206  0.0623  0.2463  0.0759
10172W        W25789  11.157   4.207   4.008 -0.0478  0.2976  0.0966
10173W        W25790  15.547  15.093   1.639 -0.1829  0.1900 -0.0240
10174W        W25791  12.096  11.422   0.776  0.0638  0.0039  0.1478
10175W        W25792   1.134   3.440  11.313 -0.0161  0.3563  0.1425
10176W        W25793  14.257  17.281   1.760 -0.0548  0.2636  0.2199
10177W        W25794   8.195  11.286  14.115  0.1580  0.0458  0.0766
10178W        W25795  12.996   8.664  10.967  0.0685 -0.0639 -0.4283
10179W        W25796  15.982  14.032  10.061  0.1273  0.1230 -0.0852
10180W        W25797   9.526  14.968   5.432  0.1323 -0.0291 -0.3431
10181W        W25798  12.262  12.987   4.778 -0.2043  0.0853 -0.0089
10182W        W25799   5.130   2.064   1.818 -0.0966 -0.1172 -0.1253
10183W        W25800  15.256  10.710   1.193  0.3617 -0.1169 -0.0766
10184W        W25801  15.269  15.543   2.690 -0.2285  0.2760  0.0587
10185W        W25802  16.812  18.264   1.487  0.0428  0.2583 -0.0259
10186W        W25803  11.272   0.109  11.833  0.0365  0.1810  0.1362
10187W        W25804  15.799   7.074   1.502 -0.3201  0.0361  0.1152
10188W        W25805   7.020  11.693  12.144 -0.2223  0.3515  0.3080
10189W        W25806   8.685   3.327   1.565 -0.0127  0.1504 -0.1452
10190W        W25807   3.307   0.398   1.254  0.2637 -0.0907  0.1001
10191W        W25808   7.487   5.896  13.181 -0.0391  0.1125 -0.0717
10192W        W25809   7.695  12.251  14.760  0.2031  0.1325 -0.4729
10193W        W25810  15.547   8.091   4.470 -0.0676  0.1848 -0.1595
10194W        W25811  16.768   5.471  15.219 -0.1009  0.0168 -0.1155
10195W        W25812  13.009  11.449   1.752  0.1557  0.2512  0.0877
10196W        W25813   5.454   5.199  14.666  0.2802  0.3894 -0.0086
10197W        W25814  14.708  16.477   2.975  0.0153  0.0846  0.4978
10198W        W25815  10.895  15.210  11.481  0.2298 -0.1521 -0.0567
10199W        W25816   6.614   2.420  12.422 -0.5542  0.0497 -0.4197
10200W        W25817  17.002  18.982   5.293 -0.2060 -0.2790  0.1531
10201W        W25818   5.323   4.515   4.765 -0.1787  0.0163 -0.1021
10202W        W25819  18.584  10.562  13.197  0.0297 -0.1002 -0.3017
10203W        W25820   3.921  12.567  14.849 -0.0076 -0.0718 -0.1536
10204W        W25821  16.539  17.813   1.554  0.2723  0.1334 -0.2067
10205W        W25822  13.042  13.322  13.597 -0.0541  0.3103  0.0522
10206W        W25823  17.235  12.904   2.676 -0.1010 -0.1167  0.1558
10207W        W25824   7.176  18.120  11.170 -0.3372  0.4240 -0.1685
10208W        W25825   9.983   8.732  11.189 -0.1980 -0.1530  0.1351
10209W        W25826   3.527  18.175  10.799  0.1878  0.3162  0.2127
10210W        W25827  16.683  13.141   1.252  0.0498 -0.0986  0.1058
10211W        W25828   7.044  11.147  12.153 -0.0390 -0.2368  0.0621
10212W        W25829  11.147  11.206   2.720  0.0542  0.0893 -0.0683
10213W        W25830   1.423   4.792   1.268 -0.0490  0.3762  0.0769
10214W        W25831  15.295  18.927  13.737 -0.0206 -0.2035 -0.2261
10215W        W25832   5.745   8.770   3.040  0.0426 -0.4262  0.3824
10216W        W25833  11.492   8.015  10.746  0.2171  0.1630  0.2848
10217W        W25834   8.496   9.826  13.711 -0.1629  0.1373 -0.2276
10218W        W25835   5.312   9.725  11.372 -0.1635  0.1742  0.4056
10219W        W25836   4.607  10.549   0.278  0.1250  0.0062  0.1900
10220W        W25837   1.135  10.816   3.268 -0.1510  0.0375  0.1023
10221W        W25838   9.223  18.506  14.142  0.2142  0.1292  0.1006
10222W        W25839   3.076  13.968  10.749  0.1813 -0.1696  0.0653
10223W        W25840   0.548  15.261   9.656 -0.0750  0.3591 -0.1491
10224W        W25841   4.584  16.956   4.344 -0.0849  0.3128  0.1622
10225W        W25842   3.351  15.309  12.107 -0.2349 -0.1777  0.2185
10226W        W25843  18.486  15.379  14.046 -0.0982  0.4077 -0.1514
10227W        W25844   1.577  11.347   2.797 -0.0549 -0.1629  0.0731
10228W        W25845   8.417  16.510   0.188 -0.2793 -0.3713  0.1379
10229W        W25846   3.467  16.105   1.901  0.0419 -0.2436  0.0280
10230W        W25847   5.357   9.047  13.798 -0.2592  0.2575 -0.0425
10231W        W25848  17.713   0.413   0.948 -0.0930  0.0633  0.0458
10232W        W25849  18.183   2.082   4.013 -0.2805 -0.0723  0.1477
10233W        W25850   5.319  17.920  14.256 -0.1351  0.1709 -0.2045
10234W        W25851  14.724   2.148   3.192 -0.2285 -0.0211  0.0551
10235W        W25852   3.944  10.241  15.257  0.1628  0.0503  0.0528
10236W        W25853   6.083   7.654   3.027 -0.1570 -0.0042 -0.0962
10237W        W25854  13.334  14.865   3.926  0.0450  0.5663 -0.1281
10238W        W25855   3.273   9.594   0.749  0.0296  0.5500 -0.0404
10239W        W25856  10.274  16.921   4.375 -0.0473  0.1583 -0.1575
10240W        W25857   8.001   2.925   5.840 -0.1186  0.0267 -0.1609
10241W        W25858  14.356   3.677   0.026 -0.1503  0.1416 -0.2457
10242W        W25859   7.147   7.931   1.835  0.2286 -0.1431 -0.1450
10243W        W25860  10.195  11.645   3.764  0.0062  0.1802  0.1592
10244W        W25861   4.848   1.632   5.961 -0.1067 -0.2502  0.2947
10245W        W25862   6.558   3.235   4.304 -0.2390 -0.0312 -0.1803
10246W        W25863   4.473   1.719  14.809  0.2518 -0.0999 -0.2156
10247W        W25864   0.914   4.442   0.228  0.2648 -0.3165  0.0564
10248W        W25865   0.546   1.478  14.787  0.1951 -0.0162 -0.2167
10249W        W25866   1.269  12.914  14.339 -0.1365  0.3509 -0.3289
10250W        W25867  14.864  12.135  13.297 -0.0908 -0.2186 -0.0377
10251W        W25868   6.116  14.670  13.781  0.1039  0.0946  0.2344
10252W        W25869  17.715   7.901  12.663  0.0163  0.0528  0.1583
10253W        W25870  14.434   7.407   4.494  0.3468 -0.0993 -0.0977
10254W        W25871   4.829  15.854   2.798  0.2712  0.1640  0.1461
10255W        W25872  12.134  12.864  11.869 -0.0695  0.0416  0.1014
10256W        W25873  15.303  16.660  13.375  0.1200  0.1667 -0.0605
10257W        W25874  11.076   1.823  12.211  0.1874  0.2320 -0.0319
10258W        W25875   6.337  13.886  10.924  0.1271  0.2148  0.2002
10259W        W25876   3.983   8.772   1.921 -0.3539 -0.0145 -0.1339
10260W        W25877   6.526  14.153  10.101  0.0981  0.1811 -0.1504
10261W        W25878  16.175   5.998   4.472 -0.0089  0.2298  0.0259
10262W        W25879  13.643   8.298  13.458  0.2260 -0.0991 -0.0447
10263W        W25880   1.636   6.221   3.169 -0.1167 -0.0106 -0.0894
10264W        W25881   2.620  16.212   5.236 -0.0391 -0.0262 -0.0780
10265W        W25882  14.364  13.356   0.646  0.1715 -0.2895  0.2177
10266W        W25883  16.075  10.177  10.951  0.2593  0.0483 -0.2663
10267W        W25884  13.628  10.962   0.771  0.1603  0.0241 -0.0042
10268W        W25885   0.065   1.633   3.490  0.0915 -0.0772 -0.0131
10269W        W25886   2.025  11.134   1.864 -0.1319  0.1468 -0.1439
10270W        W25887  15.037   2.721   0.007 -0.5398 -0.0853 -0.1228
10271W        W25888   7.967   0.273  11.312  0.3081  0.1160 -0.0407
10272W        W25889  14.466   8.443   3.873  0.2716 -0.2265  0.1179
10273W        W25890  13.151   0.437  13.802 -0.3455  0.1770  0.4704
10274W        W25891  10.889  14.197   2.715 -0.0086  0.2540  0.2958
10275W        W25892  15.424   3.221   9.976  0.5764  0.3829 -0.0637
10276W        W25893   3.570   5.148  13.453 -0.2259 -0.1813  0.1512
10277W        W25894   6.053  11.864  12.200 -0.3344  0.0519 -0.2481
10278W        W25895   9.742  12.924   3.952  0.1830  0.0364 -0.1938
10279W        W25896  15.854   0.668   0.034  0.2003  0.0053 -0.1347
10280W        W25897   0.414  13.232   3.820  0.2160 -0.1018 -0.3264
10281W        W25898   4.564   6.559   4.022 -0.2328 -0.2969  0.0578
10282W        W25899  13.858   0.491  12.087  0.4435 -0.0989 -0.1728
10283W        W25900   5.611   8.082   4.549  0.0806  0.1438 -0.4123
10284W        W25901  15.515  10.751   4.119  0.0654  0.0109  0.1376
10285W        W25902  11.984  12.380  11.224  0.1838  0.0750  0.1255
10286W        W25903  12.392   9.437   3.327  0.2462  0.0718 -0.3253
10287W        W25904   3.079  14.849  13.939  0.0667  0.3783  0.1199
10288W        W25905  13.836   1.615  10.639  0.0129  0.1264 -0.0611
10289W        W25906   4.279   5.407  12.804 -0.4021 -0.1867 -0.0737
10290W        W25907  11.933  14.701   3.229 -0.5913  0.0804 -0.3114
10291W        W25908   7.456   4.095  14.445  0.2725  0.0146  0.3734
10292W        W25909  12.741   6.622   4.017 -0.3902 -0.0112 -0.0045
10293W        W25910   7.063  14.590   0.024  0.0028 -0.0635 -0.2821
10294W        W25911   9.255   0.649   0.778  0.1916 -0.2433 -0.2794
10295W        W25912   6.806   9.199  15.136 -0.0489  0.0121  0.3720
10296W        W25913   1.672  16.100   3.774  0.2482 -0.1461 -0.1860
10297W        W25914  18.668  17.436   4.852  0.1684 -0.3943 -0.2844
10298W        W25915   9.827  18.335   0.751 -0.0226  0.1365 -0.0147
10299W        W25916   1.930  18.699   2.550 -0.0990 -0.1146  0.0297
10300W        W25917  13.541  16.604   0.008  0.0268 -0.3223 -0.0666
10301W        W25918   0.571  11.699   1.816 -0.3255 -0.1131  0.3661
10302W        W25919  14.144  11.088  13.925 -0.0557  0.3628  0.0793
10303W        W25920   0.309   6.129   4.811 -0.1958  0.2114 -0.2358
10304W        W25921   1.189  15.754  10.760 -0.0413  0.3712  0.1925
10305W        W25922   7.440   8.074  12.703 -0.1044 -0.0795 -0.1993
10306W        W25923  13.819  18.271  11.385  0.1022  0.0434 -0.3690
10307W        W25924   6.689  14.900   1.220 -0.0170  0.1901 -0.2343
10308W        W25925  11.441   8.148   1.533 -0.5185 -0.2638 -0.0867
10309W        W25926  11.757  17.430   1.853  0.0049  0.1794 -0.3073
10310W        W25927  12.565  17.634   5.946 -0.1281  0.1579 -0.3270
10311W        W25928   9.544   6.597  12.065  0.1311  0.0914  0.2549
10312W        W25929  13.438  16.750  13.798 -0.0797 -0.1850 -0.1092
10313W        W25930  18.784  10.714  12.757 -0.1084  0.2343 -0.2137
10314W        W25931  11.993  16.433   4.667 -0.2830 -0.0807  0.0495
10315W        W25932   6.260  16.050   2.769 -0.2064 -0.0899 -0.2260
10316W        W25933  11.822  11.894  11.830  0.1025  0.3388  0.0939
10317W        W25934   1.153   5.394  14.526 -0.4751  0.0979 -0.0430
10318W        W25935   8.722  16.584  14.901 -0.0308  0.1911 -0.3111
10319W        W25936   0.372  17.025   0.849  0.1554  0.2208  0.3545
10320W        W25937  18.258   2.249  10.392  0.0689  0.1385  0.1259
10321W        W25938   0.116  10.003  13.627  0.0885 -0.2448 -0.1094
10322W        W25939  12.861  10.040  11.340 -0.0881  0.1359  0.0127
10323W        W25940  15.211   4.551   4.717 -0.2210  0.0558 -0.1184
10324W        W25941  12.825   7.987  14.963  0.1779 -0.0706 -0.0657
10325W        W25942   6.624  13.124  14.510 -0.1604  0.0625  0.4275
10326W        W25943  16.792   5.003  13.401  0.0548 -0.0230 -0.1306
10327W        W25944   4.184  17.733   4.070  0.0756 -0.1360  0.0177
10328W        W25945   9.900   9.098  14.067  0.4811  0.0163 -0.2704
10329W        W25946   9.856   1.113  10.707 -0.1459  0.1069 -0.0425
10330W        W25947   7.108   1.041   2.572 -0.2543 -0.0022 -0.1343
10331W        W25948  12.098   7.106   2.268 -0.0524  0.1801  0.0199
10332W        W25949  16.630  12.837  13.721  0.0413 -0.2137 -0.1279
10333W        W25950   8.005  11.381  12.782  0.3612 -0.0300 -0.1838
10334W        W25951  16.779   6.666   2.688 -0.2708  0.3861 -0.2104
10335W        W25952  19.062  13.017   3.884  0.2974  0.4359 -0.1878
10336W        W25953   0.334  17.225   1.952  0.0788 -0.3318 -0.2284
10337W        W25954   6.407  13.950  13.562  0.1932  0.1880  0.0210
10338W        W25955  10.779   5.151  11.959 -0.1397  0.0783  0.0106
10339W        W25956   5.759  17.157   1.733 -0.0813 -0.1324  0.0557
10340W        W25957   6.252  17.327  15.044 -0.0478 -0.0075 -0.0595
10341W        W25958  17.560   3.572  10.246  0.0579 -0.0024 -0.3167
10342W        W25959  12.033   0.957   2.034 -0.2630  0.3416  0.0805
10343W        W25960   1.272  10.325  11.810  0.0485 -0.1310 -0.1675
10344W        W25961   4.922   2.722  11.668  0.0491 -0.0780  0.3782
10345W        W25962   6.626   7.512   0.732  0.0900  0.1700 -0.0326
10346W        W25963  17.455  17.257   1.420  0.0554  0.0379 -0.0740
10347W        W25964   5.980  17.573  13.789  0.2518 -0.1681 -0.3069
10348W        W25965  10.332  17.553  15.091 -0.1301  0.0746 -0.0194
10349W        W25966  18.664   1.243  15.243 -0.2014  0.0540 -0.0394
10350W        W25967   6.755  16.021   3.058 -0.0843 -0.0858 -0.2035
10351W        W25968   7.348   6.895  14.663  0.0152  0.0059  0.2162
10352W        W25969   4.064   8.601   4.073 -0.0880  0.0473  0.1819
10353W        W25970  15.266  11.635   2.495  0.3745  0.1087  0.0000
10354W        W25971   8.009   2.999   1.167 -0.0146 -0.1297 -0.2465
10355W        W25972  17.769   5.423   0.417  0.2728  0.1249  0.0446
10356W        W25973   9.131   7.464  14.356  0.1478  0.2119  0.2000
10357W        W25974   9.688   1.750   5.459  0.0072  0.4023 -0.0818
10358W        W25975  13.472  15.573   4.910  0.1297 -0.0956  0.1467
10359W        W25976  14.495   7.856  12.552  0.1759 -0.0237  0.3310
10360W        W25977   1.170   4.798   2.721  0.3116  0.1096 -0.3426
10361W        W25978   0.059   9.551  13.913 -0.1691 -0.0032  0.0250
10362W        W25979  11.774  11.784   2.033  0.1728 -0.3135  0.1059
10363W        W25980   4.791  13.130   2.419  0.0636 -0.0178  0.3561
10364W        W25981  10.635  13.806  11.690  0.1538 -0.3507  0.0260
10365W        W25982  14.647  16.216  10.978 -0.2870  0.2555  0.0127
10366W        W25983   8.193  11.773  11.636 -0.2806 -0.2423 -0.1692
10367W        W25984   3.347  13.262  12.285 -0.2205 -0.3246  0.4249
10368W        W25985  10.585  16.258  15.132  0.0259 -0.0149  0.1024
10369W        W25986   5.776   3.215   2.424 -0.4312 -0.1046 -0.2619
10370W        W25987   7.976  16.046  11.922 -0.2263 -0.2340  0.0515
10371W        W25988  15.473  11.077   3.223  0.0430  0.1108  0.0810
10372W        W25989   4.435  16.647  11.558 -0.2550  0.0421  0.0790
10373W        W25990   7.185   6.033   4.924  0.0271 -0.0773 -0.2451
10374W        W25991  10.589  17.939  13.747 -0.0080  0.0631 -0.1336
10375W        W25992   0.590  15.735   3.756  0.3184 -0.3190 -0.0850
10376W        W25993  17.693  12.159  14.320 -0.1096 -0.1960  0.0464
10377W        W25994   6.576  10.991   4.081 -0.0335  0.0831  0.0004
10378W        W25995  15.300  12.283  15.099 -0.1678 -0.0546  0.2508
10379W        W25996  12.344   5.883   3.416 -0.1827 -0.2425 -0.3143
10380W        W25997  16.326  14.908  12.554  0.1236  0.1613 -0.0463
10381W        W25998   9.471  16.510  11.258  0.0894 -0.0335 -0.0364
10382W        W25999   9.974   4.230  12.668 -0.2502  0.4968  0.3621
10383W        W26000   7.151   2.676  13.391  0.0983 -0.0909  0.1610
10384W        W26001  14.197  19.066  10.892 -0.0315  0.3422 -0.0621
10385W        W26002  16.556   4.341   4.794 -0.0908  0.2441  0.4208
10386W        W26003   6.123  16.810  11.587  0.1892 -0.1141 -0.2968
10387W        W26004   2.443   6.668  10.253  0.1711  0.0786 -0.0107
10388W        W26005  14.140  13.652  11.892 -0.3216  0.0421 -0.1954
10389W        W26006   9.790  15.614  13.353 -0.0682  0.2111  0.1188
10390W        W26007   2.816  11.888   0.297  0.1160  0.1552  0.1719
10391W        W26008  12.928  11.822   4.868 -0.2979 -0.2109  0.1028
10392W        W26009  17.422  15.497   2.795 -0.3825  0.0614 -0.0008
10393W        W26010   3.072   5.990   4.697  0.1932 -0.1213  0.2480
10394W        W26011  10.665   2.936  14.469  0.0368 -0.1684  0.1079
10395W        W26012  11.577   4.476   4.083  0.1051 -0.0088 -0.2916
10396W        W26013  16.250  12.578  12.882 -0.1041  0.1736  0.2210
10397W        W26014   6.924   5.335  14.909  0.1556 -0.2389 -0.1233
10398W        W26015   4.896  17.652  12.311 -0.0590 -0.0635  0.2657
10399W        W26016   2.580   5.280   3.785  0.1870 -0.3348  0.1863
10400W        W26017   0.841   7.147  11.166  0.3726 -0.0391  0.1912
10401W        W26018   7.406  17.043  14.436 -0.2498  0.0841 -0.1968
10402W        W26019   5.600   0.099   1.547  0.1655 -0.0104 -0.0280
10403W        W26020   4.235   1.516   4.261  0.3013 -0.0648  0.2915
10404W        W26021   7.322  18.848   5.618 -0.0991  0.0737  0.1598
10405W        W26022  17.702  17.160   3.558 -0.0314 -0.0586  0.0528
10406W        W26023  18.672   6.180  11.036  0.1530 -0.3719 -0.3269
10407W        W26024   2.391   0.182   4.473  0.2675 -0.1339  0.1243
10408W        W26025   0.085   2.058  10.641 -0.1202  0.0352  0.1093
10409W        W26026  17.114  13.731  15.146 -0.0427 -0.3066  0.2974
10410W        W26027  13.965  15.823   4.948 -0.2289  0.5654  0.0256
10411W        W26028   2.134  10.359   4.735 -0.1924  0.3150 -0.1608
10412W        W26029   5.128   5.393  13.381 -0.1997 -0.2665 -0.1138
10413W        W26030   8.725  16.595   0.643  0.0684  0.0515 -0.2741
10414W        W26031   2.038   2.188  14.431 -0.2063 -0.1468  0.2218
10415W        W26032   9.105  18.085  12.085  0.3414 -0.0449 -0.0569
10416W        W26033   2.868  15.451   1.630  0.0658  0.0340  0.1604
10417W        W26034  10.072  12.231  12.918  0.2343 -0.1946 -0.0354
10418W        W26035  10.212   7.824   5.260 -0.1843  0.1602 -0.2365
10419W        W26036   8.788   3.297   3.766 -0.1026 -0.0265  0.3548
10420W        W26037  13.269   0.766  14.175 -0.3346  0.0140  0.2883
10421W        W26038   8.090  17.893  12.265  0.2663 -0.1173 -0.2100
10422W        W26039   1.312  14.190   0.995 -0.2872 -0.2241  0.1448
10423W        W26040   0.344   0.456  12.198  0.0141  0.3838  0.1406
10424W        W26041   5.403  16.667   3.922  0.1501  0.1548  0.1347
10425W        W26042   0.291   4.981   2.617  0.0447  0.1876  0.0379
10426W        W26043   2.006  14.981   1.991  0.0203 -0.1776  0.1871
10427W        W26044  10.097  17.662  10.670  0.2272 -0.0391  0.4425
10428W        W26045  10.196  13.700  14.928 -0.2899  0.1232 -0.2008
10429W        W26046  14.316   7.055  15.260 -0.2743 -0.2102  0.1911
10430W        W26047  10.700  17.491  12.959  0.0719  0.1783 -0.0492
10431W        W26048   1.699  11.671   0.377 -0.1789  0.1532 -0.3897
10432W        W26049   3.498   0.688   3.706 -0.3475  0.2620  0.1720
10433W        W26050  15.314  12.184   3.691  0.2048 -0.1053  0.1244
10434W        W26051  15.547   8.656   1.161  0.0364  0.1304 -0.1621
10435W        W26052  15.847  12.676  13.676  0.0642 -0.0326 -0.2811
10436W        W26053  18.059  12.774  15.151  0.1750 -0.0735 -0.2998
10437W        W26054  17.379   6.854   4.409  0.0463 -0.1681 -0.0631
10438W        W26055   9.959  16.457  12.182 -0.1114  0.0573 -0.1751
10439W        W26056   9.159   5.143  10.491  0.2400  0.0240 -0.2150
10440W        W26057   9.167   2.031   4.666  0.1570 -0.0358  0.1860
10441W        W26058  10.429  18.056  12.140  0.0532 -0.1227  0.0378
10442W        W26059   5.736   4.380   4.058  0.0609 -0.0432 -0.0442
10443W        W26060  18.281   5.084  12.214 -0.0223 -0.3826  0.1748
10444W        W26061   6.826  11.166   1.797 -0.1588 -0.1781 -0.1055
10445W        W26062   9.071   9.097   3.350 -0.0001 -0.0214 -0.0084
10446W        W26063   2.627  12.753  13.171  0.0258  0.2097  0.1659
10447W        W26064  17.245  18.448  12.295 -0.0735  0.1080  0.1242
10448W        W26065  18.746   1.533  12.587  0.0366  0.2792  0.2501
10449W        W26066   3.857  11.847  12.665  0.0596 -0.1157  0.3549
10450W        W26067   9.899   3.270  12.870 -0.0377 -0.0232 -0.0050
10451W        W26068  12.505  12.105   2.016 -0.2891 -0.0243 -0.0768
10452W        W26069  19.000   2.025  11.190 -0.0059  0.2118 -0.1639
10453W        W26070  14.831  12.500   5.374 -0.0943 -0.1098 -0.1301
10454W        W26071  16.530  12.487   4.354 -0.2067  0.0835 -0.0757
10455W        W26072   1.162  18.412   3.155  0.2090  0.0657  0.0374
10456W        W26073   8.629   2.528   5.259 -0.0242 -0.0841  0.1373
10457W        W26074   3.299   9.016  10.919 -0.0042 -0.1540 -0.2828
10458W        W26075   0.633   3.859  14.728 -0.1277 -0.1436  0.0058
10459W        W26076   0.820   1.249   3.488 -0.0025 -0.2138  0.0671
10460W        W26077   6.170  10.630  14.794  0.1461  0.2140 -0.1488
10461W        W26078  11.216  18.772   4.947 -0.0496 -0.2954  0.4440
10462W        W26079  13.235   1.743  11.085 -0.2003  0.6142  0.3133
10463W        W26080  11.949  15.525   1.479 -0.0323 -0.0934  0.4066
10464W        W26081  11.698  15.108  10.897 -0.1836 -0.0422 -0.1639
10465W        W26082   4.606  12.241  13.563 -0.2229 -0.0328 -0.3432
10466W        W26083  12.163  16.947  10.480 -0.0803 -0.2356  0.1685
10467W        W26084   5.965  15.654   5.264  0.1108  0.3593 -0.0392
10468W        W26085  14.816  17.066   4.625 -0.1819  0.2668 -0.1691
10469W        W26086  12.507  12.619   2.216 -0.0198 -0.2011 -0.1308
10470W        W26087  16.541   0.592   5.363 -0.1328  0.0171 -0.3270
10471W        W26088   9.288  16.950   5.154 -0.0090  0.3496  0.0239
10472W        W26089  16.016  18.912   3.727  0.2083  0.1220 -0.2187
10473W        W26090  11.468  13.152   0.436  0.1565 -0.0112  0.1860
10474W        W26091  15.639  14.605   2.334  0.3265  0.0213  0.0468
10475W        W26092  13.149  14.741  14.831  0.4395  0.0849  0.0367
10476W        W26093   7.426   0.562   4.167  0.4307  0.1261  0.1469
10477W        W26094  14.080  11.030   5.074 -0.1597  0.3208  0.0470
10478W        W26095  12.191  10.674  11.686 -0.0199  0.1369 -0.0778
10479W        W26096  10.399  10.805   1.090  0.2324 -0.2469 -0.0758
10480W        W26097  12.426  18.054   5.156 -0.2306 -0.1555  0.1115
10481W        W26098   9.461   3.449  14.756  0.1233 -0.1648  0.1042
10482W        W26099  13.304  13.295  12.035 -0.1794  0.2074 -0.0983
10483W        W26100   9.359  18.221  15.212 -0.0591 -0.0603  0.0597
10484W        W26101   3.206   4.768   5.620  0.2466  0.1422 -0.2750
10485W        W26102   6.385  13.686   2.151  0.0291 -0.0202 -0.2141
10486W        W26103   1.840   8.955  12.752 -0.0979  0.2485  0.1168
10487W        W26104  15.152   2.789   5.448  0.1590  0.2863 -0.2810
10488W        W26105  13.601  14.391  10.602  0.0967 -0.0485 -0.0551
10489W        W26106  14.691  11.515  12.575  0.0319 -0.1191  0.0215
10490W        W26107   9.052  13.275   0.386  0.0391 -0.1316 -0.2691
10491W        W26108   8.991   0.013  11.532  0.3081 -0.0175  0.4051
10492W        W26109   2.561  10.460  15.048  0.0785 -0.1198 -0.2545
10493W        W26110   0.430   5.810   3.759  0.2089  0.0197  0.0520
10494W        W26111   2.815   2.981   3.385 -0.0796 -0.2210 -0.1503
10495W        W26112   3.093   6.950  13.971  0.1291  0.0822  0.1948
10496W        W26113  13.110  17.083   2.972 -0.0084  0.2007  0.0104
10497W        W26114   8.585   2.740   9.513 -0.1032  0.1793  0.1456
10498W        W26115   2.383   7.360   4.708 -0.4184  0.2552 -0.2497
10499W        W26116  17.899  16.871   4.930 -0.0711 -0.0494  0.3656
10500W        W26117   4.874   4.975   5.543 -0.0110  0.1114 -0.1086
10501W        W26118   9.841   6.758   4.678 -0.2775 -0.0270 -0.2197
10502W        W26119  14.294  16.995  15.140 -0.2074 -0.1302  0.3245
10503W        W26120  19.075  11.196   4.553  0.3749  0.0453  0.0893
10504W        W26121  10.937  15.006  14.403  0.1893 -0.1798  0.0862
10505W        W26122   7.163   3.282   0.786  0.0127  0.0142  0.3791
10506W        W26123  10.909  10.761  13.238  0.0501 -0.2919  0.0239
10507W        W26124   0.542  16.858  10.089 -0.4188  0.1182 -0.3184
10508W        W26125   0.123  18.329   1.368  0.4319 -0.0414 -0.1674
10509W        W26126  12.983   2.620   1.644  0.0035  0.1881 -0.0482
10510W        W26127   3.157  14.316  11.767 -0.1088 -0.0842  0.0476
10511W        W26128  17.387   9.460  13.295  0.1058 -0.1067 -0.1625
10512W        W26129   6.220   7.829   1.423 -0.0298  0.0843  0.0598
10513W        W26130  10.075  11.978   3.215 -0.2320  0.0222  0.1106
10514W        W26131  18.521  17.531  10.674 -0.0882  0.3518  0.0008
10515W        W26132  13.511   2.566  14.111  0.3449 -0.1746 -0.2229
10516W        W26133   3.468   3.387  14.591  0.4060  0.0400 -0.0135
10517W        W26134   7.514  14.532   4.672  0.0247  0.1993 -0.0970
10518W        W26135   9.858   1.065   3.261 -0.1943  0.0752  0.2080
10519W        W26136  13.586   5.720   3.873 -0.0192 -0.0294  0.2722
10520W        W26137   4.711  13.723  14.218  0.0486  0.1465  0.3008
10521W        W26138   1.937   7.710   0.062 -0.0534  0.2961 -0.2163
10522W        W26139   2.240  12.919  14.601  0.1873 -0.1395 -0.3042
10523W        W26140   9.281  18.449   4.118  0.1762 -0.2308 -0.1251
10524W        W26141   1.232  14.902  12.518 -0.2391  0.0284 -0.1941
10525W        W26142   6.890  10.420   1.017 -0.1060  0.2784  0.0204
10526W        W26143  10.158   8.146  14.989  0.0982 -0.0938  0.1381
10527W        W26144   7.896  10.410   1.072 -0.0943 -0.0143 -0.1971
10528W        W26145  12.567  13.274   5.049  0.2905  0.0207 -0.0221
10529W        W26146   6.937  17.953   4.563  0.0963 -0.0729 -0.0146
10530W        W26147  18.456   1.651   0.188 -0.1148 -0.2955 -0.2123
10531W        W26148  10.539   9.941  12.068 -0.0170  0.0347 -0.0996
10532W        W26149   9.891   9.069   2.234 -0.1619 -0.0213  0.3670
10533W        W26150  10.646   5.810   5.344 -0.3148  0.0971 -0.3542
10534W        W26151  13.770   1.001   3.910  0.0794  0.0088 -0.0547
10535W        W26152   3.836   1.830   1.469  0.0731  0.0396 -0.3575
10536W        W26153   7.338  15.622  13.404  0.0456  0.3276 -0.1340
10537W        W26154  18.373  12.955   2.213 -0.4496  0.2559 -0.1563
10538W        W26155   0.357   8.716  13.015  0.0057  0.2180  0.0593
10539W        W26156  13.738  15.969   1.860 -0.5777 -0.0643 -0.0611
10540W        W26157   5.126  14.016  12.939 -0.3043  0.3393 -0.1219
10541W        W26158  17.651  11.374   4.578 -0.0070  0.1661 -0.1667
10542W        W26159   8.000   1.453  10.837 -0.0606 -0.6283 -0.3030
10543W        W26160  13.083  13.848   2.830 -0.1303  0.1021  0.1461
10544W        W26161   4.033  11.063   4.728 -0.2982 -0.2105 -0.0151
10545W        W26162   8.332  11.279   2.796  0.1293  0.1234  0.0308
10546W        W26163   8.352  13.961   3.909 -0.0335  0.3986 -0.0268
10547W        W26164  13.508  15.849   2.447  0.0586  0.0877  0.1818
10548W        W26165   3.958  13.517   4.465  0.1982 -0.0488  0.3088
10549W        W26166  17.718   5.102   4.775  0.1726 -0.1892  0.1980
10550W        W26167  13.609   2.808  14.535 -0.1142 -0.0281 -0.2998
10551W        W26168   7.995  13.855  14.877 -0.3225 -0.3634 -0.1341
10552W        W26169  12.923   1.603   1.168 -0.0563 -0.0822 -0.1899
10553W        W26170   9.335  12.351  10.696 -0.0233  0.4050  0.0698
10554W        W26171  13.002  12.807  10.025  0.1086 -0.0782 -0.0309
10555W        W26172  11.944   4.359  11.910  0.3234  0.0143 -0.3969
10556W        W26173  13.428  12.959   2.458 -0.0200  0.3266 -0.2065
10557W        W26174   9.266  15.218   0.797  0.0637 -0.0335 -0.1235
10558W        W26175   6.819   0.014   1.623 -0.0816 -0.0377  0.4595
10559W        W26176   1.207  14.990   1.927  0.1674  0.1677 -0.1412
10560W        W26177   4.891  16.407   3.095  0.3385 -0.0368  0.0032
10561W        W26178  13.379   5.621   3.308 -0.1122  0.1836 -0.0002
10562W        W26179   3.994  15.818   2.267  0.3485  0.0289  0.4180
10563W        W26180   6.494   5.396   2.551  0.0214  0.0359  0.0108
10564W        W26181  10.077   4.424   5.488  0.0892 -0.1223  0.2218
10565W        W26182   9.228  11.677  11.590  0.1705  0.1954 -0.1439
10566W        W26183   1.043   1.270  11.983  0.0585  0.1950  0.1041
10567W        W26184   1.833  13.333  10.875  0.1912 -0.0879  0.1900
10568W        W26185   6.877  15.370  12.050 -0.1533 -0.1519  0.1057
10569W        W26186  13.608  16.095   1.361  0.1398 -0.0225  0.1364
10570W        W26187   0.578   7.838   2.507 -0.2971 -0.1740 -0.2207
10571W        W26188   5.083   1.816   0.325 -0.2908  0.2666  0.1865
10572W        W26189   4.543  11.088   3.414  0.0184 -0.2676  0.0792
10573W        W26190  11.703  11.940  14.847 -0.2260  0.1869  0.1492
10574W        W26191   9.202   6.598   1.384  0.0374  0.0268  0.1130
10575W        W26192  10.759  19.042  12.558 -0.3936  0.2129  0.1102
10576W        W26193  12.082  15.058   5.175  0.0013  0.3430  0.1166
10577W        W26194   8.727  12.966  11.456  0.2331  0.0726  0.2022
10578W        W26195  12.695   9.345   2.869 -0.0338 -0.2558 -0.2171
10579W        W26196  12.088  14.022  14.987  0.1020 -0.0617 -0.0006
10580W        W26197   2.708  15.247   5.788 -0.0509 -0.1870  0.2889
10581W        W26198  12.798  16.409  10.617  0.0101 -0.1141 -0.1791
10582W        W26199  10.656   1.155  14.374 -0.0105  0.0562 -0.3426
10583W        W26200   8.587  17.406   3.854 -0.0284  0.1805 -0.1169
10584W        W26201   2.492   8.262   4.153  0.0090  0.3522  0.1365
10585W        W26202   1.783   7.480  13.196 -0.0275  0.1143  0.1697
10586W        W26203  13.170   3.539  13.736 -0.0128 -0.2958  0.1791
10587W        W26204   3.153  11.224  10.659 -0.0360  0.2178 -0.0960
10588W        W26205   5.709   6.894  12.157 -0.1274  0.1573  0.0318
10589W        W26206   8.648  14.463  11.231 -0.1590 -0.4071  0.0447
10590W        W26207   6.829  14.826   3.023  0.1198  0.0842  0.2188
10591W        W26208  10.918   7.853  10.180 -0.3300 -0.0517  0.0931
10592W        W26209   0.662   4.779  11.612 -0.0327 -0.2500  0.0574
10593W        W26210   9.912  15.583  12.713 -0.3399  0.3139  0.0949
10594W        W26211  18.763  15.359  13.638 -0.1223 -0.2006 -0.1831
10595W        W26212   3.284  18.025   1.490  0.0723 -0.0796 -0.0743
10596W        W26213  14.215  12.094  10.976 -0.1203  0.1967  0.1626
10597W        W26214  16.643   8.146  11.897 -0.0014  0.0863  0.0912
10598W        W26215   6.655  15.637   5.428 -0.1342 -0.0265 -0.0847
10599W        W26216   3.606  14.465   0.421  0.0217  0.1689  0.1791
10600W        W26217  10.680  13.687   2.518 -0.1741  0.3591 -0.3143
10601W        W26218   7.888   5.094   1.417  0.2345  0.1044 -0.2443
10602W        W26219  17.802   1.952   3.701  0.0449 -0.3008  0.2452
10603W        W26220   1.631   7.606   5.942  0.2820  0.0762 -0.1927
10604W        W26221   0.046  18.550  10.926  0.3005  0.2623  0.1024
10605W        W26222   7.808   4.830  13.957  0.0377  0.0261  0.0117
10606W        W26223  13.394  18.340   1.700 -0.1185  0.2736 -0.0302
10607W        W26224   7.500  14.112  15.243  0.0938 -0.2393  0.0239
10608W        W26225  11.023   8.476   9.451  0.1224  0.2845  0.0122
10609W        W26226   7.518   6.458   0.226  0.0422 -0.0859  0.4214
10610W        W26227   7.217  11.802   2.439 -0.1093  0.0737  0.0625
10611W        W26228   2.379   4.383  12.876 -0.1676  0.4821  0.1122
10612W        W26229  16.782   1.873  10.186  0.1801 -0.1034 -0.1286
10613W        W26230   3.055  12.860  10.336 -0.0651 -0.1196 -0.0248
10614W        W26231   5.312  19.059   3.756 -0.3957 -0.0052 -0.1243
10615W        W26232   8.710  10.929  10.688 -0.1849  0.0982  0.4111
10616W        W26233   5.012  11.025  12.674  0.3153  0.2916 -0.3750
10617W        W26234   4.929  18.165   5.038  0.4309  0.2085  0.0945
10618W        W26235  14.400  15.151  13.461  0.1843  0.1017 -0.1808
10619W        W26236   1.741   0.709   4.096 -0.2986 -0.3704 -0.0604
10620W        W26237  18.082   0.580  12.517 -0.0978 -0.1394 -0.2445
10621W        W26238  11.790  11.862   2.629 -0.2034  0.1695 -0.3109
10622W        W26239  18.234  16.903  10.288  0.0068  0.0219 -0.2323
10623W        W26240   8.917   1.031  10.955 -0.1399 -0.2119  0.2479
10624W        W26241   4.442  11.788  12.532  0.1261 -0.1991  0.0091
10625W        W26242  17.945  17.060  15.167  0.0038  0.1189  0.0018
10626W        W26243  18.182   0.065  14.295 -0.1440 -0.0713  0.1319
10627W        W26244   8.927  16.701   3.172  0.4394 -0.0007 -0.0465
10628W        W26245  13.418   0.457  10.714  0.1184  0.1064 -0.2395
10629W        W26246   6.874   9.167   4.183  0.3056  0.0029 -0.0507
10630W        W26247  10.273   5.083  12.224  0.3632  0.0537  0.1704
10631W        W26248  12.195   6.619  13.041 -0.0799  0.3051 -0.0642
10632W        W26249   7.524   5.190  15.152 -0.0131 -0.0273 -0.1408
10633W        W26250   1.415   6.953   2.532 -0.0374  0.1416  0.0594
10634W        W26251   5.014   4.907   2.487  0.0820 -0.1443 -0.0071
10635W        W26252  12.950  15.456   0.164 -0.2999 -0.2053 -0.2170
10636W        W26253  16.659   2.324  12.459  0.1131 -0.2302 -0.1972
10637W        W26254   5.908  12.099   5.367  0.1430  0.2717  0.0089
10638W        W26255  10.870   0.677   4.667  0.1033  0.0491 -0.0235
10639W        W26256  16.548  14.077   9.976 -0.0289  0.0570 -0.0137
10640W        W26257   3.455  17.121   1.962 -0.1095 -0.0315 -0.4116
10641W        W26258  14.808   6.955   5.727 -0.3503 -0.2034  0.2649
10642W        W26259  13.441  17.544  14.905  0.3143 -0.0512  0.0331
10643W        W26260   2.273   4.193  13.626 -0.0245  0.0744 -0.0817
10644W        W26261   5.774  13.014   5.377  0.0061  0.0009  0.2433
10645W        W26262   8.544   3.348  12.689  0.1687  0.1392 -0.0053
10646W        W26263   1.371   2.330   3.390  0.1474  0.2385 -0.0283
10647W        W26264   3.259   8.084   4.667 -0.2170 -0.2240 -0.2023
10648W        W26265  16.526   3.453  15.076 -0.2450  0.1147 -0.0242
10649W        W26266  15.124   8.084   4.817  0.0596 -0.3855 -0.2893
10650W        W26267   5.012   0.879   2.012 -0.1054 -0.1554  0.0439
10651W        W26268  18.386   6.244  14.869  0.0576 -0.0643  0.0081
10652W        W26269   1.649   3.126   0.768 -0.2060 -0.1138  0.1419
10653W        W26270  14.763   2.500   0.312 -0.0238  0.2287  0.3720
10654W        W26271   8.684   6.405  13.207  0.1732 -0.3157 -0.2602
10655W        W26272   3.005   3.375  14.840 -0.0357  0.1492  0.2902
10656W        W26273   8.838  18.154   4.008 -0.0251 -0.0197  0.2377
10657W        W26274   5.921  17.891   3.081 -0.3856 -0.0546  0.0251
10658W        W26275   9.256   8.595  12.227  0.1696 -0.1371 -0.1535
10659W        W26276   0.203   1.334  15.188 -0.1448  0.2479  0.0969
10660W        W26277  10.663  17.141   2.205  0.0372 -0.0394  0.1132
10661W        W26278   3.370   7.520  11.248 -0.3503  0.0016 -0.1518
10662W        W26279  13.763  10.616  10.621 -0.1058  0.0276 -0.1658
10663W        W26280  17.284   2.974  12.594  0.1943  0.1326 -0.0898
10664W        W26281  17.476   4.274  11.897 -0.3757 -0.1436  0.2620
10665W        W26282  15.206  16.359   2.987 -0.3318 -0.0334 -0.1724
10666W        W26283   4.089   3.440   5.166 -0.3795 -0.2502  0.2529
10667W        W26284   7.190  16.565  13.956  0.0607  0.0401  0.0763
10668W        W26285   9.606   3.504  11.760  0.0395  0.1635  0.2180
10669W        W26286  15.294  11.537  14.139  0.0865  0.0255  0.0925
10670W        W26287  11.553   3.549  13.263 -0.2122 -0.1091 -0.1561
10671W        W26288  15.295  17.459  12.233  0.4978  0.0894  0.4306
10672W        W26289  12.108  12.616   0.289 -0.1363 -0.3163 -0.0652
10673W        W26290  17.322   1.238  14.812  0.0992 -0.2566 -0.0679
10674W        W26291   8.645  10.219   0.606  0.0051 -0.2743 -0.0018
10675W        W26292   4.810  16.439   5.193 -0.0864  0.4131  0.3733
10676W        W26293  14.338   6.502   0.856  0.0570  0.0888  0.4794
10677W        W26294  18.360  10.946   2.997 -0.0477 -0.2858 -0.1316
10678W        W26295   6.646   2.272   2.040 -0.1882  0.4046 -0.0105
10679W        W26296   8.033  17.564   4.653 -0.0119  0.0937  0.0737
10680W        W26297  12.537   5.132  13.635  0.0212 -0.1759 -0.1261
10681W        W26298  12.605   3.295  12.046  0.4600  0.1841 -0.1076
10682W        W26299   3.085   2.064   0.667 -0.2285 -0.2371  0.0486
10683W        W26300   1.185  17.037  14.268  0.0096  0.1137 -0.3722
10684W        W26301  18.712   0.826  14.367 -0.4648  0.0996  0.5496
10685W        W26302  14.925   3.974   0.288  0.2767  0.1050 -0.1023
10686W        W26303  12.998  16.197  12.068  0.3018 -0.2274 -0.1357
10687W        W26304   3.991   2.191  13.596  0.1695  0.0263 -0.1555
10688W        W26305  15.651   1.017   4.606 -0.0934  0.1512  0.0899
10689W        W26306   7.486   4.251  11.824 -0.0382  0.0563 -0.3400
10690W        W26307  12.023  13.671   0.192  0.0134  0.0274  0.2702
10691W        W26308  14.720   7.043   0.280 -0.4500 -0.3406  0.0704
10692W        W26309   2.370  18.482  10.994 -0.0191 -0.1066 -0.0553
10693W        W26310  18.993  12.921  13.299  0.2564 -0.0274  0.2935
10694W        W26311  11.371   7.171  11.166  0.0627 -0.2672  0.1243
10695W        W26312  10.523  12.079  10.760  0.2937 -0.0213 -0.0174
10696W        W26313  13.810   5.687  10.300 -0.0314  0.2963 -0.0323
10697W        W26314   7.178   7.274  12.233  0.2885 -0.2363 -0.1654
10698W        W26315  13.531   7.298   5.123 -0.3617  0.1692  0.2111
10699W        W26316   0.051  16.488   0.107 -0.1491  0.2278  0.1197
10700W        W26317  11.603   5.551   0.941 -0.0918  0.1927 -0.3538
10701W        W26318  10.780   1.558   3.629 -0.2647 -0.0637  0.1036
10702W        W26319   4.981  17.514  10.699  0.0438 -0.2728  0.0414
10703W        W26320  10.644  10.086  11.441 -0.0978  0.0762 -0.0666
10704W        W26321   5.798   8.696   2.056 -0.1773 -0.2061  0.2220
10705W        W26322   9.098  16.845  14.306 -0.3154  0.2176  0.1310
10706W        W26323  16.787   5.193  14.318  0.0085  0.0624 -0.1702
10707W        W26324   8.162   4.665  11.409  0.0766  0.1085  0.1125
10708W        W26325  15.316  17.940  12.361  0.4000 -0.1934  0.1138
10709W        W26326   6.227   4.535   2.264  0.2714  0.1180  0.0172
10710W        W26327   4.118  11.795   1.218 -0.0343  0.3387  0.1790
10711W        W26328  18.021   6.923   1.689 -0.1724 -0.1698 -0.3141
10712W        W26329   0.133   1.083  13.380  0.0523 -0.0879  0.1033
10713W        W26330  18.943   7.486  12.150 -0.0141  0.0947  0.0186
10714W        W26331   6.024   7.278  12.055 -0.0171 -0.0143  0.1592
10715W        W26332  12.008  13.188   9.861 -0.0515 -0.0595 -0.2438
10716W        W26333   7.283  14.243   1.908 -0.2754 -0.0276 -0.1084
10717W        W26334  12.519   7.800   3.756  0.0988 -0.1950  0.1594
10718W        W26335   3.143   4.620   3.989  0.0100  0.4459 -0.1783
10719W        W26336  15.237   5.288   1.285 -0.2329  0.5130  0.0598
10720W        W26337  14.172   9.570   4.849 -0.0557 -0.1387 -0.1501
10721W        W26338   9.587  19.005   5.327  0.1198  0.1865  0.1656
10722W        W26339   6.882   1.843  13.969 -0.1108 -0.0913 -0.2093
10723W        W26340  11.803  18.297  13.478 -0.2208  0.3553  0.0090
10724W        W26341  18.253   4.221  10.495 -0.1277 -0.1048  0.0675
10725W        W26342   3.283   3.399   5.386 -0.2290 -0.1554 -0.0313
10726W        W26343  12.715   3.275   4.668 -0.1317  0.0304 -0.0463
10727W        W26344   8.454   7.392   1.155 -0.1849 -0.2362  0.0057
10728W        W26345   1.310  11.376   9.311  0.1520  0.2663  0.3543
10729W        W26346  12.594   1.311   1.517 -0.0774  0.0799  0.0485
10730W        W26347   5.671  11.473  14.607 -0.1902 -0.3215  0.2625
10731W        W26348  13.890   0.688  10.400  0.0360 -0.1193  0.0759
10732W        W26349   9.149   8.017  14.490  0.1916  0.4187  0.1077
10733W        W26350   9.535   8.708  13.352  0.0405  0.0372 -0.1336
10734W        W26351   0.112  17.842   0.836  0.1556 -0.2657  0.0032
10735W        W26352  16.399  16.515  10.545  0.1685  0.2718 -0.3166
10736W        W26353   5.158  16.096   0.307  0.2382 -0.1266  0.0836
10737W        W26354   8.027  19.068   0.554 -0.1388  0.0642  0.1099
10738W        W26355  13.618   8.906   3.941 -0.0877 -0.1748  0.1210
10739W        W26356  14.911  17.642  14.994 -0.0137  0.0306 -0.0460
10740W        W26357   2.101   3.171   0.679 -0.0481 -0.2631  0.0960
10741W        W26358   6.763  16.869   4.023 -0.2822 -0.3410  0.1063
10742W        W26359   9.469  15.947   1.051  0.1382 -0.0295 -0.0766
10743W        W26360   9.510   0.997   4.032  0.0085  0.0343 -0.2048
10744W        W26361  18.099   1.731   1.647 -0.0685  0.1381 -0.2938
10745W        W26362   6.411   7.080   0.553 -0.1642 -0.3269  0.4056
10746W        W26363  15.453  15.888  13.965 -0.0404  0.0977 -0.0642
10747W        W26364   7.554   4.818  10.901 -0.0141 -0.0845  0.0818
10748W        W26365   3.392  10.729   0.883  0.0552 -0.0593  0.2163
10749W        W26366  16.597  15.667   4.497  0.0896 -0.2533 -0.3327
10750W        W26367  14.526   0.250  15.006 -0.0376 -0.0852 -0.1125
10751W        W26368   8.305   3.837  13.054  0.2674  0.0118 -0.2377
10752W        W26369   4.966   5.037  11.146  0.1058 -0.3299  0.1323
10753W        W26370  11.020   1.653   1.723 -0.0223 -0.4140  0.0609
10754W        W26371  10.187   3.160   1.070  0.1985  0.1446 -0.0973
10755W        W26372   8.856  14.485   5.998  0.0001  0.0545  0.1277
10756W        W26373   3.635  18.689  12.029 -0.0884 -0.2855  0.1937
10757W        W26374   3.439  14.922  12.436 -0.0357 -0.2837  0.0270
10758W        W26375   5.878   0.062  14.155  0.1041 -0.0932 -0.0950
10759W        W26376   2.942  14.070   0.499 -0.0850  0.0694 -0.1440
10760W        W26377   4.732   1.687   4.077 -0.0658  0.0636 -0.0916
10761W        W26378  11.012  17.725  10.866 -0.0055 -0.0239  0.0898
10762W        W26379  15.094   3.581   3.682 -0.1167  0.2454 -0.3882
10763W        W26380  10.421  15.225   1.146  0.0459  0.2558  0.3770
10764W        W26381   5.030  15.311  11.012  0.1120 -0.0820  0.2271
10765W        W26382  17.462   6.365   4.446 -0.1789 -0.2295 -0.4035
10766W        W26383   4.831   6.770  15.139 -0.2269  0.2246  0.2103
10767W        W26384   0.011  11.606   3.721 -0.4175  0.0237  0.1133
10768W        W26385   5.718   0.904   2.642  0.0403 -0.1860 -0.3381
10769W        W26386   0.053   8.255  14.971 -0.0390 -0.2073  0.1612
10770W        W26387   7.392  17.636  11.494  0.0735  0.1202  0.1251
10771W        W26388  12.663   2.726  11.244  0.1190  0.0054  0.1995
10772W        W26389   8.145   4.168   2.553  0.2707  0.3368  0.3415
10773W        W26390  10.307  13.574  11.946  0.0006 -0.3079  0.0213
10774W        W26391   3.887   9.606  10.488  0.2254 -0.0015 -0.2595
10775W        W26392   0.844  14.612   3.260 -0.0642  0.0690  0.0429
10776W        W26393  14.885  14.033  13.148  0.3661  0.0771 -0.0649
10777W        W26394   3.395   0.499   2.442 -0.0424 -0.3232 -0.2645
10778W        W26395   0.007  18.601   2.877 -0.1105  0.0776  0.1431
10779W        W26396   2.705   6.022  14.729 -0.1428 -0.2931  0.3025
10780W        W26397  14.962  17.022   0.362 -0.1004  0.0904 -0.0975
10781W        W26398   1.126  13.496  11.054  0.5166 -0.0941 -0.3200
10782W        W26399   5.186  18.723  12.937  0.0477 -0.0876 -0.0646
10783W        W26400   1.033  11.979   2.329  0.0194  0.1972  0.1574
10784W        W26401   8.261   5.614  13.470 -0.2739  0.2463  0.0125
10785W        W26402   1.817   1.697   1.467 -0.4070  0.0527  0.1289
10786W        W26403  18.769  16.611   4.352  0.0786  0.2708 -0.0802
10787W        W26404  10.397  11.622  11.321  0.0257 -0.0776  0.1031
10788W        W26405   5.690   1.502  13.632 -0.2181 -0.1498  0.0816
10789W        W26406  14.862  16.492   2.471  0.2275  0.0481  0.0023
10790W        W26407  17.734  10.691  12.294  0.3553 -0.2124  0.1902
10791W        W26408   5.541  17.949   0.850 -0.2346 -0.0896  0.2085
10792W        W26409   1.175   0.246  11.954 -0.2828 -0.1124 -0.0889
10793W        W26410  17.898   5.102  10.642 -0.0697 -0.0569  0.2662
10794W        W26411   6.097   3.642   0.021 -0.1563  0.0998  0.3141
10795W        W26412  14.325   8.135   5.680  0.0370 -0.2555  0.2881
10796W        W26413  16.667   7.618  13.470 -0.1136  0.0440  0.3164
10797W        W26414  18.945  13.554  15.077  0.1296  0.2225 -0.2889
10798W        W26415   0.621   3.083   4.750  0.1048  0.1236  0.0295
10799W        W26416   2.507   3.944  11.562  0.2763 -0.2157  0.2570
10800W        W26417   2.086  13.539  11.709  0.0175  0.3627 -0.2088
10801W        W26418   6.774  18.930  10.637 -0.0995 -0.2043  0.1673
10802W        W26419   3.634  10.455  11.047 -0.2441 -0.0360  0.3154
10803W        W26420   1.896   0.158   2.625 -0.0047 -0.2644 -0.1377
10804W        W26421  13.079   8.367   2.676  0.0489 -0.2318 -0.0392
10805W        W26422   5.841  16.195  12.719 -0.0945  0.1580 -0.1695
10806W        W26423  14.094  17.827   2.414 -0.1563 -0.3582 -0.0486
10807W        W26424   2.273  12.324   4.668 -0.1501 -0.0753 -0.2568
10808W        W26425   7.901  13.299  12.538  0.1831 -0.0757 -0.0023
10809W        W26426   1.191  11.598  12.024 -0.3233 -0.0793 -0.0023
10810W        W26427  12.008  13.752   2.139  0.4149  0.0305 -0.2544
10811W        W26428   3.018   7.637   3.859 -0.3068  0.0064  0.1472
10812W        W26429  16.197   8.035   3.323  0.0127 -0.1485  0.1643
10813W        W26430  11.358  13.735   2.829 -0.3231 -0.1815  0.0333
10814W        W26431   0.722  16.005  11.124 -0.1143  0.0663 -0.3732
10815W        W26432  16.625   1.835  14.000  0.2183  0.3588  0.0005
10816W        W26433  15.199  12.326   0.269  0.0785 -0.2556  0.2835
10817W        W26434  16.705  10.073  10.367  0.2249 -0.0841 -0.0478
10818W        W26435   0.002  12.107   3.435 -0.0376  0.2027  0.1550
10819W        W26436   7.382   1.709   0.749 -0.1304 -0.2335  0.2449
10820W        W26437  18.958   8.857   4.628 -0.0131  0.2984 -0.0802
10821W        W26438  11.936  15.002   0.926 -0.0984 -0.1185  0.0821
10822W        W26439   9.138   0.661   1.653  0.0239  0.1699  0.3120
10823W        W26440   6.120   0.693  12.197  0.1733 -0.0912  0.0112
10824W        W26441   3.129   0.847   2.865  0.0446 -0.1142 -0.1144
10825W        W26442   6.993   6.198   2.856  0.2264  0.1879 -0.5408
10826W        W26443   4.076  17.791  15.282  0.1806 -0.0209  0.3850
10827W        W26444   0.326   5.047   5.603 -0.2211  0.1379 -0.0279
10828W        W26445  11.236   5.148  12.150 -0.0705  0.1350  0.0083
10829W        W26446  11.998   0.747   0.238 -0.1925 -0.3511 -0.0601
10830W        W26447   3.502   9.246  12.863 -0.1755  0.3693  0.0614
10831W        W26448   3.265  17.088  13.699 -0.2638  0.0364  0.0221
10832W        W26449  15.055   3.015   1.469 -0.1485 -0.2560  0.0708
10833W        W26450   8.363  12.899   4.048 -0.1198  0.2091  0.1709
10834W        W26451   7.940   2.268  13.870  0.1522  0.0849 -0.0221
10835W        W26452  18.596   9.300   5.887  0.1120  0.1745  0.1768
10836W        W26453  18.762  13.484  13.838 -0.1464  0.2579 -0.1031
10837W        W26454   9.968  10.053  12.178 -0.1780  0.0639  0.3758
10838W        W26455   4.227   7.489  11.091 -0.2072 -0.2939  0.1290
10839W        W26456  18.681  14.737  10.027 -0.0649  0.0043  0.0082
10840W        W26457   9.048  13.670   4.476 -0.1023 -0.0129  0.1694
10841W        W26458   5.848   2.706   2.381  0.1788  0.1302 -0.1756
10842W        W26459  11.042   1.574  10.706 -0.2449 -0.0500 -0.3415
10843W        W26460   6.834  10.023   1.293  0.3719  0.0124 -0.0486
10844W        W26461   9.755   4.233   0.384 -0.0327 -0.0175  0.2650
10845W        W26462  17.159  11.721   2.979 -0.1563  0.1247  0.2375
10846W        W26463  15.220  17.147  11.245  0.0542 -0.0094  0.0771
10847W        W26464  15.226  15.748  14.772  0.0729  0.0564 -0.3412
10848W        W26465  18.496   0.479  14.794 -0.1844  0.0125 -0.1054
10849W        W26466  11.795   3.767  14.910 -0.0361 -0.2158 -0.0971
10850W        W26467   1.438  12.026  11.496  0.1977  0.4944  0.0754
10851W        W26468   2.304  11.767   3.182  0.2460 -0.1837 -0.3361
10852W        W26469   8.850   3.187  12.219  0.0959 -0.0778  0.3010
10853W        W26470  18.188   7.167   2.979 -0.0770 -0.1792 -0.2132
10854W        W26471  10.767   7.104   4.406 -0.1764  0.0603  0.2720
10855W        W26472  17.671   9.120   4.637 -0.2102  0.1986  0.1436
10856W        W26473  15.867   8.968   2.937 -0.1292 -0.0408  0.2344
10857W        W26474  12.442   0.922  14.254 -0.0234 -0.1073 -0.2959
10858W        W26475   2.774  15.513  11.798 -0.2716  0.0669  0.0416
10859W        W26476   3.602  11.100  10.442 -0.1964 -0.3424  0.2968
10860W        W26477  10.207  11.061  13.044  0.0520  0.0263 -0.1569
10861W        W26478   8.065   7.816  12.240  0.1105 -0.0941  0.1573
10862W        W26479   9.655  11.095  12.260 -0.0021 -0.0410 -0.0750
10863W        W26480  14.203  14.922   1.871  0.3956  0.0773  0.0145
10864W        W26481   0.033   4.313  10.822  0.2816 -0.0654 -0.0303
10865W        W26482   8.335  18.399   3.616  0.2649 -0.0502  0.1046
10866W        W26483  11.931   2.751  13.360 -0.0518 -0.1161  0.3356
10867W        W26484   2.215   5.353   3.462 -0.0649  0.1521  0.0592
10868W        W26485  17.219   2.608  11.640 -0.0247  0.2692 -0.1636
10869W        W26486   5.248  12.509   4.013 -0.1474  0.1866 -0.1774
10870W        W26487  12.800   6.493   0.800 -0.1087  0.2533 -0.2003
10871W        W26488  12.189   9.942   3.239  0.1755 -0.0269 -0.0729
10872W        W26489  12.096   4.760  10.599 -0.0131 -0.0578 -0.0146
10873W        W26490  14.430  17.273   3.653  0.0527 -0.0246 -0.2829
10874W        W26491  16.962   5.608   2.400  0.0702 -0.0893 -0.1504
10875W        W26492   7.829   7.481   1.989  0.0407 -0.0001  0.0765
10876W        W26493  10.134  13.915   1.828 -0.2487 -0.1025  0.1614
10877W        W26494   2.424   4.714  14.985 -0.2093  0.1663 -0.3697
10878W        W26495   4.216  11.553  14.459  0.1095  0.1469 -0.0484
10879W        W26496  18.217   2.498   3.271  0.2118  0.2287  0.0072
10880W        W26497  17.389   6.782  15.229  0.2326  0.0270 -0.1889
10881W        W26498  15.401  13.061  14.136 -0.1598  0.0704 -0.5264
10882W        W26499   4.326  12.943  12.271 -0.1348 -0.0607 -0.0548
10883W        W26500   2.296   6.962  13.644 -0.0398  0.0952  0.1624
10884W        W26501   1.623  17.557   9.960  0.0322 -0.1403 -0.1127
10885W        W26502   6.876  10.544   1.481  0.0827  0.0753 -0.1279
10886W        W26503   3.903  16.386   0.447 -0.0499  0.0412 -0.0252
10887W        W26504   1.602  14.929  11.625 -0.1026 -0.0112 -0.1679
10888W        W26505   6.920   1.292  13.300  0.0468 -0.0487 -0.1753
10889W        W26506   6.477   5.788   5.604 -0.1807  0.0273  0.0105
10890W        W26507   2.967   5.189   2.973 -0.1270 -0.0490  0.2204
10891W        W26508   5.316   3.591  11.042 -0.0947  0.1187  0.0540
10892W        W26509   1.575  10.746  14.872  0.0815  0.0233 -0.1494
10893W        W26510   1.445   3.573   4.499  0.1433  0.0665  0.2585
10894W        W26511  17.378  10.024   4.477 -0.2694  0.1683  0.0887
10895W        W26512  14.693   8.653  12.143  0.0322  0.1119 -0.1168
10896W        W26513   5.495  14.054   1.094 -0.1606 -0.0172  0.2176
10897W        W26514  14.274   4.674  12.777  0.0945  0.3442 -0.2225
10898W        W26515  14.260  11.886  13.643 -0.2059 -0.2011  0.1542
10899W        W26516   3.325   8.644  12.208 -0.2189 -0.0194  0.2044
10900W        W26517   9.985  11.245  13.795 -0.0819  0.1913 -0.0916
10901W        W26518   5.242  17.176  12.016 -0.2605 -0.2733 -0.1422
10902W        W26519   3.356  16.382   0.585  0.0683  0.5363 -0.3123
10903W        W26520   5.653   8.406  12.068  0.2453  0.0614  0.1438
10904W        W26521  11.149   2.129   0.138  0.1387 -0.1871 -0.1171
10905W        W26522   8.183   5.271   4.021 -0.1234 -0.1527 -0.1699
10906W        W26523   4.571   0.702   6.323  0.2691  0.1497 -0.1230
10907W        W26524  17.708   5.865  11.222 -0.2285  0.0790  0.1176
10908W        W26525  15.884  15.484  13.614  0.0416 -0.3034  0.3503
10909W        W26526   6.276   2.634   0.143  0.2767 -0.3762  0.0722
10910W        W26527  14.786  18.590   0.996  0.0255 -0.2425 -0.0109
10911W        W26528  15.734  11.707  13.983 -0.0244 -0.2604 -0.0623
10912W        W26529   3.777  18.001   3.193  0.2664 -0.0913  0.0112
10913W        W26530   7.710   3.742  12.223 -0.0346  0.1115 -0.0735
10914W        W26531   0.750   1.213   2.486  0.2574  0.0873  0.2896
10915W        W26532  17.260  14.652   3.247 -0.2379 -0.4819  0.2046
10916W        W26533   4.367  17.464  12.253 -0.5329  0.1248 -0.0812
10917W        W26534   6.642   2.603  13.402 -0.2634 -0.1553  0.0314
10918W        W26535   5.957   0.224  12.280 -0.2850  0.0246  0.1214
10919W        W26536  10.272  12.880   0.617 -0.1261 -0.0331  0.0363
10920W        W26537  17.151  15.677  14.050 -0.0346  0.1309 -0.0839
10921W        W26538   6.197  11.696   5.499 -0.0978 -0.0246  0.1051
10922W        W26539  10.308  15.631  14.627 -0.2195  0.1576  0.2293
10923W        W26540   3.906   9.428   2.055 -0.3697  0.0781 -0.0722
10924W        W26541   4.229  13.610  14.009 -0.0355  0.2260 -0.0972
10925W        W26542   8.494  14.172   4.787 -0.1217  0.0234  0.4769
10926W        W26543   8.108   6.770   4.397 -0.1379  0.0023 -0.2084
10927W        W26544   0.630  17.377  11.274 -0.2210  0.0263  0.1953
10928W        W26545  15.792  14.980  14.490 -0.0391 -0.0728  0.0394
10929W        W26546  13.872  12.362   5.106 -0.0640 -0.0803  0.0129
10930W        W26547  11.586  16.266  12.038  0.0904  0.2190  0.1943
10931W        W26548  16.959   6.520   2.177 -0.1054  0.1169 -0.1819
10932W        W26549   7.588  13.086  12.872  0.2349  0.3522  0.1427
10933W        W26550   3.294   4.327  15.103  0.2108  0.2241  0.1307
10934W        W26551   7.463   2.672  11.243 -0.1272  0.0714 -0.2729
10935W        W26552  19.046  10.385   2.420 -0.1588 -0.1936 -0.1572
10936W        W26553   2.925  11.735  13.759  0.0005 -0.1896 -0.0207
10937W        W26554   3.089   6.550   3.802 -0.0387 -0.0912 -0.0760
10938W        W26555  15.424   1.329   2.101 -0.1520 -0.3829 -0.1483
10939W        W26556   6.712  16.529   4.539 -0.0744  0.0105  0.2196
10940W        W26557   1.435   0.501   0.854  0.3809 -0.0472 -0.1975
10941W        W26558   0.538  11.920  15.145  0.2653  0.2514 -0.0400
10942W        W26559  12.270   2.617  12.540 -0.0320  0.0356 -0.0292
10943W        W26560  15.012  18.997  12.128 -0.2064  0.0884  0.1831
10944W        W26561   4.719   5.074  13.395  0.2479 -0.1258  0.1079
10945W        W26562  12.581  17.457   1.388 -0.0167  0.3104  0.3404
10946W        W26563  12.873  18.100   2.370 -0.0013 -0.1837 -0.2111
10947W        W26564   2.974   8.275  11.416  0.0803 -0.4307 -0.3127
10948W        W26565  18.644   2.194  15.088  0.0282 -0.0677  0.5879
10949W        W26566   8.847   7.019   2.707  0.2535  0.0921  0.1830
10950W        W26567   8.398   5.622   2.972 -0.2743 -0.3343  0.0001
10951W        W26568   4.015   5.657  12.088 -0.2438 -0.0888 -0.2228
10952W        W26569  13.485  13.052  14.426 -0.2914  0.0051 -0.2777
10953W        W26570   1.436   4.923   2.306 -0.4525  0.0986 -0.1224
10954W        W26571  19.044   1.669  13.394  0.1168 -0.1434 -0.2627
10955W        W26572  16.910   3.443  13.398 -0.2130  0.1994  0.2287
10956W        W26573   6.564   1.026   4.299 -0.2113  0.3237 -0.2203
10957W        W26574   0.890  15.924   4.617 -0.1705  0.0422 -0.4161
10958W        W26575   3.742  11.997   1.459 -0.0830  0.0946  0.1540
10959W        W26576  13.873  15.398   4.586  0.1371 -0.2252  0.1286
10960W        W26577   8.165   3.382   4.860  0.0234 -0.4178 -0.1401
10961W        W26578   4.996   4.100  11.857  0.2278  0.2556  0.1951
10962W        W26579   0.021   7.800  13.466 -0.1484 -0.3615 -0.0441
10963W        W26580   8.536   8.788  11.724 -0.0174  0.0160  0.1964
10964W        W26581   1.209  18.313   8.998 -0.0558  0.0812 -0.0623
10965W        W26582  15.866  12.891  11.427 -0.0041 -0.0681 -0.1167
10966W        W26583   4.926  17.819  13.896 -0.0506 -0.2203 -0.1819
10967W        W26584   9.730  14.838   2.988  0.0211 -0.0462 -0.2526
10968W        W26585  10.947  11.685   5.016 -0.0178  0.1910  0.1399
10969W        W26586   9.489  10.373  12.429 -0.1134  0.4079  0.5608
10970W        W26587   6.782   9.050   1.214 -0.0034  0.0274 -0.2108
10971W        W26588  11.226   2.486  12.806 -0.2097  0.1969  0.1424
10972W        W26589   2.136   1.807  14.834  0.1689  0.1736 -0.1859
10973W        W26590  11.239  12.435   4.443  0.3075  0.0410 -0.0499
10974W        W26591   5.865  11.790   5.860  0.3359  0.0107  0.0763
10975W        W26592   3.157  13.667   2.129 -0.2227 -0.2036  0.1258
10976W        W26593   0.311  11.040   2.754  0.1017 -0.1984  0.1684
10977W        W26594   7.927  18.150   1.633  0.3649 -0.2326 -0.1181
10978W        W26595   2.182   8.456   2.772 -0.2585  0.4210 -0.1063
10979W        W26596  10.166   6.903  12.569 -0.0292  0.0236 -0.3011
10980W        W26597   7.969  12.596  11.950  0.3084 -0.0834  0.2833
10981W        W26598  18.516  11.415   2.909  0.2814 -0.4348  0.4659
10982W        W26599  17.419   1.891  15.182 -0.1395  0.0626  0.1572
10983W        W26600   7.501   4.668  15.134 -0.3418  0.1183  0.1895
10984W        W26601  11.267   7.095   5.251  0.3471  0.0979 -0.0696
10985W        W26602   7.890  12.705   0.747  0.1820 -0.0390  0.2500
10986W        W26603   0.087  10.941  11.802 -0.2041  0.2220  0.3245
10987W        W26604  17.363  15.582  11.723 -0.0526  0.1212  0.4351
10988W        W26605  14.765   3.038   2.853 -0.0158  0.2219 -0.2290
10989W        W26606  15.489   1.180   4.176  0.1777 -0.0436  0.2682
10990W        W26607  10.311  15.492   4.281  0.3876 -0.0587  0.1328
10991W        W26608   9.391   3.626  10.351 -0.0370  0.1432  0.0682
10992W        W26609   3.671  10.335  14.270 -0.2584 -0.3152  0.1632
10993W        W26610  14.810  13.558   0.894 -0.0053  0.2470  0.1470
10994W        W26611  15.719  12.523   5.181  0.0073 -0.0497  0.2814
10995W        W26612   0.527   7.429   4.200  0.2714  0.0806  0.1978
10996W        W26613  17.472   3.683   4.209  0.2677  0.0613 -0.1875
10997W        W26614   0.677   0.046   0.961  0.1352 -0.2737 -0.0574
10998W        W26615  11.995   9.479   2.374  0.1154 -0.1604 -0.1916
10999W        W26616  16.833   8.419   4.624 -0.0416 -0.0684  0.0064
11000W        W26617   7.812   4.109  10.872  0.0433 -0.1891  0.2358
11001W        W26618  18.741  18.302   2.666  0.0227 -0.3293  0.0188
11002W        W26619   5.847  11.139   2.187 -0.2214 -0.2767 -0.4529
11003W        W26620   7.141   8.435  12.841 -0.2953  0.2757 -0.0275
11004W        W26621   7.502   9.201  12.266 -0.1984 -0.1125 -0.1377
11005W        W26622   4.822  13.907  11.545  0.1494 -0.2092 -0.0462
11006W        W26623   7.039   0.599   2.364  0.0619 -0.0011  0.3579
11007W        W26624   6.888  15.809  13.005 -0.1178 -0.2937  0.0020
11008W        W26625   1.851  17.369  11.192 -0.0609 -0.1437  0.2396
11009W        W26626   6.253   1.696   1.155 -0.4223 -0.0377 -0.2734
11010W        W26627   0.683  15.726  13.667  0.1615 -0.1073  0.3758
11011W        W26628   9.184  13.959  11.591  0.0351 -0.0567  0.0777
11012W        W26629  14.056  10.184  11.804 -0.1234  0.0440 -0.3767
11013W        W26630  10.825  10.899  14.939  0.2027  0.0509  0.0047
11014W        W26631  11.697  18.713  11.704  0.1063  0.0240 -0.0248
11015W        W26632   8.696   7.935   5.476 -0.2031  0.0768 -0.1277
11016W        W26633   1.149   1.312   1.833 -0.3732  0.5710  0.2337
11017W        W26634   5.077   9.283   1.926 -0.0978  0.2292  0.1617
11018W        W26635   5.173  13.675  14.464 -0.3633  0.4957 -0.0829
11019W        W26636  16.707   1.124   3.201 -0.1018 -0.4182  0.2376
11020W        W26637  16.966  18.504  11.043  0.0658 -0.2966 -0.0185
11021W        W26638  18.701   2.935  11.637 -0.1186  0.2112 -0.2434
11022W        W26639   3.950   5.418  13.620 -0.3891  0.1104  0.2790
11023W        W26640   4.828   8.599  12.623 -0.2834  0.1109 -0.0533
11024W        W26641  15.516   5.636   1.085 -0.1344 -0.0037 -0.0413
11025W        W26642   3.069   3.155  12.559  0.2605  0.2314  0.0211
11026W        W26643  13.079  10.727   3.846 -0.3014 -0.3160  0.1440
11027W        W26644   3.791   5.540   3.336 -0.1308  0.0406  0.0160
11028W        W26645   2.022  13.494  12.614 -0.0834 -0.1473 -0.0429
11029W        W26646   7.268   5.653   5.210 -0.2507  0.5091  0.0730
11030W        W26647   9.584   2.480   3.027 -0.2315  0.1629 -0.2874
11031W        W26648   1.189   1.507   0.866 -0.1288 -0.0536  0.1804
11032W        W26649  14.115  18.142   4.168  0.0945 -0.1139 -0.0262
11033W        W26650   2.984  15.577  10.765 -0.0123  0.1337 -0.1955
11034W        W26651  15.187  11.783   3.334 -0.3381  0.1355  0.0973
11035W        W26652   7.309   4.282  11.185 -0.0746  0.0410 -0.0092
11036W        W26653   7.841   9.740   0.548 -0.2414 -0.0772  0.2899
11037W        W26654   4.536   6.114  13.914  0.1389 -0.0102  0.1815
11038W        W26655   4.854   0.519  14.979  0.1944 -0.0123  0.1110
11039W        W26656  13.348   0.849  11.779 -0.2415  0.0013  0.1067
11040W        W26657  17.059   4.396  13.708 -0.2367 -0.1250 -0.2849
11041W        W26658  14.187   1.120   1.011  0.1288 -0.1970 -0.0492
11042W        W26659  13.960   0.002  14.168 -0.2124  0.0325 -0.0286
11043W        W26660  17.004  14.197  11.040  0.0205  0.0297  0.1200
11044W        W26661   6.259  16.377  11.017  0.0322  0.3820 -0.0230
11045W        W26662   3.461  15.427   4.658  0.0888  0.2154  0.3649
11046W        W26663  10.500   4.281  13.555  0.2462 -0.1589 -0.0504
11047W        W26664   7.869  14.378  12.490  0.1924 -0.1236 -0.1154
11048W        W26665  18.665  15.894   0.179  0.2307  0.1579  0.0886
11049W        W26666  16.317   6.407  12.082 -0.1205  0.0430  0.1584
11050W        W26667  14.626  18.099  14.193  0.0716 -0.0198  0.4282
11051W        W26668   3.851   1.221   0.128  0.1949  0.2166 -0.1175
11052W        W26669  12.371   8.828   0.704 -0.1343 -0.0148 -0.0768
11053W        W26670   8.980  12.409   3.126 -0.2414 -0.1242  0.0003
11054W        W26671  19.077   2.399   0.345 -0.0137 -0.3749 -0.1377
11055W        W26672   7.762   5.106   5.706 -0.2346 -0.3404  0.0783
11056W        W26673  11.494   1.455   1.532  0.1502 -0.1432  0.0448
11057W        W26674  12.398   4.292   3.862  0.1153 -0.2067 -0.0349
11058W        W26675   2.744  10.029  12.075  0.0236 -0.1895 -0.0313
11059W        W26676  18.982   8.915   1.647 -0.0684  0.1677  0.0691
11060W        W26677   3.944  18.794   6.168  0.1458 -0.2042 -0.2518
11061W        W26678   4.597  18.365   3.624 -0.1199  0.0579 -0.5465
11062W        W26679  18.291   3.727  10.674 -0.2241  0.0776 -0.2128
11063W        W26680   3.960  17.153   0.817 -0.0122  0.4725 -0.1555
11064W        W26681   8.567   0.389  13.987  0.3595 -0.0867 -0.0693
11065W        W26682  16.529  16.365  12.533 -0.0346 -0.1254 -0.0934
11066W        W26683   0.961  11.184  12.240  0.1994  0.0930  0.1075
11067W        W26684   0.540   7.569  13.405 -0.1890  0.0105  0.0166
11068W        W26685  17.555  18.581  10.864  0.0030 -0.0725 -0.0124
11069W        W26686  18.210  17.041   5.288  0.0458 -0.0513 -0.1194
11070W        W26687   6.139   0.856   1.911 -0.1304 -0.1325 -0.1226
11071W        W26688   3.888   3.526  14.938 -0.0173  0.2264  0.1337
11072W        W26689  16.068   1.402  12.254  0.1123 -0.1626  0.0491
11073W        W26690   6.177  13.033  11.293 -0.1407  0.2041 -0.2101
11074W        W26691   7.463   0.705   5.375 -0.1959 -0.0634  0.2042
11075W        W26692   0.040   9.813  13.106  0.3897  0.1155 -0.0690
11076W        W26693   2.660  16.989   9.719 -0.1065  0.4673 -0.3043
11077W        W26694   9.816  14.209  11.531 -0.1131  0.0542  0.2166
11078W        W26695   5.079   7.706  13.184  0.0467 -0.1924 -0.0425
11079W        W26696  11.857   3.296  11.372 -0.1906 -0.1222  0.0793
11080W        W26697  14.088   8.462  14.928  0.1547  0.2067  0.0862
11081W        W26698  12.922   0.569  10.964 -0.0784 -0.2214 -0.4189
11082W        W26699   4.004  10.058   2.650 -0.1583  0.1378 -0.0459
11083W        W26700  15.888  16.852   0.867  0.0550  0.2147  0.0133
11084W        W26701  14.722  18.420   2.025  0.1316 -0.1249 -0.0465
11085W        W26702  14.404   7.211   2.490 -0.0664 -0.0482 -0.0521
11086W        W26703  15.600  16.096  12.360 -0.0625 -0.0394  0.1507
11087W        W26704   9.942  17.172  13.331 -0.3196 -0.0935 -0.1731
11088W        W26705   4.560   0.555   2.078 -0.2871 -0.1477 -0.2122
11089W        W26706  15.629   0.071  14.189 -0.0442 -0.1889 -0.0119
11090W        W26707  18.218  12.038  12.356 -0.2524  0.2142  0.2983
11091W        W26708   0.438  16.345  14.096 -0.2441 -0.1011 -0.1248
11092W        W26709  18.038   1.266   1.537  0.1899 -0.1841  0.0312
11093W        W26710  14.036   1.584  12.916 -0.1215 -0.1075  0.0721
11094W        W26711  13.458   6.309   4.235  0.0970  0.3623 -0.1508
11095W        W26712   9.807   6.643   2.921 -0.2466 -0.0298 -0.1040
11096W        W26713   6.292   8.583   3.529  0.0840  0.1581  0.2472
11097W        W26714   9.838   6.321   3.765 -0.0380 -0.2373  0.2264
11098W        W26715   1.069   3.370  14.619 -0.2104 -0.2833 -0.2937
11099W        W26716   4.668  10.908  11.073 -0.0522 -0.1436 -0.1521
11100W        W26717  18.532   0.392   1.824 -0.3248 -0.0640 -0.0093
11101W        W26718  16.137   8.961   0.805  0.2337 -0.3303 -0.1439
11102W        W26719   0.338   4.608   4.062  0.1172 -0.1819  0.1090
11103W        W26720   6.598   0.600  14.998  0.0890 -0.2474  0.0437
11104W        W26721  14.666   4.712   0.974  0.1538 -0.0371 -0.0862
11105W        W26722  16.214   5.947   3.342  0.0122  0.2779 -0.4655
11106W        W26723   2.212  10.669  14.075 -0.3222  0.3692  0.3166
11107W        W26724  10.133  10.955   2.466  0.0905  0.2160  0.2911
11108W        W26725   1.017   2.697   3.478 -0.0706 -0.1778 -0.0238
11109W        W26726   7.469  18.487  11.188 -0.3675 -0.0795  0.4483
11110W        W26727   2.017  10.646  14.732 -0.0544  0.2154  0.3147
11111W        W26728  11.489   4.952   4.282 -0.2607  0.0473  0.0412
11112W        W26729  13.052  16.806  15.109  0.0127 -0.0122 -0.0737
11113W        W26730   4.009   8.084   3.886 -0.0045  0.0097 -0.1761
11114W        W26731  10.160   5.144  10.672 -0.4004 -0.2455  0.1064
11115W        W26732   2.348  15.867  12.140  0.0358  0.1216 -0.1676
11116W        W26733   7.011   9.143  11.134 -0.1663 -0.1844 -0.4112
11117W        W26734  14.405  15.994  14.855  0.0278  0.2584 -0.0990
11118W        W26735  12.777  14.901   1.765 -0.0148  0.2392  0.0475
11119W        W26736  16.708  15.022  14.521 -0.1418 -0.4760 -0.0819
11120W        W26737  14.394  13.609  13.945 -0.0793  0.0857  0.1504
11121W        W26738  17.185   4.889  13.754 -0.4907 -0.2217 -0.2848
11122W        W26739  13.410  15.454  15.157 -0.0122 -0.2250 -0.2347
11123W        W26740   7.738   3.305   5.825 -0.1609  0.1915  0.4477
11124W        W26741  18.478   8.757  14.714 -0.1640 -0.0704 -0.6118
11125W        W26742   4.408  18.201   1.932 -0.2406  0.4436  0.4824
11126W        W26743  15.276   3.854  15.007  0.1810 -0.2919 -0.0437
11127W        W26744   0.935  18.499  13.808  0.0362 -0.0209  0.0862
11128W        W26745  11.587  10.120   1.424 -0.0099 -0.1054 -0.1478
11129W        W26746  18.457  16.816  13.118  0.3448  0.0093  0.3169
11130W        W26747   2.616   9.334  14.383  0.0403 -0.1570  0.2612
11131W        W26748   6.162  11.276   4.441  0.0261 -0.4042  0.0205
11132W        W26749   0.353  18.632  14.982 -0.1157 -0.0878 -0.1289
11133W        W26750   8.536   9.441   2.575 -0.1972  0.1857 -0.1651
11134W        W26751  14.321  14.921  10.993  0.4054  0.2925 -0.1540
11135W        W26752  14.676  17.967   4.778  0.0253 -0.0579  0.0009
11136W        W26753   9.444   2.867  10.589  0.0484 -0.2175  0.0168
11137W        W26754   6.426   1.294  13.218  0.5097  0.1205 -0.2347
11138W        W26755   0.155   1.109   3.688 -0.3828 -0.0039 -0.2612
11139W        W26756  16.220  13.050   1.374  0.2506  0.0564  0.4038
11140W        W26757   5.822   9.623   9.415  0.0920  0.2725  0.0299
11141W        W26758   9.924   6.030  14.821 -0.1178  0.0851 -0.1707
11142W        W26759   7.958   1.807  11.634 -0.0099 -0.0189  0.0440
11143W        W26760  16.578  14.760  11.559  0.0444 -0.4167  0.0478
11144W        W26761  16.928  18.321   0.877 -0.0412 -0.1560 -0.1863
11145W        W26762  10.630   9.585   0.633 -0.5769 -0.2343  0.0081
11146W        W26763   4.199   8.749   2.719 -0.2472 -0.1367  0.2293
11147W        W26764   5.404  12.105   3.069 -0.1432 -0.0468 -0.2753
11148W        W26765  10.274  17.849   0.225 -0.2084 -0.1304  0.1333
11149W        W26766   3.579   6.987   1.734 -0.4099  0.0938  0.0982
11150W        W26767  13.909  16.479   5.743  0.0669 -0.2620 -0.3809
11151W        W26768  13.849  11.415   3.988  0.0010  0.1663 -0.2868
11152W        W26769  14.827  12.264  10.617 -0.2644 -0.0579  0.1357
11153W        W26770   7.552  13.313   1.354 -0.1425 -0.2594 -0.2706
11154W        W26771  13.805   3.469  11.500 -0.1998  0.1312 -0.4515
11155W        W26772   2.801   0.476   1.521  0.1172  0.0198 -0.0454
11156W        W26773  16.576  18.452  12.971 -0.2638  0.0624  0.2820
11157W        W26774   8.213  16.926   0.013 -0.5436  0.0511  0.2276
11158W        W26775  17.450  17.910   0.724 -0.3316  0.1215 -0.1862
11159W        W26776  15.102   7.258   3.309  0.4172 -0.0714  0.0524
11160W        W26777  17.834   6.662  11.484 -0.0109  0.0228 -0.1089
11161W        W26778  15.871  10.304  10.449 -0.2433  0.3122  0.1872
11162W        W26779  11.131   3.562   0.855  0.4076  0.0023 -0.0647
11163W        W26780   7.121   7.529   2.871  0.2745 -0.0686  0.1758
11164W        W26781   9.574  10.025   0.881 -0.1954 -0.0487 -0.0206
11165W        W26782   5.090  16.636   2.672 -0.1307 -0.1249 -0.0486
11166W        W26783   5.012  16.641  13.266 -0.0270  0.4297 -0.1707
11167W        W26784  18.520   6.663  14.076 -0.1826 -0.2264 -0.0665
11168W        W26785  12.536   3.449   1.330 -0.1262 -0.1780 -0.0045
11169W        W26786  18.703   0.643   2.691 -0.1235 -0.2699  0.1647
11170W        W26787   8.578  15.197   4.202 -0.1405 -0.0531  0.1221
11171W        W26788   2.321   5.841  11.489  0.1754 -0.1657 -0.3284
11172W        W26789  11.986   1.383  10.658 -0.0601  0.4568  0.1190
11173W        W26790   5.942  14.339  13.419  0.1991 -0.0505 -0.2304
11174W        W26791  17.929   7.441  13.058  0.1323 -0.1837 -0.0187
11175W        W26792   1.234   9.122  11.985  0.0096  0.0252  0.1150
11176W        W26793  16.128  12.670  15.003 -0.0665  0.0596 -0.0292
11177W        W26794   4.371  15.697   0.942 -0.2016 -0.1233 -0.2155
11178W        W26795   5.176  13.403  13.974  0.1009 -0.2653  0.0140
11179W        W26796  13.675   7.678   0.887 -0.0592  0.2417 -0.0650
11180W        W26797   8.281  12.835   0.388  0.0457  0.0049  0.1418
11181W        W26798  19.002  14.369  12.762 -0.2806  0.0158  0.0678
11182W        W26799   1.100   0.352   3.087  0.1377 -0.0506  0.3226
11183W        W26800   3.177   2.840   1.087  0.0436  0.3445 -0.1808
11184W        W26801  17.196  11.262  12.886 -0.1621  0.2605  0.2006
11185W        W26802  18.089  17.480   3.521 -0.1160  0.0199  0.2159
11186W        W26803  17.673  18.505   2.470  0.0028  0.0971  0.1448
11187W        W26804  17.471  14.169  10.216  0.1152 -0.0653  0.1145
11188W        W26805   6.607  10.827  14.657  0.0932  0.0202  0.2416
11189W        W26806   8.325   3.210   3.539  0.0000 -0.3388  0.2244
11190W        W26807  13.052  10.595   1.101 -0.1305  0.0072 -0.0652
11191W        W26808  15.482  11.227   2.697 -0.3498  0.1391 -0.0562
11192W        W26809   5.528   3.374  12.013  0.0270  0.0705  0.0918
11193W        W26810   9.622   9.014  14.641 -0.0327  0.0396  0.1076
11194W        W26811   5.887   1.176  12.205  0.0047  0.1712  0.1552
11195W        W26812   2.043   5.083   5.499 -0.0057  0.0957 -0.2681
11196W        W26813  12.651  13.424   1.540  0.0893  0.0025 -0.0447
11197W        W26814   8.832  16.155  13.054 -0.2044 -0.0087 -0.0125
11198W        W26815   1.666   3.035  10.634 -0.0581 -0.1449 -0.0492
11199W        W26816   9.748   3.389   0.883  0.1269  0.4387  0.3258
11200W        W26817   5.705   4.738   0.522  0.1814 -0.1353 -0.0913
11201W        W26818  10.363   9.675  13.508  0.0120  0.0799 -0.0204
11202W        W26819   0.605   7.270   5.515 -0.1712 -0.0370 -0.0951
11203W        W26820   6.613  13.260   0.029 -0.1100 -0.2315 -0.1395
11204W        W26821   7.098   5.072   0.397  0.2620  0.0323 -0.0702
11205W        W26822  11.727   6.011   0.682  0.1206 -0.0647 -0.0535
11206W        W26823   3.647  16.089   5.565 -0.0902  0.0819  0.2796
11207W        W26824   5.155   7.517  13.775  0.1298  0.2210  0.1368
11208W        W26825   0.019   1.718  11.693  0.0623 -0.0325  0.2048
11209W        W26826  10.352   6.506  13.523  0.0337  0.2330 -0.1325
11210W        W26827  14.892   1.106   1.981  0.0560 -0.2102  0.3787
11211W        W26828   4.879  17.328   1.140 -0.5026  0.2711 -0.3209
11212W        W26829   7.980  15.092   1.119  0.2666 -0.3225  0.1144
11213W        W26830  13.312  18.389  14.462  0.0196 -0.0984  0.1817
11214W        W26831  11.562  10.838   1.763  0.0707  0.1863 -0.0620
11215W        W26832  10.102   1.794   1.068 -0.3293 -0.2310  0.0011
11216W        W26833   4.094   1.186   1.014  0.1750  0.0007  0.0953
11217W        W26834  14.348   4.348  13.740  0.1862  0.0977  0.1624
11218W        W26835   8.132   2.400   3.339 -0.1043 -0.1307 -0.1070
11219W        W26836  12.100   4.364  12.792 -0.1341  0.1478 -0.1654
11220W        W26837   3.383   1.091   0.010  0.0725  0.0241  0.2873
11221W        W26838   0.028  11.934  10.810  0.1074  0.0646  0.0813
11222W        W26839  15.485   2.889   0.807  0.1974 -0.0020 -0.1294
11223W        W26840   7.275   7.090   5.005 -0.0817  0.1667 -0.0898
11224W        W26841   0.037   3.386  12.420 -0.1106  0.0232  0.1294
11225W        W26842  16.231   7.307   2.319  0.2066 -0.2644  0.0697
11226W        W26843   7.733  10.091  12.741  0.1343  0.1483  0.1230
11227W        W26844   1.539  13.852   4.477  0.0942 -0.1125 -0.1384
11228W        W26845   8.892  12.600  14.830  0.2804  0.3475 -0.0800
11229W        W26846  11.451   2.584  13.463 -0.0857  0.0653  0.0022
11230W        W26847  12.363   4.832  14.267  0.0536 -0.3675  0.1372
11231W        W26848   9.552   4.211  14.415  0.1336  0.0753  0.0093
11232W        W26849   0.335  18.980   3.038 -0.1480  0.1991 -0.2152
11233W        W26850  15.612  13.848   2.860 -0.1279 -0.4323  0.0215
11234W        W26851  17.476   6.019  14.999  0.1687 -0.1216 -0.1491
11235W        W26852   8.137  14.722   2.938  0.0517 -0.1410  0.2982
11236W        W26853  16.318  18.298   1.249 -0.0061  0.1332 -0.1287
11237W        W26854  14.211  18.781  12.910 -0.0444  0.0817 -0.1656
11238W        W26855  14.210   3.063   5.597 -0.2781  0.1643 -0.4100
11239W        W26856   0.162   6.299  10.742 -0.0121  0.0841  0.3297
11240W        W26857  11.021   0.699  13.044 -0.2214  0.2853  0.0331
11241W        W26858  13.944  14.976  11.852  0.0340  0.2129 -0.2291
11242W        W26859   2.316   6.889   5.273  0.2563 -0.0201 -0.0679
11243W        W26860  14.288  15.862  10.882 -0.2275 -0.0696  0.2007
11244W        W26861   9.083   0.421   1.208 -0.1372 -0.0382 -0.1067
11245W        W26862   5.798   7.506  13.865  0.2057 -0.2506  0.0853
11246W        W26863   5.073  14.343  11.452  0.0474  0.1284  0.1964
11247W        W26864   1.542  15.627   0.250  0.1025 -0.1074  0.2764
11248W        W26865  15.274  13.276  11.907 -0.3555 -0.1109 -0.1103
11249W        W26866   4.528   2.696  12.914 -0.2029  0.2471  0.1408
11250W        W26867   6.982   8.539  11.938 -0.1025 -0.0304 -0.0104
11251W        W26868  15.077  10.779  15.169  0.4758  0.2420 -0.2738
11252W        W26869   3.217   2.559  13.378 -0.3299  0.2209 -0.0499
11253W        W26870   9.525  11.235   0.338  0.1092 -0.2280  0.1265
11254W        W26871   7.592  13.115  11.629  0.3381 -0.4408 -0.1064
11255W        W26872   3.728   1.821  13.795  0.1317  0.0168  0.0392
11256W        W26873   9.692   4.346  15.140 -0.0517 -0.0503  0.0852
11257W        W26874  16.259  16.455   5.484  0.0361 -0.0961  0.0146
11258W        W26875  15.784  12.426   0.033 -0.0054  0.1564 -0.0530
11259W        W26876  10.042  16.466   5.359  0.0471 -0.2844 -0.0538
11260W        W26877  14.457   2.392  13.583  0.0960 -0.1671 -0.0312
11261W        W26878  16.545  18.335   5.790 -0.1866  0.1209  0.2076
11262W        W26879  11.909  11.754   4.725 -0.0214 -0.1229 -0.0183
11263W        W26880  14.348  10.071  11.379  0.2503  0.0258  0.0296
11264W        W26881  16.245  13.805   4.892 -0.1514 -0.1632  0.1866
11265W        W26882   2.544  15.158   1.372  0.2303  0.1338  0.2090
11266W        W26883   7.544  16.068  13.692  0.3438  0.3494  0.2437
11267W        W26884   6.077  16.234   2.359 -0.0387  0.1010 -0.1226
11268W        W26885   4.316  16.307   0.173  0.3576  0.0218 -0.2765
11269W        W26886   2.180   1.769   4.769 -0.0728  0.2823 -0.1165
11270W        W26887   8.580   8.474   0.696 -0.1198 -0.4201 -0.0985
11271W        W26888   6.147   0.744  11.372 -0.0379  0.1370  0.0563
11272W        W26889  16.509   5.146   3.599  0.0469 -0.1263 -0.0067
11273W        W26890   8.387  15.838  14.632 -0.2640  0.2440 -0.1212
11274W        W26891   6.368   5.304   1.625  0.1279 -0.0788  0.0698
11275W        W26892   0.386   6.831  11.001  0.0262 -0.3198 -0.0069
11276W        W26893  16.186   7.037   1.234  0.1065 -0.0668  0.0057
11277W        W26894  15.646  13.778   0.537 -0.0656 -0.0619  0.1729
11278W        W26895  12.386  11.846  14.097  0.0613  0.2963  0.4051
11279W        W26896   5.155   6.056   3.945  0.0551  0.1886  0.3147
11280W        W26897   8.603  18.373  13.420  0.0836  0.3738 -0.2627
11281W        W26898   2.445   0.847   1.369  0.0073  0.1066  0.2190
11282W        W26899   1.718   3.598   5.975  0.2920 -0.2709 -0.2616
11283W        W26900  13.298   0.878  15.258 -0.4108 -0.2095 -0.0340
11284W        W26901  15.485   0.072  12.721  0.1311  0.0209 -0.0888
11285W        W26902   0.899   6.855   3.370  0.0016 -0.1420 -0.2419
11286W        W26903   1.019   0.236   1.657  0.0747  0.0513 -0.1427
11287W        W26904   4.003  11.720   4.926  0.2808 -0.1387  0.1949
11288W        W26905   7.762  16.107   3.649  0.1219  0.1168 -0.1901
11289W        W26906  13.996  17.149  10.498  0.2308 -0.0759 -0.2049
11290W        W26907  12.487  14.234   1.153 -0.0366  0.0590 -0.0760
11291W        W26908   4.814  11.889  14.074  0.0315 -0.1592 -0.1231
11292W        W26909   6.674   8.264  14.375 -0.3105  0.0193 -0.0918
11293W        W26910  11.766  17.433  12.571 -0.0561 -0.1601  0.0503
11294W        W26911  13.806   5.030   2.522  0.1295 -0.2052  0.2074
11295W        W26912  11.928   7.823  11.545 -0.5720 -0.4790  0.4197
11296W        W26913  14.510  12.381  14.588  0.1666 -0.0555 -0.1205
11297W        W26914   9.295   5.934  12.752 -0.2313  0.2112  0.0705
11298W        W26915  13.762   3.135   0.100  0.1523 -0.1602 -0.1225
11299W        W26916   9.441  15.079   2.540  0.1475  0.0563 -0.1050
11300W        W26917   8.691  13.999   0.995 -0.2402 -0.0276  0.0965
11301W        W26918  16.870  14.893   3.000  0.2979 -0.0311  0.0474
11302W        W26919  16.062   1.250  11.138 -0.0212 -0.1442 -0.1816
11303W        W26920  17.408   6.316   0.756 -0.3860  0.0678 -0.2706
11304W        W26921  11.352  10.576  13.078 -0.0388 -0.0942 -0.0247
11305W        W26922  13.133   7.940   3.329  0.1711  0.0186 -0.0300
11306W        W26923   1.658  11.285  14.475  0.0154  0.2817  0.2055
11307W        W26924  14.150  14.159   1.847 -0.1006 -0.1062  0.0426
11308W        W26925   2.470   4.646  13.702 -0.1138  0.0579  0.1696
11309W        W26926   4.687   1.162   0.502  0.0341 -0.1152 -0.1038
11310W        W26927  15.343  12.792  13.609  0.3403 -0.2338  0.1413
11311W        W26928  16.284  16.326  14.970 -0.1312  0.3179  0.1280
11312W        W26929   2.525  17.880   2.166  0.0079  0.1654 -0.1547
11313W        W26930  12.596  10.386   5.196  0.0865 -0.0286  0.1383
11314W        W26931  17.993   5.488  10.959  0.2596  0.1918 -0.1383
11315W        W26932   0.042   4.111   0.389  0.1070  0.1817 -0.2436
11316W        W26933   4.034  16.059  10.482 -0.0816  0.1843  0.1306
11317W        W26934   7.948   8.089  12.638 -0.0029 -0.0623 -0.1272
11318W        W26935  14.782  13.077   2.876 -0.2228 -0.1318 -0.1209
11319W        W26936   6.487  10.782  12.642  0.5147 -0.1783  0.0833
11320W        W26937  14.676  15.891   3.129 -0.2785 -0.4301  0.1466
11321W        W26938   1.206   0.900   1.333  0.2166 -0.1521 -0.2716
11322W        W26939   0.568   7.528   2.892 -0.3973 -0.1958 -0.1066
11323W        W26940   2.156  11.177   1.243  0.1282 -0.2673 -0.2733
11324W        W26941  17.080  18.131   5.844  0.0349 -0.0767 -0.2327
11325W        W26942  10.719   8.265  14.884 -0.1940 -0.2158  0.3053
11326W        W26943  13.609   7.890  12.719 -0.0157 -0.0718 -0.3056
11327W        W26944   0.481   1.774   2.123  0.4957 -0.1943  0.2277
11328W        W26945   2.606  18.087  13.290 -0.0167  0.1430 -0.1759
11329W        W26946  16.902  15.575   2.966 -0.0288 -0.0373  0.2296
11330W        W26947  17.650   2.809  13.174 -0.0465  0.2651 -0.3190
11331W        W26948  18.529  16.212  14.649  0.0436  0.1794  0.1300
11332W        W26949  11.907  17.751   4.638  0.3236  0.1663  0.0551
11333W        W26950  15.178  13.225  12.383  0.1119  0.1864 -0.1091
11334W        W26951  15.546  13.705  13.571 -0.0125  0.1073  0.2320
11335W        W26952  17.009  18.394  14.190  0.2425  0.0330  0.0154
11336W        W26953   7.690   4.543  11.289 -0.1218 -0.1294 -0.1315
11337W        W26954   6.978  11.497   1.454 -0.0330  0.1830 -0.0562
11338W        W26955   6.113   0.960   4.779  0.0106 -0.3302 -0.0418
11339W        W26956   5.977  11.515   3.404 -0.3065 -0.1155  0.1424
11340W        W26957   7.010   5.204   5.037  0.2921  0.0723 -0.2700
11341W        W26958  16.379  13.643  13.272 -0.2295  0.0242  0.0295
11342W        W26959  14.576  14.470   4.615  0.2899 -0.0943  0.0136
11343W        W26960   0.264   1.488   4.751  0.0996  0.3027  0.1822
11344W        W26961   9.826  15.572   1.792 -0.0425 -0.2592 -0.0148
11345W        W26962  18.458   7.165   5.455  0.0059 -0.0634  0.1976
11346W        W26963   5.739   4.853  14.974  0.2348 -0.1203 -0.1588
11347W        W26964   9.055   7.958  13.498 -0.0172 -0.2251  0.0742
11348W        W26965   4.480   8.734   1.680  0.1687 -0.3136 -0.0735
11349W        W26966  11.452  18.230   0.266  0.1497  0.1864 -0.1055
11350W        W26967  15.983   5.800   0.959  0.1141  0.1105  0.0184
11351W        W26968  11.975  14.092   5.255 -0.0801  0.0279 -0.2812
11352W        W26969  17.010   4.987   0.771  0.0078 -0.1565  0.0750
11353W        W26970  15.310   9.352   1.953 -0.1669  0.2124 -0.1939
11354W        W26971   6.510   6.089   2.989  0.1260 -0.0612 -0.0727
11355W        W26972   0.882  11.691   1.392 -0.3117 -0.3341  0.1238
11356W        W26973  17.424  11.330   4.130 -0.0298  0.2760  0.0074
11357W        W26974   6.855  16.276  12.075  0.1085 -0.0967  0.0320
11358W        W26975  18.009   5.623  14.318 -0.0139 -0.1621 -0.1526
11359W        W26976   5.160  12.795   1.930  0.2138 -0.0928  0.3069
11360W        W26977   9.320  14.201   0.001  0.1946 -0.3751  0.0173
11361W        W26978   8.259   5.158  11.428  0.1913 -0.1187 -0.0298
11362W        W26979  15.700  17.542   0.711 -0.2510 -0.0068 -0.0778
11363W        W26980  11.080  12.633   0.741 -0.4313 -0.0246 -0.3602
11364W        W26981   6.331   1.958  12.832  0.0068 -0.2167 -0.2204
11365W        W26982   9.313  12.049   3.942  0.0249 -0.1395  0.3204
11366W        W26983  18.361   2.419  14.100 -0.2189  0.2312 -0.2331
11367W        W26984  18.436  13.654  14.921  0.5248 -0.0674  0.1962
11368W        W26985  16.636   7.173  13.725 -0.0895 -0.0905 -0.0150
11369W        W26986  14.496   5.894  12.000 -0.4242 -0.2092  0.2256
11370W        W26987   2.073  15.819   4.007 -0.0118 -0.2329 -0.1633
11371W        W26988   2.262   9.798  12.669 -0.2658 -0.2286 -0.1367
11372W        W26989   1.658   1.629  13.381  0.0056 -0.3334 -0.0412
11373W        W26990   6.893  14.896  12.275 -0.0549 -0.0066  0.1140
11374W        W26991   0.711   5.771  12.369 -0.1247 -0.0030 -0.1510
11375W        W26992   6.446   3.816  14.927  0.1074  0.1382  0.2700
11376W        W26993   9.182   1.726  14.478 -0.0166  0.1049 -0.0611
11377W        W26994   3.590   2.225   3.957  0.0205  0.0232 -0.0821
11378W        W26995   4.846  12.143   4.802  0.0595 -0.1222 -0.1908
11379W        W26996  18.853   1.706  15.166 -0.0770  0.0798 -0.0470
11380W        W26997   4.471   9.286   2.058 -0.0614 -0.2860  0.2612
11381W        W26998  11.862   1.499  12.361  0.0411 -0.2044  0.0637
11382W        W26999   5.304   8.668   1.238  0.3711 -0.0125 -0.0765
11383W        W27000   7.212   5.376  13.970 -0.0256  0.0116 -0.1232
11384W        W27001  10.131   7.826   0.092 -0.3575 -0.1324 -0.2478
11385W        W27002  14.258   6.263  12.504  0.1477 -0.0488 -0.2793
11386W        W27003  12.286  15.545   3.721  0.1326 -0.1604  0.3323
11387W        W27004   1.773   6.077   5.295  0.2121 -0.0001 -0.0870
11388W        W27005  15.581   7.115  15.168 -0.0256 -0.1349 -0.0647
11389W        W27006  16.555   8.949   3.652 -0.1448  0.0611  0.0873
11390W        W27007   3.391   9.584  10.805 -0.0982 -0.0536 -0.2001
11391W        W27008   5.047  17.511   1.878 -0.2035 -0.0448 -0.1923
11392W        W27009  16.792   9.703   3.129  0.1684  0.2337  0.1013
11393W        W27010  17.487   1.760   2.288 -0.0304 -0.2403  0.0021
11394W        W27011  10.284   2.554   5.839  0.1846 -0.1969 -0.2873
11395W        W27012   7.915  14.050  13.278 -0.2827 -0.0749  0.0346
11396W        W27013   2.058   9.550  10.344  0.2931  0.0231 -0.0008
11397W        W27014   3.195   4.678   0.412  0.0061  0.0570  0.3136
11398W        W27015  17.149   1.181  10.825  0.0243  0.3805  0.1451
11399W        W27016   5.176  18.984   5.542  0.1255  0.0850 -0.4180
11400W        W27017   5.872  13.856  13.469 -0.0002  0.1196  0.1253
11401W        W27018   7.288   7.271   0.244 -0.0012  0.6108 -0.2888
11402W        W27019   3.264   5.496  13.739  0.0248  0.1674 -0.4018
11403W        W27020   1.979  13.700  15.274 -0.0534 -0.1823  0.1603
11404W        W27021   1.491  17.103  10.390  0.1524 -0.2208  0.0877
11405W        W27022   4.923   3.523   0.610 -0.4963  0.0565 -0.2066
11406W        W27023  17.033  18.515  10.576 -0.0304 -0.1081 -0.0437
11407W        W27024   3.441   7.103   0.024  0.0305 -0.0924 -0.3600
11408W        W27025   9.200   8.427  12.680  0.1422 -0.1571 -0.2594
11409W        W27026   4.804  17.061  11.595  0.2161  0.0774 -0.0009
11410W        W27027  13.986   4.075  13.493 -0.0024  0.4504  0.3414
11411W        W27028   9.179   7.678  12.334  0.0849 -0.0559  0.1392
11412W        W27029  14.486  13.711  12.890 -0.1870 -0.0839  0.0998
11413W        W27030  14.185   9.891   3.011 -0.4358  0.1003  0.1232
11414W        W27031   4.034   4.105   3.177 -0.1282  0.1317  0.0253
11415W        W27032   0.098   5.799  13.200  0.0202  0.2719  0.2560
11416W        W27033   9.852  14.479  12.017  0.1548 -0.0932 -0.2092
11417W        W27034   1.327   7.177  12.192 -0.2118 -0.0984 -0.1488
11418W        W27035  12.318  10.187   4.847  0.4186 -0.0451  0.0318
11419W        W27036   3.154   2.986  10.911  0.1970  0.5464 -0.0161
11420W        W27037   5.812  17.107   2.207 -0.0833  0.3275 -0.1650
11421W        W27038   6.182   7.451  10.856 -0.0719  0.0102  0.1862
11422W        W27039  18.822  16.545   9.960  0.3284  0.2469 -0.1637
11423W        W27040   5.669   8.878  10.715  0.0031 -0.0278 -0.1355
11424W        W27041   3.972   2.050  12.313 -0.2739  0.2424 -0.0821
11425W        W27042   6.961  11.026   0.765 -0.2325 -0.1681 -0.0484
11426W        W27043   4.904   4.435   1.395 -0.0021 -0.1075  0.2508
11427W        W27044  10.843   4.329   3.530  0.0521  0.0139 -0.0408
11428W        W27045  17.928   3.196   2.422 -0.0759  0.1270  0.2144
11429W        W27046  18.869   9.833  12.120  0.0112  0.3124  0.3779
11430W        W27047  14.096   8.547  13.370 -0.0295  0.1633 -0.2230
11431W        W27048  15.737   7.678  12.407 -0.1682  0.0949 -0.0535
11432W        W27049   0.388   1.189  14.353 -0.2822 -0.0715  0.2152
11433W        W27050   0.343   4.837   4.501  0.1199 -0.1380 -0.0288
11434W        W27051   8.508   0.987  14.842 -0.1954  0.1681  0.1902
11435W        W27052   0.906  10.640  12.519 -0.2955  0.0685 -0.0202
11436W        W27053   4.345  14.682   3.122  0.0099 -0.2184 -0.1167
11437W        W27054   4.389   1.425   3.180  0.3164 -0.1365  0.1486
11438W        W27055   0.973  10.676  13.521 -0.1428 -0.2086 -0.0648
11439W        W27056   5.208   9.215   5.026  0.3038  0.2633 -0.1614
11440W        W27057   0.499  11.877  12.656 -0.1171  0.3346 -0.0256
11441W        W27058  14.454  14.064  11.746  0.0044  0.0728  0.0124
11442W        W27059  16.847  18.833  12.921 -0.3332 -0.1470  0.2337
11443W        W27060  10.864   8.837   4.351 -0.2328 -0.3258 -0.0278
11444W        W27061   7.779  13.538   2.009 -0.1483  0.0893  0.1448
11445W        W27062  14.510  13.160  14.145 -0.0149 -0.0763 -0.1559
11446W        W27063  16.117   3.680  12.464 -0.3268 -0.0741  0.0753
11447W        W27064  17.987  18.317  10.672  0.0453  0.1144  0.0506
11448W        W27065   5.878   8.977   0.574  0.3153  0.1657  0.3638
11449W        W27066  12.999   6.779   2.301 -0.1085 -0.0868 -0.1571
11450W        W27067   3.893   1.107   5.673 -0.3559 -0.0564  0.1344
11451W        W27068   5.202   9.844   0.660 -0.4453  0.1132  0.0029
11452W        W27069   1.919  10.778   1.505  0.0222  0.0145 -0.0505
11453W        W27070   2.690   1.096   3.582 -0.2112  0.1425 -0.1299
11454W        W27071  10.761  11.616  13.415  0.0629 -0.1268 -0.2725
11455W        W27072  11.635  15.914   1.643 -0.3428  0.0064 -0.0158
11456W        W27073   3.448   5.269  10.538 -0.2607  0.1716  0.5372
11457W        W27074   7.994   1.795  15.051 -0.1376 -0.1413 -0.5429
11458W        W27075   3.174   5.770  12.275  0.1307 -0.0391 -0.2367
11459W        W27076  14.792   2.191   4.395 -0.3288  0.1048  0.2054
11460W        W27077   8.940   9.612   4.591  0.2654  0.0302 -0.0564
11461W        W27078   7.654   6.990   3.861  0.0575  0.0794 -0.2565
11462W        W27079   0.451   9.965   4.436  0.1223 -0.0682 -0.0598
11463W        W27080  12.929  12.273   0.147 -0.3679  0.3798 -0.1391
11464W        W27081   2.384   8.738  10.647  0.2634  0.2006 -0.0443
11465W        W27082   0.427  12.837   3.480  0.1066  0.2954  0.3227
11466W        W27083  14.461   9.332  14.219  0.0303 -0.3308  0.2217
11467W        W27084  10.930   0.179  13.670  0.3618 -0.1824 -0.0975
11468W        W27085   9.844  10.855  13.356  0.0547 -0.0723  0.0905
11469W        W27086   9.128  12.456  12.731 -0.0017 -0.1041 -0.2004
11470W        W27087   4.413   9.716  13.785  0.1627 -0.1212 -0.0067
11471W        W27088  18.264   5.015   1.221 -0.2364 -0.1288  0.0867
11472W        W27089   7.640   4.084   2.900 -0.4223  0.1625  0.3417
11473W        W27090  19.001  11.073  12.243  0.1001  0.2048 -0.0263
11474W        W27091   2.013  16.643   0.713 -0.0115  0.2052  0.0820
11475W        W27092   1.246   3.542   2.827 -0.1779 -0.0679 -0.1210
11476W        W27093  12.419  13.265  11.575 -0.0087 -0.1293 -0.3794
11477W        W27094  10.931  18.755   2.092 -0.3170 -0.2405  0.1736
11478W        W27095  15.346   8.076   3.912 -0.2032 -0.0834  0.2769
11479W        W27096   2.333  13.331  14.016  0.3247  0.2392  0.1689
11480W        W27097  19.049  15.115   1.864  0.0508 -0.2152 -0.2763
11481W        W27098   2.221   3.409  12.898 -0.2007  0.0293  0.2432
11482W        W27099  17.257  17.207   2.041  0.1327 -0.0950 -0.1614
11483W        W27100   6.818  11.939   4.830 -0.1301  0.0581  0.2199
11484W        W27101  16.399   2.651   3.676  0.1637 -0.0401  0.1551
11485W        W27102   6.439   7.315   4.301  0.1411 -0.2225 -0.2280
11486W        W27103   6.420  18.454  10.869 -0.0438  0.1896 -0.3036
11487W        W27104   8.104   1.044  12.205 -0.0175 -0.1480  0.1558
11488W        W27105  10.422  18.267  11.685 -0.0531 -0.2931 -0.1799
11489W        W27106  11.519   6.877  13.883 -0.0266  0.0468 -0.0732
11490W        W27107   4.236   7.458  12.802 -0.1125 -0.2320  0.3158
11491W        W27108   3.372   2.542  14.308  0.2318  0.0365 -0.1321
11492W        W27109   6.812  14.051  13.277  0.1112  0.0758  0.0106
11493W        W27110   6.897  13.701   1.819  0.4724  0.0741 -0.1961
11494W        W27111   9.849   4.708  12.889  0.1857 -0.1602 -0.1409
11495W        W27112   4.128   6.799  11.286 -0.3294  0.0050  0.1535
11496W        W27113  12.922   6.940   0.515  0.1985  0.0543  0.0836
11497W        W27114  11.526   7.283   0.145 -0.1675 -0.3806  0.1738
11498W        W27115  18.986  11.484  15.046  0.1411  0.2251 -0.4013
11499W        W27116   8.199   7.297   3.860  0.1794  0.1281  0.0362
11500W        W27117  11.415  10.459   1.044 -0.2679 -0.1796  0.0572
11501W        W27118   4.825   1.003  12.631  0.2792  0.1374 -0.0163
11502W        W27119   0.083   7.295   0.378  0.0737 -0.1107 -0.1915
11503W        W27120   8.663   2.592  10.953 -0.1777 -0.2465  0.1326
11504W        W27121   1.978  16.638  15.073 -0.1468  0.0988  0.3318
11505W        W27122  11.994  16.558  10.862  0.1703 -0.1014 -0.2982
11506W        W27123  16.118   1.916  11.707 -0.0545 -0.2646  0.0012
11507W        W27124  12.761   1.898  11.860 -0.1209 -0.0942  0.0616
11508W        W27125   3.134  17.842  11.647  0.1255  0.0837  0.1856
11509W        W27126  11.873  13.228   2.279  0.2191  0.4358  0.0307
11510W        W27127   8.894  12.033  10.660  0.1923  0.0493 -0.1876
11511W        W27128  14.464   3.324  13.260 -0.0336 -0.2737 -0.1930
11512W        W27129  12.847   0.131  11.410  0.2758 -0.0369  0.0969
11513W        W27130  14.907   1.571   2.159  0.2683  0.3575  0.1941
11514W        W27131   0.666  17.819  14.560 -0.1751 -0.0383  0.0689
11515W        W27132  13.975   0.005   9.583 -0.2057 -0.1075 -0.2460
11516W        W27133  16.627  10.215  13.636 -0.0852 -0.0134  0.1190
11517W        W27134  13.137   0.100   1.466  0.2722  0.0907  0.0973
11518W        W27135   8.253   8.075   0.917  0.2351 -0.1181 -0.2140
11519W        W27136  14.365   6.062  15.033 -0.0135 -0.7054 -0.2242
11520W        W27137   0.357  18.972   4.832  0.1415  0.2198  0.0040
11521W        W27138  17.977  18.027   2.536 -0.0050 -0.3394  0.6918
11522W        W27139   9.877  18.975  11.850  0.0077  0.2490  0.2879
11523W        W27140   2.199   4.891   0.189  0.0074 -0.1493 -0.2204
11524W        W27141  12.050  10.353  15.022 -0.2857 -0.0258 -0.1838
11525W        W27142   2.025  14.832   1.280  0.0850 -0.2078 -0.3100
11526W        W27143  11.172  18.982  12.889 -0.2042 -0.2796 -0.1317
11527W        W27144  12.098   1.622   2.800 -0.0294 -0.0005  0.2001
11528W        W27145  16.922   4.234  12.730 -0.1657 -0.1328  0.3127
11529W        W27146   0.855   7.286   1.090  0.0132 -0.0816 -0.1595
11530W        W27147   0.597  13.450  11.065 -0.1398 -0.4035  0.3295
11531W        W27148  10.423   2.926   4.872 -0.1006 -0.1533 -0.0192
11532W        W27149  10.312  15.097   2.826  0.0812 -0.2363 -0.1619
11533W        W27150  10.847   2.833   1.515  0.1730  0.1625 -0.0228
11534W        W27151   6.891   4.018   2.083 -0.1551  0.0595  0.0704
11535W        W27152   7.816  18.984  12.612  0.1311  0.0516  0.2161
11536W        W27153   7.478   7.610   1.564 -0.0238  0.0356  0.2279
11537W        W27154   5.768  15.802   3.179 -0.0628  0.0051  0.0425
11538W        W27155  10.492   2.880  15.017  0.0716 -0.0908 -0.0280
11539W        W27156   6.814   0.108  12.646 -0.3080 -0.2748  0.2068
11540W        W27157  11.061  17.805  14.868  0.0925 -0.0554  0.0013
11541W        W27158   8.385  10.764   2.874 -0.0933  0.0870 -0.1143
11542W        W27159  11.751   2.956   0.824  0.2863  0.1239 -0.4106
11543W        W27160   8.194   7.109   2.028 -0.0289 -0.2165 -0.2866
11544W        W27161   6.748  11.963   2.241  0.2244  0.2593  0.3031
11545W        W27162   5.849  17.925   5.574 -0.0407  0.0102 -0.0578
11546W        W27163  10.428   4.628   3.295  0.1182 -0.0877  0.0278
11547W        W27164  11.565  15.061   0.613  0.0151  0.0309 -0.1452
11548W        W27165  13.208  15.018   2.990 -0.3289  0.1096  0.3261
11549W        W27166   0.107  14.013  13.853  0.0340  0.2636 -0.1439
11550W        W27167   0.118   9.916   2.528 -0.1811  0.2076  0.1491
11551W        W27168   8.948  17.669   4.083  0.1419 -0.2350  0.1562
11552W        W27169  10.266   7.633  12.121 -0.0007 -0.1863  0.1223
11553W        W27170  17.992  10.645   0.406 -0.0072 -0.0567 -0.1728
11554W        W27171  16.783  12.944   0.782  0.1314  0.3602 -0.0326
11555W        W27172   1.594   2.740   2.654  0.1075  0.0787 -0.2694
11556W        W27173  15.726  18.904   4.176 -0.1379 -0.4702  0.0402
11557W        W27174  14.401   1.346  13.215  0.1659 -0.0243 -0.2228
11558W        W27175  13.918  14.023  12.148 -0.1329 -0.5197 -0.1253
11559W        W27176   0.231   2.461  11.470  0.0758 -0.2629  0.1849
11560W        W27177  10.275   1.558  10.854 -0.3141  0.1181  0.0978
11561W        W27178  10.356   3.548   3.809  0.0129  0.2897 -0.1028
11562W        W27179  18.706  11.542   4.695 -0.5299  0.2162  0.0049
11563W        W27180  17.692   4.055  15.047  0.2688 -0.1594  0.3040
11564W        W27181   0.807  16.780  11.682 -0.0067 -0.1165 -0.3534
11565W        W27182  17.597  13.071   3.134  0.2756  0.2327 -0.1250
11566W        W27183  13.820   6.740  11.118 -0.1523 -0.1580  0.0998
11567W        W27184  17.879   6.417  12.515  0.2341 -0.1295 -0.2670
11568W        W27185   6.181  12.721  13.382  0.0438  0.2420  0.4695
11569W        W27186  10.798  15.335   2.714 -0.0274 -0.0844  0.2131
11570W        W27187  18.634   3.317  12.339 -0.0160  0.2184  0.1212
11571W        W27188  13.914  11.646   1.899 -0.0173  0.0963 -0.0340
11572W        W27189   8.044   8.357   2.464 -0.1828 -0.0736  0.2692
11573W        W27190   2.527   3.200   4.725  0.0080 -0.1117  0.2267
11574W        W27191   4.106  18.899   4.103 -0.2699 -0.2069 -0.2011
11575W        W27192  17.464   6.591  13.464  0.0725 -0.2460 -0.0991
11576W        W27193   0.816  16.084  13.972  0.0573  0.1549 -0.1432
11577W        W27194   4.701  12.377  14.298 -0.1368  0.1513  0.0209
11578W        W27195  11.736  16.687   1.412 -0.2237 -0.0305  0.1605
11579W        W27196  11.587  12.661   0.134  0.0470 -0.0029 -0.1133
11580W        W27197  17.019   1.488   4.627 -0.0915  0.1738  0.1410
11581W        W27198  12.072   5.752   0.916  0.2319 -0.1236  0.1172
11582W        W27199   1.776  14.173  12.160 -0.0981  0.0885  0.0016
11583W        W27200  16.632   7.548  11.914 -0.1157 -0.1071  0.1560
11584W        W27201   0.677  14.562  14.310 -0.1669 -0.3698 -0.2479
11585W        W27202  17.015   4.011  11.120 -0.3297  0.0710  0.0229
11586W        W27203  10.408  13.100  12.085  0.0233  0.0520  0.3143
11587W        W27204  13.251  14.927   1.062  0.1347 -0.0819  0.0660
11588W        W27205   8.941   1.922  11.305 -0.0894 -0.5178 -0.0122
11589W        W27206  17.566   1.179  11.308  0.1017  0.2556  0.1332
11590W        W27207   0.629  11.977  12.124 -0.0756 -0.0287  0.0025
11591W        W27208   2.896  15.152  12.135  0.0371  0.1249 -0.2012
11592W        W27209   2.451  14.596  15.032 -0.1746 -0.0336  0.0759
11593W        W27210  18.112   6.919  14.394  0.0497  0.0655  0.2096
11594W        W27211   8.778  10.008  12.159  0.3016 -0.1648  0.1869
11595W        W27212   3.400   1.391   4.725  0.0638 -0.2043  0.1282
11596W        W27213   9.010   6.266  11.009  0.1166  0.0401  0.0927
11597W        W27214   3.652   8.293   4.174  0.3439  0.1474 -0.1746
11598W        W27215  16.550   8.024   2.342  0.2527 -0.0518 -0.2218
11599W        W27216   5.157  13.135   0.320 -0.2669 -0.1149 -0.0356
11600W        W27217  11.003  11.238   3.840 -0.2758  0.0851 -0.2633
11601W        W27218   0.004   9.888   2.005  0.0118 -0.0594  0.0588
11602W        W27219   9.509   6.226  12.408  0.2818 -0.0541 -0.0953
11603W        W27220  11.140   8.898  13.434  0.0768 -0.4315  0.0936
11604W        W27221  16.549  18.954   0.106  0.1773  0.0454  0.1369
11605W        W27222  16.219  16.378  10.018  0.2140 -0.2573 -0.4166
11606W        W27223  18.797   9.892  13.984  0.1721 -0.0255  0.1568
11607W        W27224   7.434   0.938   1.465 -0.3473  0.0147 -0.4590
11608W        W27225   5.953  13.487   0.612  0.0945  0.1073 -0.0883
11609W        W27226  12.585  10.396  14.295  0.3016 -0.2493 -0.1199
11610W        W27227  14.310  12.403  10.552  0.1638  0.0648 -0.0254
11611W        W27228  12.001   2.998   2.634  0.1432  0.0194 -0.0657
11612W        W27229  16.419   1.764   1.245  0.2524 -0.1231 -0.1495
11613W        W27230   4.667  18.676   0.519  0.1198  0.0558  0.2375
11614W        W27231   1.613   1.401   0.580  0.1633 -0.0885  0.2190
11615W        W27232   0.541  15.877  10.137 -0.2727  0.3193  0.1090
11616W        W27233   8.488  10.148  13.266  0.0035 -0.2407  0.1874
11617W        W27234   5.568   0.225   4.971  0.1003  0.1842  0.0081
11618W        W27235  15.985  16.569   0.374 -0.0494  0.0703  0.1005
11619W        W27236   8.289  14.126  11.595 -0.3476  0.4291  0.0141
11620W        W27237   3.678  10.619   1.636  0.2210 -0.1466  0.1163
11621W        W27238   3.333  16.034   5.164  0.1234 -0.2087 -0.0509
11622W        W27239   7.572   4.957  12.536  0.2323 -0.3025 -0.1165
11623W        W27240  10.216   3.323  10.731  0.0030 -0.1095  0.0426
11624W        W27241   7.984  14.091   3.504  0.1745  0.0878  0.0692
11625W        W27242   8.737   2.596   0.235 -0.0060  0.1432 -0.3535
11626W        W27243  14.510   1.006  10.815 -0.4277 -0.4552 -0.3164
11627W        W27244  14.212  16.141   3.045 -0.2742 -0.2028  0.1525
11628W        W27245  15.087   8.469  14.906 -0.0154 -0.0417  0.0133
11629W        W27246  18.027   2.947   0.643  0.1697  0.1658 -0.0022
11630W        W27247  16.834  13.203   3.854 -0.0808  0.2699  0.0386
11631W        W27248  10.080   9.485  14.622 -0.0338 -0.1190  0.0233
11632W        W27249  10.782  16.938   1.024  0.2000 -0.1987 -0.2703
11633W        W27250  16.949   1.961   4.603 -0.2179 -0.0242  0.2039
11634W        W27251  14.450   2.135  14.883  0.0351 -0.0523  0.0275
11635W        W27252   6.002  17.250  11.826 -0.1127  0.0031  0.2188
11636W        W27253  16.294  11.295  11.409 -0.2986 -0.1320 -0.0360
11637W        W27254   5.622  14.111  12.116  0.2671 -0.3283 -0.1193
11638W        W27255  12.007  17.393  13.861 -0.2358  0.2443  0.0538
11639W        W27256   1.887   7.711   4.722 -0.4497 -0.0321 -0.0890
11640W        W27257  18.790   2.041   1.237  0.0925  0.1892 -0.0294
11641W        W27258  17.416  15.923  12.149  0.3102  0.0711  0.2861
11642W        W27259   5.382   4.578  11.081 -0.2677  0.1119 -0.0826
11643W        W27260  16.656  17.212  14.711 -0.4781  0.0134 -0.2268
11644W        W27261  14.012  18.804   9.985 -0.0833  0.1577 -0.0256
11645W        W27262   6.373  16.298  11.798 -0.1646  0.1367 -0.2856
11646W        W27263  18.450   8.275   9.201 -0.0906 -0.1560 -0.0940
11647W        W27264   1.023   1.798   1.738  0.0957  0.1438 -0.0109
11648W        W27265   8.077  17.030  13.957  0.0933 -0.2406 -0.2294
11649W        W27266   1.397  10.330  12.653 -0.1963  0.2190  0.1659
11650W        W27267  17.861  17.164  11.393  0.0146  0.4027 -0.1590
11651W        W27268   4.188  15.908   0.537 -0.2014 -0.2980  0.1464
11652W        W27269  12.704   0.145  12.515 -0.1206 -0.1931  0.1528
11653W        W27270  11.758   0.960   4.599  0.2301 -0.3085 -0.0087
11654W        W27271   6.476  18.858   5.219 -0.0283 -0.1624  0.1239
11655W        W27272  17.096   4.702  14.718 -0.0768 -0.2255 -0.0843
11656W        W27273   6.989  11.107   3.790 -0.1649  0.1949  0.0404
11657W        W27274   5.513   8.586   4.465 -0.0938 -0.1741  0.1834
11658W        W27275  12.324   1.068  11.640  0.0124 -0.5540  0.0644
11659W        W27276   8.024   4.659  13.243  0.1480 -0.1977  0.2422
11660W        W27277   6.334   4.916   1.293  0.2623  0.2661  0.2813
11661W        W27278  14.678   8.823  12.615 -0.0665  0.3703  0.0781
11662W        W27279   3.305  15.557   1.848 -0.3166 -0.3629  0.2456
11663W        W27280  11.888   1.340  12.938 -0.1028 -0.0738  0.0157
11664W        W27281  16.190   1.359  13.177  0.0219 -0.0620 -0.2105
11665W        W27282   1.135   0.022   3.894  0.0180  0.2251  0.0409
11666W        W27283   6.472  15.822  13.841  0.0187  0.1921  0.0559
11667W        W27284  16.799   1.564  14.698  0.0709 -0.3488 -0.0925
11668W        W27285  10.324   2.017  15.106 -0.1371  0.1491 -0.1022
11669W        W27286   3.620  16.671   2.704 -0.1228  0.1480 -0.2029
11670W        W27287  12.602  11.431  11.080  0.2969 -0.1010  0.2510
11671W        W27288  13.096  13.189  11.051 -0.0173  0.0832 -0.1763
11672W        W27289   4.141   9.224  13.647 -0.1571 -0.3836 -0.1094
11673W        W27290   9.275  14.289   1.452  0.4822 -0.0823  0.5199
11674W        W27291   5.159  14.430  14.032  0.2867  0.1360  0.2158
11675W        W27292   0.405  18.865  12.496 -0.2364  0.1372  0.4502
11676W        W27293   6.530  15.115   2.479 -0.1967  0.3193  0.4424
11677W        W27294  14.413   1.756   2.257 -0.1296 -0.2848 -0.2266
11678W        W27295  14.963   9.810   4.096 -0.1782  0.0455  0.0718
11679W        W27296  10.138   0.041   2.851 -0.0402 -0.0858 -0.1187
11680W        W27297   2.110   4.872   3.139  0.2026 -0.1483 -0.1721
11681W        W27298   7.484  16.612   1.424 -0.1318 -0.1913  0.1923
11682W        W27299  18.078  14.402  12.198 -0.1972 -0.0059  0.1814
11683W        W27300   9.334  13.273   1.042  0.2809  0.3195  0.3606
11684W        W27301   7.377   4.046  15.271 -0.0854 -0.1378 -0.0412
11685W        W27302   9.494   9.208  13.009 -0.2187 -0.1850 -0.4364
11686W        W27303   3.717  17.957  12.046  0.0295 -0.2255  0.2179
11687W        W27304   6.166  12.643   4.545  0.0309 -0.0187 -0.0186
11688W        W27305   2.228   5.463  13.967  0.1085 -0.1699  0.0242
11689W        W27306  11.304  14.214   9.772 -0.0662 -0.0872 -0.0105
11690W        W27307  17.408   7.716   3.717  0.3296  0.1350 -0.0208
11691W        W27308  13.202   9.999   3.857 -0.1867  0.0301 -0.0803
11692W        W27309   3.243   7.087   3.284 -0.0700  0.0619 -0.3320
11693W        W27310   7.781   2.593  14.284  0.1596 -0.0558 -0.0100
11694W        W27311   3.722  15.835   4.420  0.0664 -0.2545 -0.0725
11695W        W27312  18.480   1.768  13.439 -0.0065 -0.3455 -0.1729
11696W        W27313   3.789  12.307   2.397 -0.0228  0.2144  0.0533
11697W        W27314   2.969   6.875   5.737 -0.0166  0.1490  0.0177
11698W        W27315   8.629   7.874  14.550 -0.1272 -0.0893  0.0066
11699W        W27316   2.155   6.577   5.681 -0.1793 -0.0584  0.0210
11700W        W27317   8.987   2.087   1.285 -0.3882 -0.0822  0.1122
11701W        W27318   1.850   4.102  13.426  0.1295 -0.1171 -0.1928
11702W        W27319   1.436   8.629  12.418  0.0695  0.0768 -0.1084
11703W        W27320  12.736   3.190   0.041 -0.4918 -0.0225  0.0336
11704W        W27321   9.054  15.478   0.406  0.0940  0.1135 -0.3698
11705W        W27322  13.956  13.936  11.561 -0.0945  0.0370  0.1302
11706W        W27323   4.735  11.191   3.991  0.0068  0.1368 -0.0772
11707W        W27324  17.638  12.041  10.702  0.2396  0.4899  0.0782
11708W        W27325   1.331  15.405  14.298  0.1817  0.2534 -0.0515
11709W        W27326   8.804   1.151  13.410 -0.2062  0.1306  0.0510
11710W        W27327  12.527   2.293  14.093  0.0436  0.3592 -0.1880
11711W        W27328  17.793  18.226   3.058  0.0169 -0.1658  0.0466
11712W        W27329  11.024  18.301   1.662  0.1509  0.2712 -0.2032
11713W        W27330   8.882   4.712   5.678  0.0460 -0.0737  0.3289
11714W        W27331   6.627   3.583   0.030 -0.2315 -0.0647 -0.1452
11715W        W27332   8.546  15.488   2.815 -0.1039  0.3298 -0.3681
11716W        W27333  13.996  17.352   4.551 -0.0134 -0.2073  0.4534
11717W        W27334   2.713   7.144  14.756  0.0770  0.3525  0.5447
11718W        W27335  17.989   1.491  12.550 -0.1454  0.2008  0.0686
11719W        W27336  16.678  11.827  12.884 -0.2488 -0.1140  0.0252
11720W        W27337  10.193  14.874  12.052  0.1498  0.2529 -0.0520
11721W        W27338  13.477   7.396   3.470 -0.1689  0.0771 -0.0606
11722W        W27339  10.244   2.517   2.870  0.1842 -0.1889 -0.0977
11723W        W27340   9.312  14.117  10.071 -0.0172 -0.1457  0.0557
11724W        W27341   3.570   3.088   0.895  0.0610  0.0897  0.0028
11725W        W27342   8.889   9.134  13.764  0.1227  0.1367  0.2030
11726W        W27343  12.049   2.178   0.370 -0.1991  0.1378 -0.0150
11727W        W27344   4.033   6.585  10.801 -0.3433 -0.2062  0.0018
11728W        W27345   0.374  15.389  13.385  0.0126 -0.1415  0.1882
11729W        W27346  11.879   2.503   3.936 -0.2377  0.1149  0.1147
11730W        W27347   5.035   5.748  10.610  0.1820 -0.0927  0.4083
11731W        W27348  15.175  18.400   3.631  0.0250  0.5097  0.3528
11732W        W27349  16.437  10.569  13.338  0.0812  0.0336 -0.0601
11733W        W27350  16.678   6.065   4.715 -0.1394 -0.3315  0.2265
11734W        W27351  11.260   4.979   4.731  0.0651 -0.0620  0.2428
11735W        W27352   3.437  17.228  15.264  0.2981  0.1664 -0.0563
11736W        W27353   0.290   5.679  10.368 -0.1783  0.0063  0.1360
11737W        W27354  18.090  10.197  12.968 -0.1113  0.0032  0.3428
11738W        W27355  13.661   1.452   2.801 -0.4420 -0.3181  0.1072
11739W        W27356  12.612  16.288  12.507  0.2274 -0.0110 -0.0326
11740W        W27357   5.964   6.220   4.970 -0.0465 -0.0220  0.2500
11741W        W27358   8.011   4.023  10.399  0.0113  0.1814  0.2069
11742W        W27359  15.887   9.112   2.462  0.0609 -0.5116  0.1776
11743W        W27360   2.077  18.184  12.546  0.0704  0.0352 -0.0540
11744W        W27361   6.898   0.718   5.340  0.2145  0.4328 -0.3056
11745W        W27362   9.482  14.693  13.647  0.0114 -0.0924  0.4447
11746W        W27363  18.843   8.190   5.556 -0.0592 -0.4909 -0.1204
11747W        W27364   7.080   9.550   0.105  0.0711 -0.3277 -0.0175
11748W        W27365  15.913   2.383  13.109  0.3772 -0.1350  0.2945
11749W        W27366   5.677  11.849  12.601  0.1012  0.0690  0.0376
11750W        W27367  12.870   2.114  11.318  0.3639 -0.3980  0.0859
11751W        W27368  17.043   5.710  12.258 -0.4242  0.3675 -0.0091
11752W        W27369   8.112   6.443  13.284  0.0564 -0.2022 -0.1479
11753W        W27370  13.758   3.428   4.639 -0.1009 -0.1869  0.0234
11754W        W27371   3.018  10.200  13.235 -0.0077  0.0907 -0.1562
11755W        W27372   4.977   3.383   5.164 -0.1902  0.1532 -0.0743
11756W        W27373  10.591  13.857   2.030 -0.1231  0.0821  0.0635
11757W        W27374  11.448  16.160   4.757 -0.0885  0.2417 -0.1121
11758W        W27375   2.721   4.286   5.050 -0.4966  0.2564  0.2604
11759W        W27376   1.123  15.565  13.817 -0.1709 -0.1167 -0.2492
11760W        W27377   4.928  17.847   2.735 -0.3459  0.3773 -0.0755
11761W        W27378  14.059   6.723  11.727 -0.0555  0.0210  0.1457
11762W        W27379  16.486   0.815   0.990  0.3247  0.1226 -0.0289
11763W        W27380   8.904  16.585   0.172  0.3680  0.3876  0.3415
11764W        W27381   6.313  14.441  12.610 -0.0692  0.0294 -0.3640
11765W        W27382  12.109  17.318   3.277 -0.0883 -0.0423 -0.1865
11766W        W27383   2.958  18.515  14.342 -0.1512  0.2566 -0.1586
11767W        W27384   3.926  17.016  12.100 -0.0154  0.1122 -0.1912
11768W        W27385  11.130  11.488   4.392  0.0986  0.0967 -0.1369
11769W        W27386  10.980   3.301   1.278  0.3357  0.0840 -0.1760
11770W        W27387   1.335  13.199  13.932 -0.1702 -0.0420 -0.3789
11771W        W27388   6.437  14.419  13.485 -0.0425 -0.1754 -0.1221
11772W        W27389   4.475   3.453  15.071 -0.2350  0.0519 -0.2414
11773W        W27390   9.009  15.134   3.452 -0.0066 -0.0906  0.0922
11774W        W27391  11.089   5.206   0.167  0.5506 -0.0627  0.3103
11775W        W27392  11.975   0.872  10.871 -0.1507 -0.3495  0.2289
11776W        W27393  11.894   5.636   4.313 -0.0806 -0.1241  0.0607
11777W        W27394   4.485  10.872  14.634 -0.2469 -0.1421 -0.0075
11778W        W27395  17.421   7.012  13.073 -0.1184  0.2363 -0.0227
11779W        W27396   6.345  17.754   2.794 -0.1568  0.0295 -0.1602
11780W        W27397   9.874   2.773  12.850 -0.3025  0.5033  0.3589
11781W        W27398   1.050  12.711   0.754  0.1983  0.1472  0.2580
11782W        W27399   2.246   0.941  13.965  0.0591  0.1919 -0.2332
11783W        W27400   8.140   1.955   3.045  0.1965  0.0230 -0.1365
11784W        W27401  10.744  10.543  12.643 -0.4813  0.1810  0.2718
11785W        W27402  15.459   7.946  11.520 -0.1421 -0.2259  0.1424
11786W        W27403   6.098  12.212   3.849  0.1276 -0.0408 -0.1424
11787W        W27404  13.332  17.876   4.349  0.0346 -0.0082 -0.2352
11788W        W27405  16.700  17.720  12.197 -0.1294 -0.2619  0.0767
11789W        W27406  11.471  13.624  13.979 -0.0757 -0.0715 -0.1345
11790W        W27407   5.537  18.802   4.280  0.2136  0.1569  0.3720
11791W        W27408   6.773   3.021   2.424 -0.3275 -0.2297  0.1325
11792W        W27409   0.701  15.157  14.648  0.0138 -0.2291 -0.2357
11793W        W27410   5.405   4.634   4.272 -0.0122 -0.0376 -0.2797
11794W        W27411   1.260  18.016   2.862  0.0854  0.3895  0.0906
11795W        W27412   6.268  11.886   2.134  0.0243  0.0638  0.1940
11796W        W27413  11.288   9.413  12.125  0.0037 -0.3773  0.2098
11797W        W27414   9.182   4.343  14.898  0.0204 -0.1608 -0.2026
11798W        W27415  16.194   7.286  13.614 -0.0087  0.2028 -0.0656
11799W        W27416  18.531  14.127  14.952 -0.0877  0.5369 -0.2319
11800W        W27417  18.568   0.213  12.712  0.2393  0.0753 -0.0983
11801W        W27418  11.123   8.860  10.564  0.0513  0.1198  0.2232
11802W        W27419  11.441  12.891   2.442 -0.0500 -0.2648 -0.2505
11803W        W27420  13.829   7.493  14.686 -0.1282  0.0584 -0.0899
11804W        W27421   6.977  16.037   1.926 -0.0604  0.0552  0.2503
11805W        W27422   4.095  17.597   0.728  0.2447 -0.1141 -0.1786
11806W        W27423  12.810  14.830   4.853 -0.0026 -0.0008 -0.2802
11807W        W27424  14.761   5.279   0.114  0.1503 -0.1876  0.3826
11808W        W27425  13.663   3.029   1.550  0.1477  0.5132  0.0899
11809W        W27426   1.069   0.389  13.414 -0.2126 -0.2470 -0.2983
11810W        W27427   9.553   7.441   4.072 -0.1139  0.0275  0.2035
11811W        W27428  10.784   3.892   9.892 -0.3637  0.1134 -0.3608
11812W        W27429  12.705   9.034   2.492 -0.1515  0.1485  0.2610
11813W        W27430  17.695   5.646   0.850 -0.0741 -0.0702 -0.0592
11814W        W27431  17.607  16.722   2.247  0.0830  0.2418  0.0836
11815W        W27432  15.073   5.180   2.956 -0.0475 -0.2580  0.2671
11816W        W27433  14.250   8.720  11.863  0.6187 -0.0503 -0.0571
11817W        W27434   5.799   9.005  13.628 -0.3475 -0.1000  0.1783
11818W        W27435   4.244   9.134  14.620 -0.1184  0.3597 -0.1275
11819W        W27436  16.527  14.721   5.682  0.3498 -0.0804  0.1809
11820W        W27437  14.265  18.343  11.603  0.0554 -0.2343  0.0365
11821W        W27438   7.924  12.404   1.771  0.3091 -0.1348  0.0691
11822W        W27439   4.476  10.716   2.460 -0.1160 -0.0463 -0.2479
11823W        W27440   4.244   2.055   3.039  0.0773  0.1563  0.1364
11824W        W27441  14.464   8.212  13.200  0.0018  0.0746  0.1388
11825W        W27442  14.776  15.293   0.159  0.1099 -0.2808  0.1767
11826W        W27443  13.728  16.073  12.091  0.1331 -0.1575  0.1556
11827W        W27444  16.148  12.134   3.403  0.1533  0.2526 -0.1598
11828W        W27445   4.376   9.665   4.835 -0.3146 -0.3360 -0.1330
11829W        W27446   9.023  17.240   3.136 -0.1898  0.1611 -0.3516
11830W        W27447  15.415   1.704  13.157  0.3032  0.0009 -0.0962
11831W        W27448   6.501  13.180   2.155  0.2363  0.3125 -0.2264
11832W        W27449   7.945  17.889  13.683  0.3148  0.0165 -0.0063
11833W        W27450   1.583  17.961  15.025 -0.1986 -0.1187 -0.1717
11834W        W27451  14.726  14.401   2.720  0.1534  0.3551  0.1568
11835W        W27452   2.701  13.076   4.267 -0.1739 -0.0888 -0.1042
11836W        W27453  12.630  14.502   4.527 -0.2007 -0.3589  0.1654
11837W        W27454  12.627  13.727  11.727 -0.2826  0.0191  0.2286
11838W        W27455  15.729  12.181   1.195 -0.0419  0.3432  0.0387
11839W        W27456   4.731  16.262   2.516  0.0165  0.1677  0.2513
11840W        W27457  18.909   1.838   0.771 -0.1124 -0.0537 -0.3598
11841W        W27458  15.737  10.787  12.040 -0.1341 -0.2517  0.0279
11842W        W27459  16.552   9.601   5.304  0.6717  0.2950 -0.0342
11843W        W27460  17.392   3.137  14.126 -0.1396  0.0471 -0.1501
11844W        W27461   8.676  17.175  11.808  0.2345  0.2368  0.1336
11845W        W27462   0.585  15.361   1.882  0.1761  0.1060 -0.2536
11846W        W27463  18.100   8.679   4.449 -0.3216 -0.0258 -0.0992
11847W        W27464   0.786  10.117   2.502 -0.0976 -0.0941  0.0854
11848W        W27465  11.944  17.025  12.261 -0.1548 -0.4294  0.0744
11849W        W27466   3.906  11.039   0.019  0.1953  0.4142  0.1407
11850W        W27467   0.102  15.561   2.669  0.0169  0.0023  0.3226
11851W        W27468   1.721  12.340   4.599  0.0695 -0.2739  0.3863
11852W        W27469   5.068   7.279   3.675 -0.0698 -0.0207  0.2474
11853W        W27470  16.092  11.043   9.703  0.0565 -0.0547 -0.3604
11854W        W27471  19.012  10.987  14.370  0.2417  0.2589 -0.0148
11855W        W27472  14.584   3.286  11.368 -0.0369  0.3025 -0.2558
11856W        W27473   4.875   2.409   0.817  0.0330  0.0549  0.1482
11857W        W27474  19.073   5.215  15.037  0.0430 -0.2725  0.0567
11858W        W27475   7.447  12.595  15.088  0.2127  0.1763  0.4550
11859W        W27476   2.500   8.135  14.310 -0.2582  0.1439 -0.1506
11860W        W27477   2.915  15.899  13.300 -0.0556 -0.0937  0.1995
11861W        W27478  13.815  18.158   4.561 -0.2481  0.2373 -0.0312
11862W        W27479   6.134   3.976  12.950 -0.1715  0.4154  0.2883
11863W        W27480   6.628   1.161  14.265  0.0592  0.2568  0.1920
11864W        W27481   3.025  14.200   2.947  0.0564  0.2018  0.0018
11865W        W27482   6.988  10.330   5.611 -0.0091  0.0552  0.0159
11866W        W27483   7.015   2.838   5.796 -0.1971  0.1673 -0.2106
11867W        W27484  11.936  10.869  10.891 -0.3601 -0.1490 -0.2429
11868W        W27485   4.868   0.921   4.582  0.0756 -0.4140 -0.1454
11869W        W27486   7.423  14.314   0.428  0.1686 -0.1921  0.0551
11870W        W27487   0.764   9.385   2.288  0.1130 -0.1932 -0.1425
11871W        W27488   4.299   5.077   3.437  0.0308  0.0270  0.0304
11872W        W27489   3.745  12.478   0.285  0.1608 -0.1328 -0.1766
11873W        W27490  14.142   0.279   0.823  0.1495  0.1275 -0.0995
11874W        W27491  18.619  14.876  13.839  0.0742 -0.1144 -0.0229
11875W        W27492   1.785   6.124  14.424  0.0064 -0.0599  0.2840
11876W        W27493   5.607  10.136  11.324  0.2038 -0.1377 -0.0462
11877W        W27494  16.888  12.711  12.415  0.0900 -0.0318  0.0286
11878W        W27495   0.932   5.476   3.056 -0.2017  0.1697 -0.1216
11879W        W27496  14.529  15.891  11.370 -0.3725  0.0533  0.2421
11880W        W27497  18.901   5.729   0.743 -0.0431 -0.0310 -0.0242
11881W        W27498  14.654  11.085  10.553 -0.0167 -0.0965  0.1481
11882W        W27499   4.307  14.416  13.222 -0.0489  0.0619  0.0610
11883W        W27500  10.781   9.929   1.708 -0.0585 -0.0369 -0.0871
11884W        W27501   0.653   3.481   1.179 -0.2539  0.1458 -0.0610
11885W        W27502   0.806   2.944   3.065  0.1564  0.0325  0.1970
11886W        W27503   3.145   5.704  11.795 -0.0973 -0.0820  0.1191
11887W        W27504  18.066  13.364  14.669  0.1536  0.1003 -0.1114
11888W        W27505  15.502   2.246  13.203  0.1968  0.0852  0.1826
11889W        W27506   3.983  18.292  11.067  0.3089 -0.2187  0.0642
11890W        W27507   1.737   6.707  13.979  0.3784  0.0515 -0.0317
11891W        W27508   8.398  15.839   1.467  0.2679 -0.2246 -0.0157
11892W        W27509   0.233   0.236   0.053  0.1609 -0.3687 -0.0420
11893W        W27510   9.329  12.878  12.109 -0.1055 -0.1039  0.3010
11894W        W27511   5.516  10.271   0.403  0.0663 -0.1272 -0.0672
11895W        W27512  15.589  18.016   0.582 -0.2785 -0.1589 -0.0641
11896W        W27513   8.020   8.734   4.595 -0.1374  0.2070  0.2525
11897W        W27514   4.920   5.093  13.890 -0.4542 -0.5776  0.0860
11898W        W27515  18.716  18.553  12.285  0.1971  0.1187  0.1474
11899W        W27516   7.498   9.646  13.373  0.0986 -0.1266  0.2265
11900W        W27517   8.118  15.984   5.476 -0.0889 -0.3293 -0.0240
11901W        W27518   5.627   3.903  14.475  0.0007  0.0494 -0.2271
11902W        W27519   5.054   3.636   4.736 -0.0116 -0.0372 -0.1201
11903W        W27520   4.682  14.392   2.695  0.0555  0.2660 -0.2696
11904W        W27521   4.754  14.922   1.244 -0.0459  0.2050 -0.1928
11905W        W27522   0.945  10.696  12.024  0.2829 -0.0268  0.0742
11906W        W27523  16.050  17.849  11.515  0.0219 -0.1627 -0.0493
11907W        W27524   0.771  17.544  12.869  0.4194 -0.1940 -0.0842
11908W        W27525   2.882   1.411  11.895  0.1676  0.0969 -0.1373
11909W        W27526   3.546   8.534  14.251 -0.1160  0.0516 -0.0884
11910W        W27527  10.004  14.623  10.537 -0.1175  0.1982 -0.0169
11911W        W27528   5.343   2.701   2.541 -0.2800 -0.0881 -0.0480
11912W        W27529  10.945  10.390   0.997  0.3997  0.0425  0.2569
11913W        W27530  14.123  16.275  11.065 -0.1334 -0.1989 -0.0960
11914W        W27531  18.472   0.824  13.562 -0.0045  0.2808  0.0124
11915W        W27532   8.960  16.282  14.600  0.0351 -0.2841 -0.0175
11916W        W27533   1.737   5.846   1.172  0.4127 -0.3338  0.3106
11917W        W27534  15.519   5.554   1.702  0.2518  0.1508 -0.0202
11918W        W27535  11.741   6.133  12.131  0.2118 -0.1095 -0.2592
11919W        W27536   8.971   0.255  15.069  0.2388 -0.0499 -0.1291
11920W        W27537  17.046   4.239   4.865 -0.0239 -0.0044  0.1062
11921W        W27538   5.802   4.653  10.895 -0.1070  0.1423  0.0621
11922W        W27539  17.675   5.988   4.692  0.1226  0.0186 -0.0494
11923W        W27540  13.903   0.818  13.573  0.2316  0.4935  0.0293
11924W        W27541  18.577   3.190   1.144 -0.2449 -0.3030  0.0938
11925W        W27542   1.909  16.561  14.193  0.0280 -0.3178 -0.1935
11926W        W27543  11.859  18.456  12.213 -0.1891  0.1933 -0.0778
11927W        W27544  11.650   5.594   0.462  0.1727 -0.1629  0.0772
11928W        W27545   8.269   4.475   2.162 -0.0733  0.1374  0.3661
11929W        W27546   1.073  14.534   3.705 -0.3671 -0.1574 -0.1257
11930W        W27547  10.616  18.759   4.132  0.2036  0.1066  0.1043
11931W        W27548  16.386   5.451   4.315 -0.3137  0.0433 -0.0869
11932W        W27549  13.923   4.999  11.566 -0.1946 -0.2501 -0.1070
11933W        W27550   9.445  14.790  12.980  0.1970  0.1512 -0.2520
11934W        W27551  17.027  15.468  12.176  0.1052 -0.2117  0.0888
11935W        W27552   1.314   6.603   1.621  0.1761  0.1215 -0.1666
11936W        W27553  12.426   7.437  14.971 -0.2028  0.0687 -0.1402
11937W        W27554  18.765  14.976   4.649  0.0207  0.0194  0.1106
11938W        W27555   8.656   4.339   4.906 -0.0311 -0.3208 -0.0022
11939W        W27556  15.524   2.756  14.460 -0.0720  0.3535  0.0611
11940W        W27557  18.501  14.275   3.878  0.1388  0.3201 -0.3019
11941W        W27558   7.992   5.548   1.498  0.2356 -0.0253 -0.0529
11942W        W27559  15.488   8.454  13.077  0.1539 -0.1837 -0.3605
11943W        W27560  17.168   8.808  14.066  0.0696  0.0853 -0.1605
11944W        W27561  18.548   7.054   3.384  0.2053  0.4711  0.1768
11945W        W27562  11.958   6.497   5.462  0.3926 -0.1572  0.1950
11946W        W27563  15.208   7.254  11.006  0.2904 -0.2784 -0.0217
11947W        W27564   8.036  11.059   4.222 -0.5589 -0.1837 -0.2109
11948W        W27565   7.439   1.820   3.590  0.0257  0.1059 -0.0197
11949W        W27566   0.215  11.341   3.175 -0.2709  0.2798  0.1151
11950W        W27567  14.515   2.615  15.159  0.1432 -0.0664  0.0612
11951W        W27568  18.166  13.284   3.776 -0.2808  0.0235  0.0774
11952W        W27569   8.256  14.347  13.824 -0.0767 -0.2372 -0.0448
11953W        W27570   2.634   2.386   2.378 -0.3073  0.3227 -0.2718
11954W        W27571   1.426   0.413   3.443 -0.1053 -0.0813 -0.0448
11955W        W27572   4.283   5.501   2.076 -0.3692  0.0896  0.0360
11956W        W27573  15.742   7.863  14.976  0.0413  0.0735 -0.1829
11957W        W27574   9.460   6.634   3.931 -0.3506 -0.2523  0.1344
11958W        W27575  16.929   8.470  12.157 -0.3712 -0.3442 -0.0350
11959W        W27576   4.731  17.920  12.714 -0.3998 -0.3249 -0.3047
11960W        W27577   5.749  17.550   5.198  0.0289  0.0722  0.1367
11961W        W27578  14.860   2.275   9.889 -0.1499 -0.0530  0.0686
11962W        W27579   2.735   4.270   3.339 -0.1053  0.1027 -0.2054
11963W        W27580   3.403  10.556  12.157 -0.0010 -0.0256 -0.0274
11964W        W27581   8.938   8.701  10.849 -0.2014  0.0701 -0.0150
11965W        W27582   8.269   3.486   3.122  0.2443  0.2434 -0.0503
11966W        W27583   3.725  12.943  13.912 -0.0259 -0.2707  0.4763
11967W        W27584   0.230  16.202   4.961 -0.0750  0.2195  0.1520
11968W        W27585  12.237  16.223   2.826 -0.1692 -0.3203 -0.0041
11969W        W27586  10.314   3.446   4.958  0.0261 -0.0505 -0.0040
11970W        W27587   6.209   2.699  12.235 -0.0017 -0.0443  0.0260
11971W        W27588  16.089   3.442   1.123 -0.0424 -0.0249  0.1356
11972W        W27589  13.540   7.800   1.464 -0.0063  0.0423  0.1435
11973W        W27590  14.284  16.776   1.519 -0.4258 -0.2186 -0.2395
11974W        W27591  11.107  14.963  11.899  0.3271 -0.0444  0.2270
11975W        W27592   7.922   1.259   4.127 -0.1136  0.1130  0.0853
11976W        W27593   5.156   3.001  10.373  0.0597 -0.2057 -0.2006
11977W        W27594   2.712  18.219   3.500 -0.4084 -0.1043  0.0738
11978W        W27595   1.956  17.015  11.495  0.1742  0.1092 -0.1416
11979W        W27596   2.780   3.145   0.711 -0.3313 -0.1435  0.0949
11980W        W27597   5.934   7.045   0.697 -0.0957  0.1607  0.0354
11981W        W27598  17.379   0.672   4.285 -0.4926 -0.0376 -0.1632
11982W        W27599   5.902   9.297   3.893 -0.0999  0.1212  0.2642
11983W        W27600  12.745   7.729   5.278  0.2948 -0.2429 -0.0821
11984W        W27601   1.482  19.020   4.613 -0.2126 -0.0331  0.0943
11985W        W27602  10.401  10.634   0.542 -0.1987  0.2344  0.0384
11986W        W27603   8.354  11.219  13.213  0.1008  0.1586 -0.1035
11987W        W27604  13.250   8.273   0.214  0.4097  0.1891 -0.0026
11988W        W27605  10.269  13.551   0.121  0.2633 -0.1749  0.0481
11989W        W27606  14.205   6.957   3.042 -0.2553 -0.3958  0.0704
11990W        W27607   3.169  17.598   3.293 -0.1296  0.0090 -0.0560
11991W        W27608  18.257   6.316   4.807  0.0170 -0.0900 -0.1742
11992W        W27609   3.264   1.592  11.080  0.1813  0.0656 -0.2895
11993W        W27610   6.642   3.832   2.895  0.1756 -0.2170 -0.0880
11994W        W27611  11.512  15.597  11.028 -0.1783 -0.3792  0.2521
11995W        W27612   7.467  17.411  12.567  0.1860 -0.1050 -0.1861
11996W        W27613  14.693  19.021   3.043 -0.0599 -0.0002 -0.1906
11997W        W27614  15.693  13.250  12.258  0.2423  0.0270 -0.0762
11998W        W27615   0.373   4.194   0.774 -0.1648 -0.0504  0.1563
11999W        W27616   6.667   7.772   1.816  0.0631 -0.3374  0.0555
12000W        W27617  10.521  12.024   0.291 -0.1335 -0.1145  0.0998
12001W        W27618   0.647  16.242  14.588  0.2788  0.1946  0.0382
12002W        W27619  16.999  10.699   1.258 -0.2214  0.3180  0.1300
12003W        W27620   2.552  10.916   3.112  0.1677 -0.4264  0.0876
12004W        W27621  15.900   2.140  13.585  0.0632 -0.0708 -0.2503
12005W        W27622  18.107   0.037   3.022  0.2809  0.1080 -0.2016
12006W        W27623  16.768  12.758   3.550 -0.1906  0.3926  0.2658
12007W        W27624  12.399  18.513  14.790  0.1456 -0.1532 -0.0765
12008W        W27625   8.884  13.906  13.903  0.2847  0.0445 -0.2803
12009W        W27626  18.229   0.289   4.942  0.0852 -0.2308 -0.0495
12010W        W27627   3.794   3.098  10.868  0.0081  0.0794 -0.2699
12011W        W27628   7.828   6.769   0.749  0.2467 -0.3333  0.0186
12012W        W27629   7.953   9.615   4.302 -0.0216  0.1660  0.1577
12013W        W27630   9.146  18.485  11.253  0.0547  0.2176  0.1043
12014W        W27631  11.865   4.965   2.266 -0.0453 -0.1077  0.0311
12015W        W27632   5.059  12.513   3.525  0.1278  0.3138 -0.2063
12016W        W27633   4.270  15.228   3.326  0.1327  0.1517  0.0668
12017W        W27634   2.426   1.445   0.306 -0.2799 -0.1401  0.0037
12018W        W27635   0.989   2.101   2.595  0.1063  0.3454 -0.1200
12019W        W27636   0.865  14.267  13.522 -0.0350 -0.0228 -0.0229
12020W        W27637   8.824  13.092   5.964 -0.0932  0.1608  0.1063
12021W        W27638   1.995  15.679   0.980 -0.1026 -0.2588 -0.0411
12022W        W27639  10.311   6.015   1.110 -0.2024 -0.0048  0.2549
12023W        W27640   8.331  12.762  11.019  0.4284 -0.0265 -0.0995
12024W        W27641   4.314  14.458  13.691  0.2663 -0.4599  0.1599
12025W        W27642   1.828  15.143  12.092 -0.1988 -0.1344 -0.0963
12026W        W27643  19.030   1.572   1.209  0.0426  0.0050 -0.0461
12027W        W27644   1.466   1.986  11.517 -0.0403 -0.0459  0.0532
12028W        W27645  14.716  16.703   4.263  0.0116 -0.0855 -0.0528
12029W        W27646   7.005   7.950   3.074  0.3855 -0.2281  0.1582
12030W        W27647   2.638   1.565   4.391  0.4317 -0.0133  0.0999
12031W        W27648  18.115  14.222   4.229  0.2122  0.2671 -0.0650
12032W        W27649   8.049   3.499  14.363 -0.0661  0.0965  0.1014
12033W        W27650   5.356   3.783  11.672 -0.0931  0.1873  0.1657
12034W        W27651   5.431  16.075   0.770 -0.1251 -0.0180  0.1492
12035W        W27652   8.617   1.280  12.593  0.1632 -0.1348  0.2006
12036W        W27653   5.766   9.882   0.627  0.2077 -0.2692 -0.0096
12037W        W27654  16.054  13.848   0.881 -0.0118 -0.0653 -0.0922
12038W        W27655  11.688  13.191   1.367  0.3547  0.4190  0.1477
12039W        W27656   8.176  16.745  14.820 -0.1270 -0.0379 -0.4397
12040W        W27657  12.741  14.161  11.290  0.0425 -0.2615 -0.1494
12041W        W27658  13.188   3.708  10.961  0.0479 -0.0504 -0.2013
12042W        W27659   0.169   6.267   0.874 -0.2515 -0.3969 -0.3610
12043W        W27660   1.758   0.026  14.126 -0.5558  0.1282 -0.2146
12044W        W27661   4.317   5.270   4.471 -0.0378  0.1572  0.0345
12045W        W27662  12.428   2.379   4.620  0.0826  0.3767 -0.0808
12046W        W27663   1.242  16.551   9.529  0.2315 -0.3890  0.3829
12047W        W27664   0.311  15.092   3.417  0.0377 -0.1479 -0.0893
12048W        W27665  12.717   0.888  11.843  0.2972  0.6422  0.0983
12049W        W27666   9.086   5.316   3.144 -0.0634  0.2172  0.3266
12050W        W27667  14.348  15.442   4.883  0.1249  0.1242  0.0710
12051W        W27668   0.382  16.831  14.015  0.2976  0.3346  0.0286
12052W        W27669   3.277  13.525   0.741 -0.1021  0.1890 -0.1406
12053W        W27670   8.599   2.431   1.178 -0.1821 -0.0317 -0.2565
12054W        W27671  13.522  18.391  11.789 -0.0423 -0.0171 -0.1332
12055W        W27672   2.616   3.096  15.007 -0.2229 -0.0642  0.0475
12056W        W27673  14.652   9.614   9.347  0.2199  0.2241  0.3966
12057W        W27674  17.597  14.641  12.090  0.1064  0.1965 -0.0626
12058W        W27675   5.566  16.796  13.535  0.1212  0.0060 -0.0003
12059W        W27676   4.531   4.030   2.288 -0.1047  0.2583 -0.3251
12060W        W27677  10.446   3.378  14.950  0.1302  0.2171 -0.0117
12061W        W27678   3.357   9.164  11.405 -0.0533 -0.1495  0.2698
12062W        W27679   2.333   5.265   0.567 -0.0168  0.0480  0.0261
12063W        W27680   8.726  13.106   4.347  0.2973  0.2922  0.0237
12064W        W27681   3.760  17.626   2.281 -0.0333 -0.1754 -0.5199
12065W        W27682   2.874  16.014   3.483  0.2966 -0.1322  0.4766
12066W        W27683  12.447  15.624   2.368  0.0001  0.0034  0.1570
12067W        W27684   8.228   3.671   2.310  0.0915  0.3459 -0.0338
12068W        W27685  10.789   9.313   2.562  0.2857 -0.0941  0.2363
12069W        W27686  13.746   3.527  14.025 -0.0689  0.0834 -0.0902
12070W        W27687   8.140   1.518  12.140  0.2098 -0.0871 -0.0160
12071W        W27688   3.130  15.255   0.125 -0.0583 -0.1056 -0.1110
12072W        W27689   2.870   1.864  12.763  0.0220  0.2378  0.1145
12073W        W27690  11.886   8.575  15.209  0.1866 -0.0131  0.1019
12074W        W27691  11.363  16.169   0.527  0.1321 -0.2257  0.0253
12075W        W27692   7.893  18.632   2.538 -0.1457 -0.3386  0.5070
12076W        W27693  13.647   3.615  13.475 -0.0320 -0.0156 -0.0348
12077W        W27694   2.054   4.171  14.290 -0.0163 -0.2206 -0.4967
12078W        W27695   8.055  11.593   0.128 -0.0715  0.3146  0.1905
12079W        W27696   2.825  16.204   2.588 -0.1097 -0.0745  0.0556
12080W        W27697  13.853  12.755   4.771  0.0620 -0.0369 -0.0151
12081W        W27698   5.039  14.815   2.714 -0.0950  0.0835  0.0491
12082W        W27699   1.197  14.713  11.532 -0.0029  0.0512  0.3208
12083W        W27700  14.460  13.396   1.172 -0.1160 -0.0121 -0.3294
12084W        W27701   6.020  12.025   1.195  0.0654  0.0129 -0.2163
12085W        W27702   3.301  10.897   4.007  0.3522 -0.0330 -0.1159
12086W        W27703   5.315  13.944   3.481 -0.0733 -0.1511  0.0798
12087W        W27704   2.677  12.376  11.184  0.0113 -0.2193 -0.3138
12088W        W27705  11.272   6.905  10.074 -0.0885  0.2056  0.1509
12089W        W27706  11.488   6.905  14.526 -0.0561 -0.3318 -0.0658
12090W        W27707   1.512   0.020   0.479 -0.0730  0.1789 -0.0636
12091W        W27708  18.767   1.589  11.296 -0.5706  0.4128 -0.4503
12092W        W27709   1.324   6.897   2.012 -0.4016  0.2327 -0.3209
12093W        W27710   8.906   8.763  14.084 -0.0013 -0.2649  0.0867
12094W        W27711   2.082   7.544   5.140 -0.0077 -0.0309  0.2466
12095W        W27712  18.857  12.344   0.736  0.0843 -0.1566  0.0182
12096W        W27713   3.961  16.613   3.105  0.0322  0.0788  0.0418
12097W        W27714  17.659  12.257   4.242  0.0894 -0.0422  0.0081
12098W        W27715   7.550  12.496  11.046 -0.0820 -0.0960  0.0352
12099W        W27716  16.161   5.351  10.743  0.3193  0.0472  0.3293
12100W        W27717   6.727   0.254  13.649 -0.0958  0.0261 -0.1317
12101W        W27718  18.545  12.226   0.348 -0.3118 -0.2717 -0.1052
12102W        W27719   3.362  11.547   1.739  0.2211 -0.3138 -0.0348
12103W        W27720   7.799  15.586   3.571  0.0443  0.0169  0.0684
12104W        W27721  12.307  10.449  10.237  0.2239 -0.3405  0.1412
12105W        W27722  11.826   8.803  11.091 -0.4735 -0.1728  0.0779
12106W        W27723  15.938  16.716   3.773  0.0588  0.1041 -0.1361
12107W        W27724  10.132  13.800   1.268  0.6046 -0.0817  0.2768
12108W        W27725  11.383  11.714  10.809  0.1205  0.4928  0.0382
12109W        W27726  13.511  14.325   2.066 -0.3581 -0.0845 -0.0763
12110W        W27727  18.712  13.846   3.642 -0.0779 -0.1213  0.2406
12111W        W27728   3.823   5.130   5.975 -0.1573 -0.0305 -0.1914
12112W        W27729  14.748   6.337  12.586  0.0765  0.0812  0.2249
12113W        W27730   7.825  11.440  13.376 -0.0458 -0.1595  0.2430
12114W        W27731   9.645  17.323  13.802 -0.0215  0.0606  0.1549
12115W        W27732   3.229   8.659   0.016  0.1179 -0.1737 -0.3210
12116W        W27733  13.508  12.666  11.267 -0.0060  0.0984  0.2565
12117W        W27734  15.139   9.159  13.362  0.0731 -0.0578  0.1455
12118W        W27735  15.032  16.651   1.507  0.2488 -0.0158 -0.0347
12119W        W27736  11.611   9.990   0.917 -0.1611  0.0372  0.0735
12120W        W27737  13.931   0.922  11.755 -0.0317 -0.0779  0.0844
12121W        W27738  18.891  13.709  14.606  0.0164  0.2670 -0.1986
12122W        W27739  14.357   7.016   4.848  0.1220 -0.1329  0.2829
12123W        W27740  14.030  12.975  11.815  0.0345  0.0285  0.0139
12124W        W27741   2.957   9.472   1.225 -0.0387  0.1425  0.2299
12125W        W27742   1.209   2.781  14.565  0.3710 -0.0076  0.0446
12126W        W27743   4.604  12.156  14.810 -0.1644  0.0509  0.2156
12127W        W27744   4.439   3.707   0.178 -0.1199  0.0227 -0.0574
12128W        W27745   9.277   8.836   3.000 -0.2195 -0.1516 -0.2641
12129W        W27746   6.542  10.058   2.805  0.0937  0.2959 -0.0522
12130W        W27747  13.418  15.657   3.822  0.0107  0.1102 -0.0332
12131W        W27748  15.418  13.661   2.256 -0.1254 -0.1067  0.0181
12132W        W27749   5.803   5.201   3.711  0.0226  0.0772  0.0543
12133W        W27750   3.531  15.769  11.289  0.1953 -0.2743 -0.0843
12134W        W27751   0.202  15.559   0.659  0.4885 -0.2316  0.2061
12135W        W27752   2.299  14.039  13.377  0.3976  0.2462 -0.0704
12136W        W27753   1.900   6.181  15.041 -0.3682 -0.0561 -0.0255
12137W        W27754   0.095  15.019  14.753  0.0912  0.0991  0.0940
12138W        W27755   0.598  14.397  11.658  0.3138  0.3742  0.2109
12139W        W27756  18.081   5.486   9.813 -0.0781 -0.1989 -0.1667
12140W        W27757   4.303   5.391   2.610  0.1547 -0.1455  0.0807
12141W        W27758  18.746   3.983   3.905 -0.2851 -0.3891 -0.4090
12142W        W27759   5.904  15.064   1.467 -0.0293 -0.2604  0.0481
12143W        W27760   0.896   2.672  11.966 -0.2326  0.1012  0.3099
12144W        W27761  16.569  10.834  15.083  0.2406  0.0337  0.1489
12145W        W27762   1.087   8.935  13.359  0.1174 -0.0377 -0.2502
12146W        W27763   3.206   7.821  13.029 -0.0024 -0.3883  0.3522
12147W        W27764  18.515   0.211   0.353  0.1903 -0.0561 -0.0653
12148W        W27765  10.821   6.422  11.287  0.0900 -0.3752  0.1301
12149W        W27766   8.883  15.238  14.706 -0.0128  0.0190  0.0541
12150W        W27767  17.908  16.359  12.718  0.1443 -0.2690 -0.0619
12151W        W27768   8.073  17.829  10.926  0.1043  0.1890 -0.0415
12152W        W27769  14.062   4.976  13.146  0.4041 -0.0034  0.2273
12153W        W27770  12.635   7.700   0.084  0.2201  0.1957  0.3700
12154W        W27771  10.218   3.462  13.633  0.0196 -0.2485 -0.0564
12155W        W27772   7.171   2.891  10.806 -0.1913  0.3404  0.1501
12156W        W27773   1.661  15.270   3.367  0.0793 -0.1994  0.1023
12157W        W27774   8.429  16.306  14.554 -0.0600 -0.2314 -0.2822
12158W        W27775  15.724  14.633  13.648 -0.4077  0.1711  0.2210
12159W        W27776   7.723  18.550   5.661  0.0648 -0.1756  0.1532
12160W        W27777   2.258   5.339  11.355  0.1466 -0.2329  0.1469
12161W        W27778   5.027   5.562  11.160  0.0644 -0.1653 -0.1410
12162W        W27779  18.418  10.345   2.134 -0.0401  0.0303 -0.1320
12163W        W27780  10.340   8.248   1.159  0.2904 -0.0465 -0.1443
12164W        W27781   6.648   8.238  10.019  0.1282 -0.1715  0.0806
12165W        W27782  16.184  10.947  12.122  0.0038 -0.3133  0.0331
12166W        W27783  12.701  13.494  10.718  0.4587  0.4452 -0.1588
12167W        W27784   0.870  12.508   2.455 -0.0297 -0.1354  0.1899
12168W        W27785   3.970   0.426  14.060  0.2000  0.0189  0.0197
12169W        W27786  12.042  15.800   1.930  0.3711  0.0669 -0.1735
12170W        W27787  17.483   5.402   9.693 -0.0948  0.1360 -0.1857
12171W        W27788   2.922   8.419   3.734 -0.1603  0.1588  0.0726
12172W        W27789   1.047   0.042  10.630 -0.1122 -0.0837  0.2876
12173W        W27790  15.353  10.359  11.307 -0.1249  0.0307  0.1022
12174W        W27791  18.044  17.722   2.139 -0.1558 -0.1416  0.0016
12175W        W27792   6.126   6.064  14.755 -0.0461 -0.1818 -0.2774
12176W        W27793   1.916  15.853  10.315 -0.0814  0.2405  0.1944
12177W        W27794   1.116  12.373   2.030 -0.0392  0.1727  0.2319
12178W        W27795  19.060  14.771   3.804  0.2190  0.2214 -0.0010
12179W        W27796   3.567   9.243  12.369  0.0064 -0.0623  0.2001
12180W        W27797   7.418  18.254   3.329 -0.1133  0.3050  0.0382
12181W        W27798   3.834  17.489  15.025  0.0452  0.0652  0.1477
12182W        W27799   1.063   9.671   2.627  0.2777  0.2939 -0.0551
12183W        W27800   0.662  18.098   0.607 -0.0686 -0.3991 -0.3036
12184W        W27801  17.439   3.052  15.118 -0.2236 -0.0587  0.1035
12185W        W27802   1.488  10.912   1.872 -0.2342  0.0737 -0.1069
12186W        W27803   8.725   0.166   2.742  0.0064  0.1018 -0.0154
12187W        W27804  14.316   4.802  14.390  0.1730 -0.0310 -0.4098
12188W        W27805   7.920   1.887   4.932  0.0687  0.1376  0.2326
12189W        W27806   7.953   7.850   2.606 -0.0688 -0.0418 -0.1479
12190W        W27807   0.661   9.144   1.013  0.5261  0.0302 -0.0627
12191W        W27808   2.683  12.165  10.742 -0.0173  0.3206 -0.2347
12192W        W27809  16.403  18.746  12.520 -0.1106  0.3469 -0.0593
12193W        W27810  17.426   9.153   1.997 -0.0088  0.2366 -0.0349
12194W        W27811  14.040   1.084   1.861  0.0004 -0.2378 -0.0040
12195W        W27812   4.045  18.054   0.981  0.1747 -0.1259 -0.2766
12196W        W27813  15.849   0.579  14.377  0.3269  0.1178  0.0080
12197W        W27814   4.548  14.801   4.684  0.4633 -0.1736  0.0777
12198W        W27815   5.767   4.203   5.073  0.0888 -0.1211  0.1478
12199W        W27816   9.150  14.518   6.438 -0.0643  0.1949  0.2848
12200W        W27817   6.743   5.510  13.068 -0.1689 -0.1639 -0.1582
12201W        W27818  11.044  11.504  10.217  0.1271 -0.1641  0.1816
12202W        W27819   2.343  15.994   3.109  0.0146 -0.2126 -0.0522
12203W        W27820   4.384  17.023  11.243 -0.0724  0.1021 -0.1006
12204W        W27821   6.376   3.186  12.077 -0.0035  0.1341  0.2629
12205W        W27822   4.742  12.144   2.285  0.1553 -0.1146  0.1491
12206W        W27823  18.665   1.189  12.216  0.0619 -0.2192 -0.0591
12207W        W27824   6.218   3.943   9.964 -0.1299 -0.2776 -0.0852
12208W        W27825   6.148   1.719  13.512  0.0962 -0.1516  0.1540
12209W        W27826   2.865  13.479   4.543 -0.0948 -0.0124 -0.2240
12210W        W27827   0.273  12.961   5.147  0.4302  0.0753 -0.1887
12211W        W27828   7.202  18.982  12.362  0.0930 -0.0259  0.0404
12212W        W27829  15.840   4.212   1.703 -0.2815 -0.0339 -0.3335
12213W        W27830   6.330   5.436   5.248 -0.0122 -0.3913 -0.1010
12214W        W27831  15.021   7.738   3.190 -0.0442  0.2108 -0.0208
12215W        W27832   7.034   4.953  12.547  0.1569  0.1918 -0.1140
12216W        W27833   3.318  10.040   4.362 -0.3060  0.1128 -0.0207
12217W        W27834   7.830   1.789   0.566 -0.0944 -0.0384 -0.2434
12218W        W27835  14.806  15.680  15.107  0.1255  0.1013 -0.1544
12219W        W27836   8.695  15.172   4.731  0.0075  0.0477 -0.1301
12220W        W27837   1.096   6.791  10.838 -0.0045  0.0986  0.0524
12221W        W27838   2.702   8.813  13.453 -0.3457 -0.2333  0.1290
12222W        W27839   6.168   9.682   2.773  0.1488  0.0814 -0.2667
12223W        W27840   2.504   8.715   1.457 -0.3376 -0.0492  0.4611
12224W        W27841   2.180   2.539  13.239  0.2544  0.0317  0.2508
12225W        W27842   1.241   8.277  14.444  0.1191 -0.1709  0.3616
12226W        W27843  16.471  17.281  12.215 -0.0850 -0.1598  0.2608
12227W        W27844   5.086   3.864   2.535  0.1954 -0.0872 -0.2492
12228W        W27845  15.584   6.209  11.873 -0.1217 -0.0934  0.0764
12229W        W27846  14.400  13.332   2.096 -0.0404 -0.2011 -0.0295
12230W        W27847   8.219  17.252   5.134 -0.0088 -0.0290 -0.0659
12231W        W27848   3.124   9.848   2.050  0.0076  0.0053  0.1722
12232W        W27849  15.603   2.401  12.365 -0.1180  0.2520  0.0008
12233W        W27850  18.313  13.207   3.254  0.0030  0.1106 -0.1303
12234W        W27851  11.792  16.497   2.693 -0.2055 -0.0294  0.0168
12235W        W27852  16.728  13.765  12.250 -0.0442 -0.1987  0.1226
12236W        W27853   4.951   1.077   1.528  0.1678 -0.0049  0.0750
12237W        W27854  11.181  15.808  15.166  0.0027  0.1995  0.1431
12238W        W27855   3.929   2.496  14.371  0.1243 -0.2630 -0.1245
12239W        W27856  16.717   7.572  13.988  0.2282 -0.1990 -0.1708
12240W        W27857   9.010  16.025   2.735 -0.1117 -0.1712  0.1839
12241W        W27858  15.398  18.267   3.116  0.3622 -0.0322 -0.3055
12242W        W27859  12.755   5.195  11.111  0.0076 -0.0253 -0.1595
12243W        W27860  18.213  18.819   4.653 -0.0605  0.0094 -0.0577
12244W        W27861   5.823   9.433   1.502 -0.0503  0.0879  0.0032
12245W        W27862   8.970   4.783  11.933  0.0264  0.1607  0.0553
12246W        W27863   4.370  10.006   4.080  0.0476  0.1173 -0.3190
12247W        W27864   1.709   7.947   1.270  0.2647 -0.2337 -0.2206
12248W        W27865  13.441  11.985  12.151 -0.0263 -0.2483  0.1816
12249W        W27866  17.880   8.752   1.253  0.1238 -0.1605  0.3839
12250W        W27867  13.876   5.525   4.334  0.3359  0.2137  0.1774
12251W        W27868   9.983   5.449  12.079  0.1700  0.0502 -0.2546
12252W        W27869   6.115   2.298  11.293 -0.0120  0.2627 -0.2454
12253W        W27870  15.276   2.600  11.137  0.3748 -0.3208 -0.0502
12254W        W27871  18.438   9.666   9.910 -0.0362  0.0025  0.0599
12255W        W27872  16.513   2.712  10.785  0.0402 -0.1301  0.1379
12256W        W27873  10.303   7.187   2.402 -0.2296 -0.2378 -0.0159
12257W        W27874  11.160   5.460  14.774 -0.0805 -0.1844  0.0501
12258W        W27875   7.096  11.113   2.858 -0.0810  0.3944  0.1163
12259W        W27876   1.123   4.087  14.540 -0.1238  0.0891  0.0394
12260W        W27877   4.750   0.934   0.013  0.2224  0.2832 -0.1037
12261W        W27878  11.894   5.241  13.423 -0.0929 -0.2301  0.0771
12262W        W27879  15.281   0.509  10.379  0.2932  0.2552  0.0787
12263W        W27880  16.681   4.441   2.042  0.3470 -0.0174 -0.0014
12264W        W27881  11.165   0.812   1.466 -0.1109  0.1596  0.0189
12265W        W27882  18.575   0.812  11.843 -0.0047  0.0465 -0.2657
12266W        W27883   3.253   9.968  12.806  0.1893  0.0969  0.0388
12267W        W27884   8.482   4.231  11.542 -0.1037 -0.0814 -0.1757
12268W        W27885   0.221   0.952   1.578 -0.0923 -0.0418  0.1023
12269W        W27886   2.233   3.483  11.452  0.1788 -0.2453 -0.1437
12270W        W27887  10.715   8.162  12.641 -0.0908 -0.3086 -0.0878
12271W        W27888   2.554  10.031  13.001  0.0011  0.2701  0.2298
12272W        W27889   0.356   5.672   3.287 -0.3621 -0.0235 -0.1577
12273W        W27890   1.409  11.812  13.574 -0.0390 -0.0945  0.1738
12274W        W27891  11.387  16.609   2.349 -0.1317 -0.0969  0.2334
12275W        W27892   9.700  17.310  15.018  0.2578  0.0745  0.1955
12276W        W27893   2.163   8.686   4.240 -0.0644 -0.0961 -0.1260
12277W        W27894  13.574  13.039   3.903 -0.0922 -0.0741  0.1962
12278W        W27895  13.637  10.401   4.621 -0.0116 -0.0123 -0.3431
12279W        W27896   5.318  15.346  12.354 -0.1576 -0.0674 -0.3008
12280W        W27897   1.469   2.770   3.654  0.2150 -0.3047 -0.0824
12281W        W27898   1.302  11.891   0.730  0.2810 -0.3176 -0.1892
12282W        W27899  13.518   9.899  12.174  0.0020 -0.0012  0.2481
12283W        W27900  13.900   3.760  13.078 -0.0554 -0.0579 -0.0889
12284W        W27901   7.378   1.448   1.223 -0.0496 -0.0082  0.0677
12285W        W27902   0.111   7.652   4.080  0.0964 -0.4015 -0.6911
12286W        W27903  17.704  16.204   4.013 -0.0350 -0.1496  0.3846
12287W        W27904   1.357  10.016  13.035  0.1604  0.2627 -0.0727
12288W        W27905  13.497   0.578   3.752 -0.1154 -0.1233  0.3089
12289W        W27906  11.887   5.203   0.205 -0.0248  0.1395  0.0438
12290W        W27907   1.974   8.946   2.755 -0.0817 -0.1048 -0.0120
12291W        W27908   1.405  12.360  12.724 -0.2034  0.0231  0.1830
12292W        W27909   7.938   4.930  10.060  0.2363  0.0468 -0.0700
12293W        W27910   0.842  12.636   4.561 -0.0161 -0.1187 -0.2066
12294W        W27911  11.192   1.641   4.507  0.2724 -0.1016 -0.1875
12295W        W27912   9.782  17.427   2.593  0.0425  0.0381 -0.1822
12296W        W27913  18.385   9.089   4.623  0.0756 -0.2145  0.2693
12297W        W27914  16.126   9.930   0.395  0.1176 -0.1448  0.0372
12298W        W27915  16.506  12.777   3.110  0.0737  0.1292 -0.2693
12299W        W27916   5.163  16.737  12.391 -0.2609  0.1610  0.2451
12300W        W27917  14.090   5.196  14.132 -0.3596 -0.0382 -0.0821
12301W        W27918   6.175   6.014  12.369 -0.1464 -0.1882  0.0061
12302W        W27919  17.163   2.128   2.248 -0.1629  0.0507 -0.1552
12303W        W27920  18.464   7.487  12.846  0.1204  0.0073  0.0051
12304W        W27921   0.096   0.697  10.480 -0.0089  0.3286 -0.2515
12305W        W27922   6.871  11.371  11.409  0.0155 -0.4336 -0.2811
12306W        W27923  12.731  13.005  10.781  0.1217  0.2308 -0.1819
12307W        W27924   6.635   8.477   3.189 -0.0756  0.4606 -0.1693
12308W        W27925   9.453   8.058  11.484  0.0642 -0.1878 -0.0960
12309W        W27926   9.865  13.601  11.750 -0.2422  0.1390  0.0311
12310W        W27927   0.535  18.379   0.149 -0.2599 -0.1052  0.2086
12311W        W27928  15.548  10.995   0.433 -0.0116  0.1594 -0.0239
12312W        W27929   8.480  15.950   2.052 -0.1346 -0.0303  0.1042
12313W        W27930  11.679   1.253  11.919  0.2565 -0.1899 -0.0227
12314W        W27931  13.351  13.264   0.209 -0.0052 -0.0148  0.0986
12315W        W27932   2.246  18.143  12.031  0.3142 -0.2146 -0.2106
12316W        W27933   3.240   3.374   3.212 -0.1669  0.0653 -0.2459
12317W        W27934   6.982  15.909  14.727  0.1118  0.1990 -0.1017
12318W        W27935   2.210   7.803  13.243 -0.2170  0.0988  0.1100
12319W        W27936   4.370   0.745  12.635  0.0200 -0.1051 -0.0128
12320W        W27937   3.067   5.818  13.158  0.3560  0.1189  0.1116
12321W        W27938   1.020  10.619  10.040  0.0699  0.1565 -0.4580
12322W        W27939   3.383   5.910  12.745 -0.4019  0.3144 -0.0835
12323W        W27940   8.227   4.611  14.333  0.0448  0.0620 -0.0156
12324W        W27941  10.095   4.930   3.597  0.4745  0.0473 -0.1973
12325W        W27942  15.418  11.298  11.907  0.0079  0.4303  0.0320
12326W        W27943  16.916  10.668   0.176  0.1831 -0.4546 -0.0883
12327W        W27944   9.305   8.776   0.365  0.2871 -0.1263  0.1379
12328W        W27945  11.745   9.141  10.215  0.0865  0.1416 -0.0971
12329W        W27946  13.406  12.882  10.775  0.1030 -0.1359 -0.0675
12330W        W27947   4.031   0.511  13.028 -0.1282  0.2419 -0.0802
12331W        W27948  10.699   6.109   1.834 -0.2171  0.1715 -0.3433
12332W        W27949   2.075  10.230   2.309  0.2545  0.3725  0.0642
12333W        W27950  14.998   4.219   3.002  0.0121 -0.2598 -0.2294
12334W        W27951   3.855   3.559   0.170 -0.1663 -0.1310 -0.1076
12335W        W27952  14.109   5.802   0.534 -0.1363 -0.0974 -0.0097
12336W        W27953  11.392   2.291   2.018 -0.1217 -0.2189 -0.1666
12337W        W27954   7.974  13.616   3.817 -0.1265  0.0048 -0.1619
12338W        W27955   0.641  14.337   2.827  0.0180 -0.0152  0.3538
12339W        W27956  12.113   1.934  14.249  0.0713  0.0270  0.1806
12340W        W27957   8.646   8.028   4.995 -0.1260  0.0210  0.1091
12341W        W27958  16.892  18.399   3.463 -0.4041  0.0857 -0.1806
12342W        W27959  13.266   0.709   1.257 -0.2858 -0.1785  0.2408
12343W        W27960  17.197  13.322   1.356 -0.3321  0.1955 -0.2968
12344W        W27961  14.149   1.288   2.634 -0.0723 -0.0762 -0.1969
12345W        W27962   7.136   5.837   5.664 -0.3581 -0.0535 -0.0406
12346W        W27963  11.201   0.975   4.513 -0.1361  0.0371 -0.4535
12347W        W27964  15.815   3.582   4.873 -0.0417  0.0700  0.0704
12348W        W27965  14.069   8.773   4.082 -0.0163 -0.0998  0.1750
12349W        W27966  18.296  17.488   1.000  0.3733 -0.0171  0.1806
12350W        W27967   5.601  16.041  12.138 -0.0436  0.0675 -0.0232
12351W        W27968   3.600   7.892  11.776 -0.1397 -0.0706  0.1713
12352W        W27969  18.813   9.778  14.469 -0.2820  0.2324  0.2441
12353W        W27970  16.425  10.858   9.984  0.2956  0.0085 -0.2265
12354W        W27971   1.052   1.890  11.276  0.0926 -0.2957 -0.0141
12355W        W27972  16.705  11.481  10.439  0.3098 -0.0817 -0.1128
12356W        W27973  12.314   4.447   0.381 -0.3834  0.1052 -0.1320
12357W        W27974   9.936  11.527   0.612 -0.4237  0.3001  0.0961
12358W        W27975   3.819   8.239  11.341 -0.1346 -0.3647 -0.0295
12359W        W27976  18.328   6.135   0.529  0.1067  0.5248 -0.2846
12360W        W27977   6.822   6.304  14.484 -0.0559 -0.1014  0.2494
12361W        W27978   1.658  10.450   1.982 -0.1417  0.1531 -0.1337
12362W        W27979  10.472  12.155   1.787 -0.1299  0.0781 -0.2475
12363W        W27980  14.577   9.465   1.967 -0.1301  0.1728 -0.2470
12364W        W27981  17.747  10.859  11.722 -0.4667 -0.1377  0.4347
12365W        W27982  12.378   7.377   4.486 -0.0512  0.4122 -0.0685
12366W        W27983  16.780   5.552   3.912  0.0335  0.0728 -0.1796
12367W        W27984  13.904  18.115  13.211 -0.0349 -0.1017 -0.0766
12368W        W27985   0.925   9.682  13.776 -0.0261 -0.2861 -0.0413
12369W        W27986  11.624  11.416   2.525  0.0230  0.1849  0.0039
12370W        W27987   0.486  18.223  13.521  0.0981 -0.3076  0.3176
12371W        W27988  10.900   0.027  10.969 -0.2388 -0.1454 -0.1164
12372W        W27989  17.791  18.911  13.879 -0.1326  0.1991 -0.3513
12373W        W27990   5.098  18.579   3.751  0.0468  0.0621 -0.0014
12374W        W27991  18.310   1.942   0.610  0.1405  0.1211 -0.0866
12375W        W27992  10.121   2.634  14.158 -0.2549 -0.0786  0.0308
12376W        W27993   2.838   2.146  14.798 -0.0527 -0.0873 -0.1434
12377W        W27994  14.099  11.848   5.270  0.3782  0.1062 -0.1460
12378W        W27995   7.346   2.153  14.087  0.0640 -0.0127 -0.1432
12379W        W27996  16.679   3.699  12.988  0.2124 -0.1397  0.2158
12380W        W27997   2.236   0.467   0.286 -0.1233  0.1510 -0.2828
12381W        W27998  10.158   6.609  13.048  0.1989 -0.2097  0.2828
12382W        W27999   4.283   0.456   3.252 -0.1678 -0.3400 -0.0413
12383W        W28000   5.918   1.745   2.149 -0.2273 -0.0141 -0.0172
12384W        W28001  17.116  10.604   4.433  0.1380  0.1379  0.2892
12385W        W28002   5.031   3.069  12.589 -0.1850  0.0239  0.2457
12386W        W28003  10.846  11.113   5.049 -0.0419  0.2570 -0.0851
12387W        W28004   3.190   3.445   0.901 -0.0207  0.2869  0.0945
12388W        W28005   3.120   1.254  14.803  0.1043 -0.0166  0.2566
12389W        W28006   1.431   8.125   2.033  0.3913  0.0843  0.3059
12390W        W28007  14.486   4.578  10.623 -0.0679  0.2506 -0.0111
12391W        W28008  15.066   2.901  10.790  0.1464 -0.1367  0.3107
12392W        W28009  12.511   3.241   5.728  0.0385  0.1401 -0.0684
12393W        W28010   0.996   4.492   3.149  0.4264 -0.2433 -0.0562
12394W        W28011   2.921   8.775  11.837  0.1294 -0.0718 -0.0038
12395W        W28012   0.136   1.778   2.560 -0.3079  0.2342  0.0175
12396W        W28013  10.202   1.893  11.826  0.2899  0.4626 -0.2359
12397W        W28014   9.033   0.942   2.768 -0.2481  0.0980  0.0019
12398W        W28015   3.970   3.974  11.484 -0.2422 -0.0473 -0.2474
12399W        W28016   1.264   1.694  13.028  0.0480 -0.2416 -0.0734
12400W        W28017  15.459   0.988  10.582 -0.2356 -0.1697  0.0628
12401W        W28018   0.498   0.128  12.856  0.2867  0.0617  0.1385
12402W        W28019   4.125   6.456   3.336 -0.2121 -0.0066 -0.1469
12403W        W28020  11.691  10.852   4.666 -0.0402  0.0671  0.0235
12404W        W28021  18.227  15.477   1.419  0.0298  0.5107 -0.0563
12405W        W28022  15.210  17.353   3.896 -0.2313 -0.0240  0.1303
12406W        W28023  16.212   1.521   0.844  0.0844 -0.5196 -0.0934
12407W        W28024   4.455   5.590  12.264  0.1261  0.1274  0.1200
12408W        W28025   6.274  13.920   3.048 -0.3830  0.0294  0.1060
12409W        W28026   6.106   4.021  14.544  0.1447  0.1127  0.1080
12410W        W28027   1.824  17.500  15.130 -0.4743  0.4599  0.0230
12411W        W28028  17.217   5.951   2.673 -0.1222  0.1543  0.1105
12412W        W28029  17.906  16.582  13.170  0.0924 -0.1431 -0.2068
12413W        W28030  15.541   6.038   1.801 -0.3596 -0.0312 -0.2311
12414W        W28031  13.458   7.731   9.784 -0.1779  0.2824 -0.4564
12415W        W28032   5.199   2.975   3.747 -0.1478 -0.2618  0.4070
12416W        W28033  13.943  15.987   2.692  0.1636  0.4600 -0.2714
12417W        W28034   9.360   6.351  14.005  0.1727 -0.0303 -0.3451
12418W        W28035   2.834  12.127  13.344  0.0215 -0.0457 -0.0942
12419W        W28036   0.035   2.876   3.514 -0.0387  0.1521  0.1442
12420W        W28037   3.629  13.154  12.684  0.0255  0.1847  0.0534
12421W        W28038  13.594  16.829  11.697 -0.2511  0.0105 -0.3362
12422W        W28039   2.421  16.031  13.208  0.0222  0.1092  0.3352
12423W        W28040   6.272   2.103   2.923 -0.0222 -0.1642  0.2007
12424W        W28041  14.323  18.383  12.201  0.4965 -0.0030 -0.0497
12425W        W28042  11.805   9.554  12.441 -0.1898 -0.2306 -0.0125
12426W        W28043   2.659  14.220   0.943  0.0388  0.2693  0.1911
12427W        W28044   3.533   3.871  12.318  0.0849  0.0274  0.2980
12428W        W28045   4.222   5.966   1.792 -0.0339 -0.1426 -0.1661
12429W        W28046   6.153   2.862  11.019  0.0068 -0.5284  0.1731
12430W        W28047  16.469  18.099   3.364 -0.4315  0.1522 -0.1548
12431W        W28048   1.107  14.661  12.994 -0.2161  0.1333 -0.2708
12432W        W28049  18.928   6.186   2.412  0.1466  0.0439 -0.1400
12433W        W28050   4.651  17.317   2.106  0.0884 -0.1107 -0.1596
12434W        W28051   6.102  11.176   3.856  0.1055 -0.3566  0.3721
12435W        W28052   4.276   7.416  14.844  0.1030 -0.1815  0.2328
12436W        W28053  10.787  17.791   4.324  0.0313  0.0028 -0.0675
12437W        W28054   9.218   1.484  12.648 -0.2260  0.1157 -0.1854
12438W        W28055  11.820   3.890  11.563  0.2320  0.0828  0.1494
12439W        W28056   0.301   2.965   3.958 -0.1630  0.0780 -0.1095
12440W        W28057   4.538   7.769  10.719  0.0499 -0.1360  0.0793
12441W        W28058  13.132   5.519  14.443  0.1715 -0.0359 -0.1539
12442W        W28059  19.079  18.176   1.950 -0.0738 -0.3628  0.1247
12443W        W28060   9.690   6.370   5.073 -0.2331 -0.4786 -0.3282
12444W        W28061   6.802   0.904   4.831 -0.0335  0.0208  0.3365
12445W        W28062  11.183  18.109   5.725 -0.2713 -0.3244  0.1674
12446W        W28063   6.920   7.791   2.415  0.3877 -0.0290  0.1030
12447W        W28064   3.728   4.614   4.735  0.1195  0.0237 -0.3033
12448W        W28065  11.081   3.004  13.489  0.1777  0.1679  0.0392
12449W        W28066  13.084  10.497  15.273  0.0573 -0.1671  0.2200
12450W        W28067   8.145   3.238   2.735  0.1316 -0.1625  0.1395
12451W        W28068   2.197   2.598  11.384  0.1973  0.1190  0.0707
12452W        W28069  10.943  12.191   1.615 -0.1609 -0.0904 -0.0241
12453W        W28070   1.846   2.261   2.423  0.2840 -0.0534 -0.2175
12454W        W28071   5.885  15.791  14.174 -0.0574 -0.0847  0.2571
12455W        W28072  14.728   1.011  13.075 -0.0021  0.0483  0.0223
12456W        W28073   0.092  18.362   4.588 -0.0077 -0.2263  0.0439
12457W        W28074  13.376   0.113   0.997 -0.2363 -0.3505 -0.0176
12458W        W28075   7.192   8.348  12.334 -0.0102 -0.0176  0.1877
12459W        W28076   7.786   0.786   3.915  0.3566 -0.3385 -0.0530
12460W        W28077   1.916  14.696  11.313  0.6050 -0.0118 -0.0064
12461W        W28078   5.506  16.800  14.351  0.0764 -0.2184  0.1819
12462W        W28079   4.639  16.284  11.871  0.4063  0.0342 -0.0472
12463W        W28080  13.636  14.447   4.608  0.1299  0.3898  0.1429
12464W        W28081   8.942   4.869   2.349 -0.1790  0.4874  0.0871
12465W        W28082  13.962   3.113   3.255 -0.1910 -0.0198 -0.0707
12466W        W28083   8.300   2.713  13.033 -0.1696 -0.0290  0.0501
12467W        W28084  15.074   0.538   2.589 -0.0214  0.1479  0.2921
12468W        W28085  17.189  11.087   4.488 -0.1633 -0.1451 -0.0258
12469W        W28086   4.496  14.315  10.625 -0.0233  0.0441  0.1593
12470W        W28087   3.235   0.403  11.307  0.1085  0.0012 -0.0847
12471W        W28088  11.158   1.186   1.813 -0.2493 -0.2493  0.1837
12472W        W28089  15.285  16.924   5.416  0.0103  0.1242 -0.0192
12473W        W28090  14.789  15.483   2.846 -0.5260  0.1371 -0.1327
12474W        W28091  11.389   2.073  13.128  0.0839 -0.0745 -0.0905
12475W        W28092  10.309   7.088   4.143  0.0854  0.0364 -0.1043
12476W        W28093   0.080   7.334  13.741 -0.2224 -0.0846 -0.1276
12477W        W28094  12.252   1.066   1.116  0.1356  0.1404  0.0183
12478W        W28095  14.014   2.324  15.186 -0.0382 -0.3159  0.0199
12479W        W28096   4.555  12.634   3.103 -0.1279 -0.0637  0.1153
12480W        W28097   2.074   2.723   5.257  0.0472  0.2902 -0.0478
12481W        W28098   9.608   3.623   4.458  0.1795  0.1076 -0.1667
12482W        W28099   3.056   9.021   1.288 -0.1672 -0.0575  0.0886
12483W        W28100  14.264   6.546   2.813  0.0083 -0.0571 -0.0849
12484W        W28101   6.185   7.775   1.969 -0.1531  0.2009 -0.1475
12485W        W28102  15.592  14.981  10.914  0.2715  0.1087  0.2526
12486W        W28103  14.135  16.265   1.391  0.0880  0.1253 -0.0726
12487W        W28104   1.872  12.535  14.334  0.1123  0.1608 -0.1579
12488W        W28105  11.078  15.661   3.638  0.0056  0.0328 -0.3065
12489W        W28106   5.961  18.806  12.163  0.4402  0.0531 -0.7103
12490W        W28107   0.714  15.525   4.195  0.1093 -0.0680  0.0276
12491W        W28108   6.758  16.935   1.991 -0.2823  0.2229 -0.0786
12492W        W28109   0.736   2.456   4.990  0.0059 -0.1295  0.0740
12493W        W28110  16.489  15.452  12.235 -0.0309 -0.0082 -0.1272
12494W        W28111  12.481  11.538  13.633 -0.1930 -0.0400  0.1082
12495W        W28112  17.252  13.986  10.660 -0.1308 -0.2599 -0.2002
12496W        W28113  12.958   7.867   2.822  0.1404 -0.3125  0.3063
12497W        W28114   3.250  15.178  10.598  0.0835  0.1371  0.1249
12498W        W28115   3.030   0.563   4.615  0.1408  0.0329  0.1313
12499W        W28116   2.742  10.602   1.627 -0.0870 -0.1785 -0.2733
12500W        W28117  18.109  18.605  11.079  0.0428  0.0919 -0.0645
12501W        W28118   8.158  14.190  12.831  0.1044  0.1953 -0.3888
12502W        W28119   5.830  12.046  11.534 -0.1723 -0.3404 -0.0035
12503W        W28120   3.954   6.163  12.126  0.0804  0.1833 -0.3212
12504W        W28121  14.684   9.526   3.635  0.2143 -0.0766 -0.1486
12505W        W28122   7.641  16.667   3.804  0.0041  0.2297 -0.3182
12506W        W28123  12.111   7.024  12.766 -0.3541 -0.6202  0.1147
12507W        W28124  15.991  11.255   2.596 -0.0360 -0.4021  0.0144
12508W        W28125  11.518   1.097  10.983  0.0532  0.4116  0.2787
12509W        W28126  13.473   4.564   3.480  0.3351 -0.1800 -0.0206
12510W        W28127  12.437   0.044  11.086  0.0686  0.1085  0.1247
12511W        W28128   3.030   8.899   0.425 -0.0416  0.0705  0.1795
12512W        W28129  18.350  18.789  11.499 -0.0783 -0.0343 -0.1493
12513W        W28130  10.480   3.965  14.889  0.1020 -0.2800 -0.0853
12514W        W28131   2.243   5.881   4.489  0.1529 -0.1940  0.0309
12515W        W28132   5.561  18.782   2.555 -0.0087  0.1964  0.1324
12516W        W28133  10.437   2.633  13.277  0.0619 -0.1314  0.0257
12517W        W28134  13.312  13.487   0.676  0.1696 -0.0359 -0.2388
12518W        W28135   0.447   2.117   2.813  0.6151  0.0619  0.0689
12519W        W28136  16.988  17.059  11.681 -0.2886  0.4327 -0.1630
12520W        W28137   8.452  15.568   4.484  0.4152 -0.0860 -0.0946
12521W        W28138   9.636   0.092   2.931 -0.2797  0.1094  0.1673
12522W        W28139  12.710   8.565  13.431  0.1983 -0.0968 -0.2352
12523W        W28140   8.658  17.397   0.008 -0.2864 -0.0002  0.2352
12524W        W28141   9.650   8.095   0.200  0.2758  0.1183  0.0625
12525W        W28142   6.499  10.474   5.412  0.1686 -0.0488  0.0131
12526W        W28143   8.500   8.186  11.492  0.1797  0.1649 -0.4151
12527W        W28144  10.480   7.425  12.557  0.0292 -0.2686 -0.0231
12528W        W28145  15.027   8.592  14.403 -0.1925  0.1498  0.1082
12529W        W28146   8.366   2.897   3.165 -0.1149 -0.1568  0.0136
12530W        W28147   8.375  12.231   3.618 -0.3141 -0.3566  0.0461
12531W        W28148   1.902   3.536   0.335 -0.0436  0.0851 -0.0157
12532W        W28149   2.882   2.662  11.795  0.2120  0.1054  0.4071
12533W        W28150   6.495   6.529  11.959 -0.1615  0.3151  0.3705
12534W        W28151  19.044  13.617   2.197 -0.1621 -0.1247  0.0861
12535W        W28152   8.867   8.708   4.909 -0.1071  0.1296  0.4059
12536W        W28153   7.830   4.368   1.056  0.1517 -0.1138  0.1627
12537W        W28154  12.388   2.454   1.046  0.4459  0.0288 -0.0625
12538W        W28155  11.110  15.646  12.558 -0.1306  0.0092  0.2161
12539W        W28156  17.535  11.566  12.507 -0.0253  0.2408 -0.4531
12540W        W28157   5.839  16.646   1.919  0.0885  0.3587  0.1535
12541W        W28158  16.993  15.034  10.691 -0.1081 -0.1861 -0.2573
12542W        W28159  18.064   6.279  10.461  0.0335  0.2057  0.3869
12543W        W28160   2.729  11.762  11.340 -0.0180  0.1282 -0.0010
12544W        W28161   3.476  18.662  13.082  0.1008 -0.1444 -0.0252
12545W        W28162  14.400   7.922   0.965 -0.3913 -0.0447  0.1312
12546W        W28163   9.458   0.662  13.049 -0.1250 -0.0694 -0.4898
12547W        W28164  15.522  12.450  12.207 -0.3225  0.2079 -0.2469
12548W        W28165   0.088  15.072  11.932  0.0625 -0.3030 -0.1151
12549W        W28166   3.798   2.252  10.926  0.3192  0.1116  0.2701
12550W        W28167   4.080  18.105  13.863  0.1812 -0.0967 -0.0175
12551W        W28168   1.346   9.870  15.077 -0.0527  0.0866  0.0388
12552W        W28169   2.864  18.463  15.229  0.2109  0.1365  0.0570
12553W        W28170   4.846   9.361  11.143 -0.0354 -0.2618  0.1739
12554W        W28171  16.613   7.028  11.873 -0.1895  0.2779 -0.1581
12555W        W28172   3.926   1.211  14.421  0.3249  0.0867 -0.2473
12556W        W28173  15.027  18.015   1.925 -0.2034 -0.1844  0.1879
12557W        W28174   1.946  16.629  11.028 -0.0718 -0.0338  0.0498
12558W        W28175   0.971  12.635  12.687  0.2558 -0.1905  0.1766
12559W        W28176   7.615   4.951   0.894  0.1325 -0.1117 -0.0335
12560W        W28177   2.325  16.301   2.560  0.0956  0.3937 -0.3243
12561W        W28178  11.579  12.358   2.616 -0.1535 -0.3077  0.0234
12562W        W28179   8.104  18.575   1.322 -0.0671  0.0212 -0.1571
12563W        W28180   7.223   6.322   1.909 -0.2354  0.0821  0.0040
12564W        W28181   8.664  12.108  14.437 -0.4352 -0.0573  0.1932
12565W        W28182  16.855   8.515  15.099 -0.1505  0.1657 -0.1730
12566W        W28183  17.678  13.793   1.559  0.2223  0.2598  0.1392
12567W        W28184  13.023  16.865  14.147 -0.2971 -0.1349  0.1011
12568W        W28185   2.367   3.121  12.393 -0.0894  0.0154 -0.0344
12569W        W28186  10.883  16.158   5.144  0.1304  0.0369  0.1818
12570W        W28187   7.271   1.707  12.408  0.0771 -0.2407 -0.1328
12571W        W28188  11.091   7.590  11.476  0.1267 -0.0313  0.2193
12572W        W28189   7.462   2.769  13.924 -0.0560  0.1922 -0.3080
12573W        W28190   0.528  18.374  12.872  0.0692  0.1878  0.2646
12574W        W28191  15.284  12.798  13.115 -0.0294 -0.0322  0.3254
12575W        W28192  18.267   1.291   0.978 -0.0878  0.0722 -0.2187
12576W        W28193   5.356   5.849  12.574 -0.1456 -0.1977  0.0716
12577W        W28194  17.906  11.844  13.250 -0.2663 -0.0745  0.1899
12578W        W28195   1.418   9.984   1.840  0.2327 -0.0272 -0.1001
12579W        W28196  17.650   2.924  13.757  0.0894  0.0552  0.0564
12580W        W28197  13.802  16.372  13.653 -0.2600  0.6579  0.2580
12581W        W28198  15.690   3.839  13.611 -0.0714  0.0823 -0.0300
12582W        W28199  16.698   3.028  11.135 -0.2571  0.3449 -0.1246
12583W        W28200   8.539  10.508   1.065  0.0529 -0.3179 -0.0632
12584W        W28201   7.896  15.749   4.071  0.0104  0.1931 -0.0840
12585W        W28202   4.292   1.937   3.999  0.1126  0.0553 -0.1187
12586W        W28203   4.763   4.831  11.568 -0.1750 -0.0070 -0.0625
12587W        W28204  17.666  17.353  10.161  0.1535  0.0468 -0.1128
12588W        W28205  12.012  11.196  12.935 -0.0258  0.1509 -0.1646
12589W        W28206  18.295  12.819   4.158  0.0496 -0.2477  0.0208
12590W        W28207   4.320  15.111   2.620  0.0491 -0.3799  0.1927
12591W        W28208  16.477  13.798  12.832  0.2182 -0.2806  0.0363
12592W        W28209   4.439  14.022  11.116 -0.1552  0.0190  0.2222
12593W        W28210  13.287   6.016   3.618 -0.2761  0.1790  0.1872
12594W        W28211  16.553   4.568   5.225  0.2108  0.3354 -0.1482
12595W        W28212   2.853  16.877   4.027 -0.0481  0.2803 -0.4444
12596W        W28213  16.279  16.991   1.187  0.0028  0.2092  0.2943
12597W        W28214   4.199   1.789   0.015  0.1901  0.3685  0.1040
12598W        W28215  12.314  18.836   2.236  0.2338 -0.2401  0.0158
12599W        W28216   1.782  16.192   1.610  0.3738  0.4001 -0.0486
12600W        W28217   6.460   8.086  12.507 -0.1055  0.2486 -0.1238
12601W        W28218  14.908   7.565  13.364  0.0515  0.2038  0.1430
12602W        W28219   1.354   5.308  12.889 -0.1801  0.2979 -0.1910
12603W        W28220  18.944   2.548  14.175  0.1731  0.0261 -0.2134
12604W        W28221   5.165   8.312   1.942 -0.0862  0.3106  0.2866
12605W        W28222   8.354  14.737  15.197  0.0235 -0.1633  0.1282
12606W        W28223  18.741   8.308   0.305  0.5112  0.3162  0.1959
12607W        W28224   1.791  13.665  13.131 -0.0175  0.1167  0.0060
12608W        W28225  11.312   1.512  14.553  0.1085  0.0706  0.0230
12609W        W28226  13.479   9.466   3.547  0.0971  0.1998  0.2415
12610W        W28227  18.601  16.331   2.420  0.3373 -0.1474 -0.1196
12611W        W28228  12.638   7.030   2.545  0.3040  0.1869  0.0887
12612W        W28229  11.228  13.191   2.984 -0.0436  0.4477 -0.0069
12613W        W28230   8.760  16.718   2.174  0.0501  0.2440 -0.2228
12614W        W28231  13.782  15.398   5.183 -0.0936 -0.0376 -0.2265
12615W        W28232   6.516   3.751  10.896 -0.4109  0.1001  0.2580
12616W        W28233  13.184   6.953   0.055  0.0018  0.3225  0.2732
12617W        W28234  17.118   1.431   2.544  0.4107 -0.0865 -0.0378
12618W        W28235  16.908   5.583  14.654  0.0238  0.0285  0.0641
12619W        W28236   8.773  18.257   1.637  0.0508  0.0852  0.1014
12620W        W28237  12.604  11.732   5.476  0.1135 -0.1713 -0.0459
12621W        W28238  17.615   0.367   9.676 -0.1265 -0.4525 -0.2909
12622W        W28239  18.163  18.485   3.857 -0.1932  0.1340  0.1119
12623W        W28240   7.437  16.491  14.397 -0.2522 -0.0866  0.3756
12624W        W28241   6.261  11.074   3.162  0.3211 -0.4772  0.3296
12625W        W28242  14.999   9.329   0.686 -0.3762  0.2712  0.0251
12626W        W28243   5.687   7.515   0.710  0.0213  0.1206  0.0326
12627W        W28244   6.934   7.970  13.173 -0.0636  0.2039 -0.3148
12628W        W28245   6.780   6.921   4.240  0.0492 -0.2859 -0.1349
12629W        W28246  10.492  14.038   0.892  0.0121  0.0346 -0.0951
12630W        W28247   5.124   9.495  13.681  0.0836 -0.0109  0.2383
12631W        W28248  14.820   6.962  12.966  0.4683  0.0287 -0.0055
12632W        W28249  16.708   7.178   2.059  0.0436 -0.2954  0.0535
12633W        W28250  17.465  14.811  15.284  0.0322 -0.1467 -0.1460
12634W        W28251   4.376   1.324   0.212  0.2605 -0.0948 -0.2074
12635W        W28252  16.741  11.557   0.274 -0.2537  0.0765 -0.2161
12636W        W28253  16.113   9.565   0.016  0.3526  0.3904 -0.2960
12637W        W28254   1.535  15.924  14.659  0.2418 -0.2132  0.1714
12638W        W28255   9.337  12.185  11.650  0.1491 -0.2022 -0.0463
12639W        W28256   5.537   3.549  14.957 -0.1008 -0.2403  0.1203
12640W        W28257  16.107   5.675   5.324  0.0750  0.1258 -0.0294
12641W        W28258  10.657  18.224  12.834  0.3466 -0.2734 -0.0066
12642W        W28259   6.664   5.803  10.853 -0.2454  0.0500  0.3588
12643W        W28260   0.792  12.645   0.316  0.0776 -0.2333 -0.0579
12644W        W28261  13.243  15.717   1.946  0.0881 -0.0079 -0.1062
12645W        W28262  13.254  14.490   2.677 -0.0207 -0.2117  0.5285
12646W        W28263  14.839  17.529  11.565  0.0218  0.0898 -0.0106
12647W        W28264   6.094   8.765   2.459 -0.0234 -0.1421 -0.0848
12648W        W28265   8.448  14.185  14.942  0.2376 -0.0788  0.1764
12649W        W28266   7.769  16.430  10.770 -0.2190 -0.4613  0.2272
12650W        W28267   4.296   1.112  13.459  0.1855 -0.3381 -0.3351
12651W        W28268  15.916  13.861  14.354  0.0621 -0.2059  0.1536
12652W        W28269   8.196  10.696  12.324 -0.0025 -0.1166 -0.2188
12653W        W28270   7.759  16.489   1.939  0.0069 -0.0095 -0.2646
12654W        W28271   8.526  12.085   9.889  0.2394  0.0470  0.0194
12655W        W28272  17.713  15.228  10.773  0.2219  0.2306 -0.1891
12656W        W28273  10.694   6.733  13.763 -0.2351 -0.3459 -0.0033
12657W        W28274   7.860   1.206   2.600  0.0597 -0.0936  0.1263
12658W        W28275   4.734   6.274  12.650  0.4251 -0.2810  0.1440
12659W        W28276   2.481   6.831  11.710  0.2571 -0.4245  0.3357
12660W        W28277   4.051  17.424   3.723  0.0843  0.2359  0.0728
12661W        W28278   2.634  13.379  10.602 -0.1578  0.1552  0.2247
12662W        W28279   9.577   5.630   2.874 -0.0757  0.1796  0.0946
12663W        W28280   8.460  10.765   3.931  0.1343 -0.0226  0.1421
12664W        W28281  12.934  16.562  10.060  0.0542  0.1171 -0.2106
12665W        W28282  11.197  17.032   3.768 -0.1920  0.0273 -0.4434
12666W        W28283  13.074   9.620  12.033 -0.0417  0.2301 -0.3913
12667W        W28284  12.707   7.580  10.386 -0.0104 -0.0255 -0.0537
12668W        W28285  17.160   1.125   0.662 -0.2221 -0.0654 -0.0791
12669W        W28286   1.571   4.143  14.838  0.0647  0.4169 -0.2795
12670W        W28287   6.284  13.024   1.424  0.0589 -0.0036 -0.1257
12671W        W28288  17.984   6.291   1.426  0.2323  0.0168  0.4308
12672W        W28289  12.955  13.291   3.240  0.0978  0.1936  0.1902
12673W        W28290   1.218  15.599   4.274 -0.1771  0.3903  0.0920
12674W        W28291  10.692  14.714   5.419 -0.1847  0.3993  0.0904
12675W        W28292  10.887  14.765   1.842  0.0246  0.1188 -0.2393
12676W        W28293   8.279   1.726  14.331 -0.0895  0.0601  0.0084
12677W        W28294  11.255   6.117  14.254 -0.2708  0.1746  0.0895
12678W        W28295   8.675   2.958   1.951 -0.0605 -0.1833 -0.1013
12679W        W28296   4.892   4.051  12.858  0.0117 -0.1415  0.1862
12680W        W28297  17.960   8.729  14.462 -0.1389 -0.3039  0.0127
12681W        W28298   5.189   1.339   0.462  0.0611  0.0404  0.1366
12682W        W28299  16.149   6.194  13.500  0.0211  0.0965 -0.4127
12683W        W28300   4.176   6.775   0.921 -0.0365  0.0595 -0.0661
12684W        W28301   5.261  12.266   1.986 -0.0053 -0.2183 -0.2757
12685W        W28302  18.055  13.543   4.817  0.0578  0.0849  0.1893
12686W        W28303  13.442   9.631   2.326 -0.2204  0.0509  0.3928
12687W        W28304   5.881   9.514  12.395  0.2682 -0.1517 -0.0388
12688W        W28305   2.872   1.866  11.667 -0.1936  0.2703  0.1888
12689W        W28306  14.008   3.589   2.803 -0.1059 -0.2420 -0.2270
12690W        W28307   0.947   2.093  14.189  0.2273  0.2506 -0.0129
12691W        W28308   4.259  12.950   4.925 -0.0479 -0.0609  0.0160
12692W        W28309   6.108   5.682  10.351  0.0525 -0.1115 -0.1784
12693W        W28310   0.357  18.682  14.450  0.1451  0.0272 -0.1754
12694W        W28311   5.411   6.855  14.301  0.1684  0.2524 -0.1223
12695W        W28312  18.174   5.055   5.874 -0.1157 -0.3625  0.1623
12696W        W28313   4.939  11.458  13.877 -0.4041 -0.1364 -0.2328
12697W        W28314   0.535  10.610   1.234  0.0230  0.1888 -0.0835
12698W        W28315   2.141   6.367   0.472 -0.1526  0.0815 -0.0627
12699W        W28316  11.563  17.487   2.534 -0.1812 -0.0637  0.1259
12700W        W28317  13.631  12.159  11.683  0.1637 -0.0308 -0.2227
12701W        W28318  14.423  16.785   2.685 -0.0614  0.1265 -0.1899
12702W        W28319  12.649   8.462  14.137  0.2322  0.0898 -0.2903
12703W        W28320   3.410   9.313   5.296 -0.1248  0.1749  0.0100
12704W        W28321  13.401  11.329   0.030 -0.4848  0.2132  0.0808
12705W        W28322   0.504   4.048  14.296 -0.2725  0.3148 -0.1228
12706W        W28323  15.680  11.935   3.355 -0.0385  0.0708 -0.0695
12707W        W28324  16.088   1.553   2.082 -0.0919 -0.1201  0.0276
12708W        W28325   6.660  18.238   1.240  0.0502  0.0622 -0.4662
12709W        W28326   8.845   0.160   1.902 -0.2929 -0.3975  0.0259
12710W        W28327  15.048   5.723   1.484  0.0496 -0.1440 -0.0530
12711W        W28328  16.476  18.288  11.182  0.1030 -0.3060  0.2483
12712W        W28329   2.295   5.811   1.531  0.1328 -0.0874 -0.0482
12713W        W28330   7.636   5.656  15.021 -0.1073  0.0719 -0.2390
12714W        W28331  11.490   5.198   2.477 -0.1480  0.0793 -0.0589
12715W        W28332  15.413   2.013  15.134 -0.3434 -0.0091 -0.2225
12716W        W28333   1.103   9.718  14.643  0.0215 -0.1914 -0.0031
12717W        W28334  17.251   2.988   1.125  0.0023  0.2402 -0.2379
12718W        W28335  10.354  13.443   4.271 -0.1415  0.2432 -0.4052
12719W        W28336  10.868   7.107  15.278  0.1639  0.2216 -0.1295
12720W        W28337   1.013  11.648  11.465 -0.3237  0.1377 -0.2018
12721W        W28338   3.345  18.657   5.383 -0.0569 -0.0109 -0.0743
12722W        W28339  17.905  18.984   1.019  0.1307  0.1825 -0.2003
12723W        W28340   3.486   6.205  12.375 -0.0789 -0.1619 -0.1774
12724W        W28341   2.791  10.218   0.578  0.1245 -0.1454 -0.3367
12725W        W28342  14.921  10.077  13.717 -0.1621 -0.0693 -0.2531
12726W        W28343   0.382  14.055   2.529  0.0066  0.0904  0.0705
12727W        W28344   5.980  14.599   0.587 -0.1505  0.0095  0.3571
12728W        W28345  15.964   5.548  12.199  0.0883 -0.0202 -0.0680
12729W        W28346   4.210  14.660   1.949  0.3606 -0.0654 -0.2616
12730W        W28347  13.883   9.421   3.914  0.1036  0.0875  0.2647
12731W        W28348  14.364   6.928  13.839  0.1199  0.1696  0.0688
12732W        W28349  15.790   4.702   1.436 -0.0993  0.1066  0.0680
12733W        W28350   0.901   0.490   2.572 -0.0109  0.1603  0.2100
12734W        W28351   4.291  14.796  14.032 -0.2910  0.1217 -0.0389
12735W        W28352  10.628   4.226  10.676 -0.0920 -0.2340 -0.0821
12736W        W28353   3.251  11.575   3.213  0.1480  0.1016  0.0521
12737W        W28354  18.191   0.362   1.434 -0.0559  0.1257 -0.0771
12738W        W28355   4.122  11.325   1.036  0.2180 -0.0008  0.4105
12739W        W28356   2.877  10.956   0.725 -0.1767  0.0920  0.0303
12740W        W28357   4.339   0.388  14.991  0.2034  0.2254  0.2241
12741W        W28358  12.498  15.288   4.068  0.0931  0.0429  0.1593
12742W        W28359   3.805  17.789  11.090 -0.1675  0.3036 -0.1699
12743W        W28360  10.132   5.246  13.407 -0.2735 -0.1311  0.3615
12744W        W28361  15.086   5.510   4.273  0.1434  0.0809 -0.2159
12745W        W28362  17.814   5.570   4.442 -0.0075  0.0142  0.0625
12746W        W28363   8.311   4.781  12.335  0.0283  0.0996  0.1265
12747W        W28364  13.061  15.270  11.973 -0.1049  0.1221 -0.0831
12748W        W28365   5.211   5.067  12.165  0.2091 -0.3357 -0.1433
12749W        W28366  11.038   7.896   4.546  0.0561 -0.1248  0.0596
12750W        W28367  16.895   7.923  14.425 -0.2954  0.2222  0.0387
12751W        W28368  15.691   2.460   0.976 -0.0768  0.0300  0.0853
12752W        W28369   7.920   8.938   2.652  0.0937 -0.2888 -0.2872
12753W        W28370  12.070   3.638  10.640 -0.0804 -0.0144  0.1558
12754W        W28371  18.628  14.506   2.970  0.1162  0.0160 -0.1520
12755W        W28372  18.930   5.236   2.008  0.0411  0.2408  0.4137
12756W        W28373   4.799  11.770  14.579  0.2185  0.1653 -0.2739
12757W        W28374   6.660   1.752   2.111 -0.0899 -0.0288  0.0354
12758W        W28375   8.004   2.371  12.122 -0.1465  0.1328  0.0115
12759W        W28376   0.744  10.553   2.185  0.1263  0.3087  0.0295
12760W        W28377   8.015   3.942   3.674  0.1730  0.2620 -0.0695
12761W        W28378  16.234  12.800   4.585 -0.1793 -0.2531 -0.0046
12762W        W28379   1.910   6.138  11.737 -0.2552 -0.1514 -0.2137
12763W        W28380  14.058  18.802  14.644 -0.2366  0.3441  0.0486
12764W        W28381  11.905   5.345   3.446  0.2737 -0.1971 -0.0796
12765W        W28382  19.029   9.787   4.464 -0.0461 -0.0320 -0.1659
12766W        W28383  18.710   1.301   2.403  0.1069  0.1544 -0.0152
12767W        W28384   3.254   9.257   0.250 -0.0351 -0.1485 -0.2050
12768W        W28385  12.010   2.761   1.386  0.0789  0.2126  0.0424
12769W        W28386   1.750   9.260  14.184 -0.2139 -0.2152 -0.0508
12770W        W28387   2.148  17.630  12.591 -0.2270 -0.3598 -0.0434
12771W        W28388   8.406  10.533  10.957 -0.0401 -0.1982 -0.0538
12772W        W28389  18.600   0.704   0.584  0.1805  0.1314 -0.1324
12773W        W28390   2.640   7.231  13.944  0.3575  0.0784  0.0907
12774W        W28391   1.770  17.633  14.252 -0.0987  0.0900 -0.2497
12775W        W28392  11.499   5.854  12.818 -0.1176  0.1299  0.2757
12776W        W28393   4.740   5.410   2.272 -0.2085  0.1043  0.2127
12777W        W28394  15.629  17.914   2.831 -0.0791 -0.0742 -0.0527
12778W        W28395   9.132  11.932  12.030 -0.1799  0.1845  0.1823
12779W        W28396  13.212   4.333   1.987 -0.0988 -0.5801 -0.2251
12780W        W28397   4.116  11.324   3.304  0.1268  0.1612  0.3668
12781W        W28398  11.030  10.401  12.223  0.5537 -0.1516  0.1941
12782W        W28399   2.325  11.955  12.586  0.1718  0.1402 -0.0342
12783W        W28400   3.427   4.704   2.876  0.1120 -0.2527 -0.0970
12784W        W28401  16.571  18.510  10.763 -0.2348 -0.1064 -0.0716
12785W        W28402  11.026  12.450   1.183  0.0429 -0.3446 -0.2092
12786W        W28403   6.443   0.745   0.186 -0.1322  0.0960 -0.1031
12787W        W28404  12.979  14.485  13.591  0.1346 -0.0736  0.0914
12788W        W28405   0.302  18.042  13.940  0.1414 -0.0645  0.3554
12789W        W28406  14.215  17.234   1.234  0.0585 -0.3237 -0.0934
12790W        W28407   1.357  14.673  14.829 -0.2359  0.1449 -0.4418
12791W        W28408   7.657  18.888   4.169  0.0516  0.1179  0.0797
12792W        W28409   1.976  17.844   4.227  0.3323 -0.0098  0.2065
12793W        W28410  18.293   2.257   2.505 -0.2616  0.2123 -0.1555
12794W        W28411  11.523   9.580   2.111  0.0722 -0.0689 -0.1733
12795W        W28412   4.155  10.264  12.598  0.0190  0.2425  0.0935
12796W        W28413   1.317   0.173   2.688  0.0692  0.3008 -0.0236
12797W        W28414  17.689   6.608  13.950 -0.1901 -0.0118  0.2356
12798W        W28415  11.852  18.483  11.289 -0.0985  0.2156 -0.1436
12799W        W28416  18.342  13.110  14.995 -0.0668  0.1841 -0.0550
12800W        W28417   4.854   8.435  15.186 -0.2572 -0.1437 -0.0460
12801W        W28418   8.676   7.424   4.018  0.0197 -0.0773 -0.0107
12802W        W28419  16.055   2.957  10.738 -0.1686  0.0922 -0.1746
12803W        W28420  17.396  10.129   0.311 -0.1221  0.2064  0.2021
12804W        W28421  12.547   3.068  12.639 -0.0221  0.0260 -0.3156
12805W        W28422   1.425   8.772  13.785  0.0275  0.1383 -0.2106
12806W        W28423  18.785  10.328   1.008  0.0655 -0.1397  0.3569
12807W        W28424  15.996  12.934   1.888  0.0054  0.1134 -0.0413
12808W        W28425  15.692  17.442   2.965 -0.0937  0.0087  0.0519
12809W        W28426  11.793  17.946   1.853  0.1616  0.0830 -0.2003
12810W        W28427   4.126  17.502  10.350 -0.3543 -0.0428  0.0482
12811W        W28428  18.554  17.108  11.983  0.1012  0.0857 -0.3180
12812W        W28429   2.512   4.833  11.930  0.1925 -0.0780 -0.3857
12813W        W28430  13.085  14.918   2.359  0.1439 -0.0641 -0.0533
12814W        W28431  12.687   3.803  13.872 -0.2776  0.0557 -0.2633
12815W        W28432   9.647  13.766  14.894 -0.3405  0.1213  0.1484
12816W        W28433   7.349   5.142  11.777  0.2255 -0.0457  0.3483
12817W        W28434  18.884   6.377   3.863 -0.0313  0.1295 -0.0575
12818W        W28435   0.128   7.617   4.633  0.0723 -0.0241 -0.1034
12819W        W28436   6.984   8.953  13.017  0.2023  0.0767 -0.1905
12820W        W28437  13.574  13.400   2.316 -0.3743 -0.1126  0.1752
12821W        W28438   0.707   2.389   3.118 -0.0093 -0.0442  0.1861
12822W        W28439   0.962   1.617   2.207  0.0608  0.0340 -0.2101
12823W        W28440   6.292  15.367  12.485 -0.0646  0.1329 -0.0666
12824W        W28441  16.977   7.530  12.497 -0.4649  0.4147  0.0338
12825W        W28442   8.219   4.598  13.817 -0.0139  0.0253  0.2523
12826W        W28443   1.358   9.157   1.357 -0.1600 -0.0299  0.0393
12827W        W28444  16.400  17.227   4.353 -0.1367  0.1618  0.1472
12828W        W28445  11.735  17.919  12.454 -0.0609  0.0809  0.0240
12829W        W28446  18.788  16.279   3.087  0.0693  0.3311 -0.4987
12830W        W28447  17.687  13.015  13.921  0.0693 -0.1705 -0.4993
12831W        W28448  12.674   7.679  14.195 -0.0357  0.0587  0.1087
12832W        W28449   9.889   1.215  13.635  0.0725 -0.0830  0.3785
12833W        W28450   0.426   1.374   1.285  0.1816 -0.1196 -0.1530
12834W        W28451   0.169  10.794  12.611  0.4664 -0.2599  0.3135
12835W        W28452  17.441  14.069   2.941  0.0520  0.3090  0.2524
12836W        W28453   5.395   2.649   4.334  0.2499  0.0981  0.2058
12837W        W28454  15.062  17.814  14.256  0.1427  0.0921 -0.1726
12838W        W28455   4.800   0.269   5.467 -0.0516  0.3110  0.2405
12839W        W28456  17.655  11.598   3.451  0.1029  0.0135 -0.0780
12840W        W28457  11.407   1.279   4.818  0.0700 -0.3763 -0.0899
12841W        W28458  19.061  16.132   4.537  0.0344  0.1692  0.4443
12842W        W28459  15.119  16.425   2.003  0.0180 -0.1224  0.0623
12843W        W28460   7.639  14.281   1.510 -0.2040  0.2030  0.1388
12844W        W28461   3.277  17.131   4.144  0.0683 -0.0036  0.0388
12845W        W28462   3.868   8.958   3.742 -0.2252  0.1339  0.4854
12846W        W28463  14.199   6.985   1.154  0.1791  0.4052 -0.1973
12847W        W28464   2.467  10.469  14.477  0.1388 -0.0252 -0.2122
12848W        W28465  17.660   2.572   1.873  0.0578 -0.0324 -0.0766
12849W        W28466  15.422  17.590   5.139 -0.0649 -0.0266  0.2331
12850W        W28467  14.215   2.948   3.831  0.1464  0.2408 -0.2877
12851W        W28468   8.072   0.801  11.633 -0.0223 -0.0489 -0.1186
12852W        W28469  10.747   9.202   3.969 -0.0293 -0.1116 -0.0457
12853W        W28470   8.575  18.431   0.783 -0.1899  0.1987 -0.0164
12854W        W28471   7.130  16.850   0.138 -0.0683 -0.0832 -0.0126
12855W        W28472  12.078  14.537   3.724 -0.0766  0.0341  0.1300
12856W        W28473   6.638   4.403   4.957  0.1592  0.0935 -0.2110
12857W        W28474  16.273  15.002   3.079 -0.2962  0.1833  0.2490
12858W        W28475   0.323  14.891   0.856  0.2300 -0.1578  0.3107
12859W        W28476  12.678   6.389  10.478  0.0255  0.1421 -0.0767
12860W        W28477  17.890   9.746   1.342 -0.4063 -0.0029 -0.0661
12861W        W28478   8.217   5.019   2.879 -0.3388  0.1072 -0.2763
12862W        W28479   6.512  10.945   2.329  0.0243 -0.2738 -0.1882
12863W        W28480  18.530  14.889  12.029 -0.1581 -0.1595 -0.2377
12864W        W28481  18.199  12.630   2.538 -0.0632 -0.0907  0.1418
12865W        W28482   3.638   5.784  13.858  0.2677  0.2420 -0.2227
12866W        W28483   6.349   6.104   3.931 -0.1458 -0.0894 -0.0688
12867W        W28484  10.350  11.540  12.924 -0.2221  0.1067  0.1106
12868W        W28485  12.606   5.547   1.756  0.0946  0.0397  0.1761
12869W        W28486   5.931   7.877  12.848  0.0912  0.0482  0.0888
12870W        W28487  14.834  13.149   2.386  0.2182  0.1148  0.2128
12871W        W28488  12.526  14.676   3.530 -0.0716 -0.4575 -0.2976
12872W        W28489  18.586   9.389   3.913 -0.4462 -0.1602 -0.1848
12873W        W28490   2.331   2.343  11.853 -0.2392  0.2720 -0.3475
12874W        W28491  18.894  17.666   2.726 -0.3767 -0.0347 -0.0941
12875W        W28492   3.671   8.429  12.559  0.0826 -0.3550 -0.1578
12876W        W28493  18.172   5.875  11.920 -0.0642  0.3075 -0.0351
12877W        W28494  15.074  15.197  11.164 -0.0326 -0.1921 -0.1260
12878W        W28495  12.962  12.310  11.394  0.0849  0.0996 -0.0117
12879W        W28496  18.335   4.492   2.108 -0.0435 -0.1182  0.2266
12880W        W28497  13.144   9.449  14.503 -0.1414 -0.1316 -0.0373
12881W        W28498   5.324  16.346  10.528  0.2664  0.1750  0.0218
12882W        W28499   8.963   8.546   3.389  0.0427 -0.1027 -0.2033
12883W        W28500   1.458  15.687  12.967  0.1976  0.0682  0.1781
12884W        W28501   3.812  12.734   3.986  0.0094  0.0741  0.0592
12885W        W28502  10.948  14.476   4.994 -0.1307  0.1678 -0.3558
12886W        W28503  10.241  15.953  14.261 -0.2344  0.1098  0.2881
12887W        W28504   1.749   4.069   0.448  0.0893 -0.0050  0.2266
12888W        W28505   1.430   7.967  11.110  0.0744 -0.3357  0.1174
12889W        W28506  17.478  10.589  13.916 -0.0033 -0.0932  0.2298
12890W        W28507  11.936  19.009   1.922 -0.1942 -0.1037  0.3888
12891W        W28508   0.488   9.060   2.758 -0.3871 -0.3949  0.0314
12892W        W28509   1.888  17.120   2.043 -0.0357 -0.2170  0.0805
12893W        W28510  13.156   2.244   2.649 -0.1047  0.2051  0.1007
12894W        W28511  11.693  14.245  14.144  0.1515  0.0369  0.1486
12895W        W28512   8.602   6.929   3.163  0.2398 -0.0893 -0.0409
12896W        W28513   3.366   0.064  12.789 -0.2090  0.2295  0.0503
12897W        W28514   5.288  14.034  14.869 -0.0432  0.0466 -0.4044
12898W        W28515  16.381  12.941  14.653 -0.0519  0.1471  0.1229
12899W        W28516  17.964   7.733   3.240 -0.2672  0.4011  0.1950
12900W        W28517   8.948  10.738   1.349  0.2659  0.4185  0.0308
12901W        W28518  17.714   8.975  14.785  0.0668  0.0729  0.0940
12902W        W28519  12.160   5.158   2.658 -0.0318 -0.2164 -0.0201
12903W        W28520  18.993   1.933   5.521 -0.2364 -0.1204  0.3627
12904W        W28521  17.289  10.610   0.508 -0.1603  0.0065 -0.2640
12905W        W28522  11.627  11.492   0.948  0.2603  0.0448 -0.0209
12906W        W28523  15.111   3.201  12.170 -0.0916  0.1222  0.0997
12907W        W28524   6.931   8.023  12.613  0.0366  0.3740  0.0367
12908W        W28525  14.204   8.277   1.289 -0.0112 -0.2613  0.0916
12909W        W28526   0.620  10.091   1.304  0.3539 -0.2353 -0.0940
12910W        W28527  11.625   7.437   5.120  0.1395  0.1887 -0.3056
12911W        W28528   6.887   0.646   1.521 -0.1393 -0.1800 -0.0770
12912W        W28529   7.666   7.651  12.501  0.2950  0.1496 -0.0689
12913W        W28530  11.329  15.301   2.537  0.0691 -0.0250  0.0970
12914W        W28531  11.142  13.951  11.634  0.2532 -0.0619  0.0512
12915W        W28532   6.696  18.578  14.437  0.1475  0.3031  0.0001
12916W        W28533  10.901  14.616  14.786 -0.0617  0.0235  0.1819
12917W        W28534   9.708   2.779  13.884 -0.1190  0.2294 -0.0578
12918W        W28535   0.982  14.442  12.508 -0.2931 -0.1700  0.1439
12919W        W28536   1.663   1.019  11.010 -0.0060  0.2127  0.0120
12920W        W28537  13.929  10.324   1.327  0.0202 -0.0780 -0.1307
12921W        W28538  13.188  16.791  10.449 -0.5062 -0.0485 -0.2242
12922W        W28539  13.049  13.809  10.293 -0.0193  0.2819 -0.3320
12923W        W28540   9.900   1.348  12.378  0.2471  0.0120 -0.0133
12924W        W28541   2.863  16.105  10.023  0.0958  0.0022  0.0325
12925W        W28542   7.868  18.429  11.539  0.3785  0.3168 -0.1131
12926W        W28543   2.352  16.264   0.626 -0.0210  0.1029 -0.4518
12927W        W28544   9.670  17.709  14.154  0.4815 -0.4905  0.2634
12928W        W28545  12.015  17.921  12.031  0.1166 -0.0097  0.0729
12929W        W28546  12.653   9.062  14.864 -0.1248  0.0667  0.1743
12930W        W28547   7.009   4.951  15.174 -0.0615 -0.1228 -0.0423
12931W        W28548   7.559  14.427  13.292  0.2541  0.1738 -0.2850
12932W        W28549   9.346  15.711  11.945 -0.0650  0.3194  0.0903
12933W        W28550  12.313  14.485   5.440  0.4357  0.1568 -0.0914
12934W        W28551  17.557   0.227  12.694 -0.5283  0.2545 -0.0797
12935W        W28552   2.209   1.837   0.073  0.0145  0.0201  0.1825
12936W        W28553  12.470  17.683  15.197  0.0383  0.0114  0.1864
12937W        W28554   5.093  12.124   2.663 -0.3512 -0.0537 -0.1152
12938W        W28555   0.872  17.833  11.206  0.1446  0.1891  0.3819
12939W        W28556  18.534  11.432   3.405  0.0970  0.2516 -0.1843
12940W        W28557   8.158  13.848   5.543  0.0077 -0.1925  0.1576
12941W        W28558   3.621  11.284   0.851 -0.4559 -0.1247  0.0420
12942W        W28559  15.483   9.862   4.140 -0.0092 -0.0741  0.5530
12943W        W28560  10.089  10.363   2.228  0.0988 -0.0498  0.0702
12944W        W28561   0.209  11.666  13.016 -0.0582 -0.1197 -0.0631
12945W        W28562  16.548   0.151  12.701 -0.2216  0.0925  0.1803
12946W        W28563   0.399   3.861  13.202 -0.0420 -0.4340  0.2058
12947W        W28564  16.471  18.516   2.993  0.1123  0.0936 -0.0696
12948W        W28565   6.701  16.904   4.861 -0.2632 -0.3297  0.0053
12949W        W28566   7.057  17.883  10.189 -0.0004 -0.1010  0.0266
12950W        W28567  17.115   9.793  13.520  0.0554 -0.0317 -0.1257
12951W        W28568  14.278   4.359   2.297 -0.4058 -0.0216  0.2805
12952W        W28569  10.215   9.351   0.510  0.3459 -0.1745 -0.0384
12953W        W28570  17.288   7.279   4.099  0.1102  0.0408 -0.0087
12954W        W28571   7.723   8.244   4.594  0.1722  0.2810  0.0698
12955W        W28572   8.679   5.211   2.703 -0.1654 -0.1186 -0.2687
12956W        W28573  12.588  18.872  12.890 -0.0121  0.1430  0.1442
12957W        W28574   5.892   1.875  14.396  0.0339  0.3256  0.0449
12958W        W28575  16.850   2.916   0.778 -0.4698 -0.1379 -0.1315
12959W        W28576   4.194   2.173  11.393 -0.2186 -0.1922  0.2714
12960W        W28577   1.779  12.798  11.061  0.0613  0.1088  0.1253
12961W        W28578  14.182   2.634   2.429  0.3387 -0.2975 -0.1471
12962W        W28579   8.679  10.305   3.941  0.1041 -0.0847  0.0768
12963W        W28580  14.182   5.672   9.757  0.4599  0.1260 -0.1776
12964W        W28581  11.514   7.164   4.431 -0.0450 -0.2490  0.1235
12965W        W28582  13.670  14.799  10.343 -0.0869  0.1044  0.2371
12966W        W28583  16.541   1.436   2.354  0.1715 -0.2837 -0.2114
12967W        W28584  18.397   0.854   3.540  0.0350  0.0623  0.0275
12968W        W28585   3.690  18.584   4.077  0.0503 -0.1969 -0.1802
12969W        W28586   7.229   2.187  12.560 -0.1347 -0.2638  0.1409
12970W        W28587  18.644  16.935  15.161 -0.2535  0.1952 -0.1641
12971W        W28588  11.408   7.767   2.830 -0.2523  0.2380 -0.0959
12972W        W28589  12.149  12.697   3.045  0.0757 -0.0206  0.2160
12973W        W28590  13.209   0.210   3.264  0.2929  0.2300 -0.1569
12974W        W28591   4.443  10.123   5.029  0.0850  0.1595  0.0684
12975W        W28592   1.283  13.434  15.200  0.0332 -0.0498  0.0763
12976W        W28593  12.869   5.385  14.820 -0.1310 -0.1156 -0.1592
12977W        W28594  10.489  11.574   5.788  0.1777  0.0670  0.2180
12978W        W28595  16.260   4.942   2.101 -0.1429 -0.0390  0.0127
12979W        W28596   4.189   3.793  11.945 -0.0578 -0.1302 -0.0235
12980W        W28597   8.356  14.683  12.276 -0.1306 -0.1753  0.0207
12981W        W28598  10.781   1.393  12.107  0.0381  0.0382 -0.1577
12982W        W28599   2.228   5.810   0.699 -0.5874  0.0110  0.2086
12983W        W28600  11.771   9.429  13.578  0.1043  0.2658  0.3648
12984W        W28601  12.235   5.264   2.166 -0.0741 -0.4854  0.0073
12985W        W28602  11.189  13.246  14.270  0.1193  0.2029  0.3019
12986W        W28603   5.242   7.612   2.600  0.1190 -0.3292 -0.1098
12987W        W28604  10.915  18.243   2.141 -0.2031 -0.2951 -0.0322
12988W        W28605  14.002   6.509  13.681  0.1745 -0.1624  0.0505
12989W        W28606  17.744   0.139  13.327 -0.1455 -0.3126 -0.0913
12990W        W28607  17.573   5.769  13.488  0.0573 -0.0388 -0.1277
12991W        W28608   5.531   0.497   5.692 -0.1156  0.0698 -0.0958
12992W        W28609  13.800  11.571   5.511  0.2317 -0.2246  0.0936
12993W        W28610  18.808   7.222   4.606 -0.2737  0.1846 -0.1686
12994W        W28611  12.939   1.786   3.461  0.0710 -0.0131 -0.3032
12995W        W28612   3.210  12.387  11.957  0.2634  0.3182  0.1826
12996W        W28613  15.699   4.500   2.469 -0.0190  0.0312 -0.2716
12997W        W28614   5.278  16.313  13.493 -0.0870  0.1256  0.2188
12998W        W28615  15.871  10.259   4.088  0.3500 -0.2931  0.1923
12999W        W28616   6.936   3.727  14.864  0.1060  0.0246  0.1316
13000W        W28617  17.047  15.490   4.603 -0.1216  0.5364 -0.3985
13001W        W28618   5.265  10.081  14.782 -0.2186 -0.0042  0.0559
13002W        W28619   2.558   6.285  11.556 -0.2276  0.2438  0.2497
13003W        W28620  12.912   5.585   0.378  0.0933 -0.1546  0.0163
13004W        W28621  16.587  10.621   3.428  0.1404 -0.0210 -0.0817
13005W        W28622   4.668   8.338  14.525  0.1067  0.2857  0.2890
13006W        W28623  12.488   2.162   3.421  0.2313 -0.2115 -0.2457
13007W        W28624  18.251  12.657  12.669 -0.1074 -0.1969 -0.2758
13008W        W28625  12.997   2.297  10.391 -0.2574 -0.0573  0.1200
13009W        W28626  14.882   3.606   2.349 -0.0124 -0.1540 -0.1934
13010W        W28627   1.665  15.918  12.530 -0.0551  0.1211 -0.1657
13011W        W28628  11.752  12.858  11.593  0.0246 -0.0558 -0.0112
13012W        W28629   3.194  15.776  12.955 -0.2306 -0.2208  0.2792
13013W        W28630   3.209  16.163   4.175 -0.0249 -0.4830 -0.4422
13014W        W28631   4.150  12.340   1.506  0.0631 -0.4663  0.1047
13015W        W28632   1.662   1.985  12.809  0.0527  0.0460 -0.0036
13016W        W28633  16.363   9.725   1.234 -0.1421 -0.1037 -0.0145
13017W        W28634  11.837   3.653  13.620 -0.1345  0.1185  0.0340
13018W        W28635  14.124  11.689  14.557  0.2915 -0.1157  0.2191
13019W        W28636   2.579   8.305  11.741 -0.0757 -0.0585  0.2313
13020W        W28637  12.914   4.404   5.697 -0.1794  0.3365  0.0882
13021W        W28638  14.910   4.372   1.897 -0.0271 -0.1817  0.2297
13022W        W28639   3.133  10.730   2.088 -0.1688  0.1173 -0.0430
13023W        W28640  14.657   2.944   0.197  0.1628  0.0022 -0.2667
13024W        W28641  12.103   5.542   3.013 -0.2592 -0.1925 -0.0748
13025W        W28642   0.840   4.080  13.894 -0.1029  0.1737 -0.3207
13026W        W28643  10.167   1.822   4.562 -0.0167  0.0858 -0.2418
13027W        W28644   7.247   1.667   4.088 -0.0607  0.1075  0.0367
13028W        W28645   6.615   6.067  11.689  0.2864  0.1925 -0.0062
13029W        W28646   9.496  10.213  10.702 -0.1405  0.1194  0.0931
13030W        W28647  13.075   7.162  10.569 -0.1864 -0.2035  0.1393
13031W        W28648   1.565  13.263   3.267 -0.1095  0.0192  0.2559
13032W        W28649  10.785  16.291   0.519 -0.5015 -0.1175  0.2328
13033W        W28650  11.993  14.797   5.685  0.4230  0.3120  0.0449
13034W        W28651   2.412   7.012   3.352 -0.0310  0.0198  0.0716
13035W        W28652  14.771  10.218  14.187 -0.0857 -0.0774 -0.1418
13036W        W28653  16.088   7.995   1.072 -0.1648  0.2548 -0.1554
13037W        W28654   7.745  16.165  14.219 -0.1037 -0.1880  0.3287
13038W        W28655  18.884   2.560   3.836  0.2259 -0.1360  0.1773
13039W        W28656  11.004  18.425  12.406  0.0377 -0.3489 -0.2313
13040W        W28657   7.549  16.638   2.868  0.1887 -0.1007 -0.1246
13041W        W28658  16.562  17.052   1.579 -0.1259 -0.0448 -0.0904
13042W        W28659  17.137  11.943  11.678 -0.0359 -0.2313  0.1605
13043W        W28660  11.188  14.080  14.970  0.0496  0.0656 -0.1074
13044W        W28661   0.201  17.402  12.712 -0.3097  0.0872 -0.2031
13045W        W28662   8.702   6.145   3.943 -0.1774 -0.4527 -0.1871
13046W        W28663   7.148  15.858   5.384  0.1594  0.2942  0.2698
13047W        W28664  16.410  12.428   5.334 -0.4487  0.1120  0.0472
13048W        W28665  14.219  16.268   1.891  0.0044 -0.1106  0.1493
13049W        W28666  17.742   3.656   4.805  0.0620 -0.0239 -0.0641
13050W        W28667  12.371  12.388  13.906 -0.0323  0.1449  0.0094
13051W        W28668   9.583  12.421  13.090  0.1953 -0.0827  0.1136
13052W        W28669   7.443  17.647  13.054  0.2003 -0.1162 -0.0070
13053W        W28670   6.752   7.029   4.719  0.2330 -0.0130  0.1477
13054W        W28671  10.653  12.686  11.954 -0.0383  0.2045  0.0099
13055W        W28672  16.175  17.736   1.091 -0.1356 -0.0717  0.1911
13056W        W28673  17.063   8.784   2.977  0.0832  0.0108  0.0520
13057W        W28674  15.794   9.982  13.903 -0.0081 -0.1072  0.2489
13058W        W28675  10.521  18.702   0.465 -0.2665  0.2274  0.1531
13059W        W28676   7.573   0.875   2.279 -0.1088 -0.0109 -0.0033
13060W        W28677   1.901   7.183  15.209 -0.0366 -0.2418  0.3987
13061W        W28678   5.301   7.599   4.464  0.1292  0.2335  0.0647
13062W        W28679   9.463   4.708   0.791  0.1151 -0.1147 -0.0338
13063W        W28680   7.575  11.142   2.850 -0.3070  0.1491 -0.0030
13064W        W28681  15.976  14.658   1.909  0.1319 -0.0816 -0.3250
13065W        W28682   3.540  16.599   5.364 -0.1140 -0.0302 -0.0912
13066W        W28683  10.901   5.999   1.379 -0.2663 -0.1098 -0.0432
13067W        W28684   1.234   3.554  11.916 -0.3270 -0.2291 -0.2603
13068W        W28685   1.298  12.947  14.866  0.0052  0.1391  0.0972
13069W        W28686   6.022   3.045   0.492 -0.3057 -0.1272  0.0348
13070W        W28687  10.420   5.522  11.776  0.2466  0.0044  0.1220
13071W        W28688   7.256  12.314   0.921 -0.2184 -0.2055  0.0700
13072W        W28689   1.218   2.153  12.872 -0.1071 -0.0178 -0.1359
13073W        W28690  14.158  12.312   2.294 -0.3859  0.1133 -0.2137
13074W        W28691   5.395   4.612   2.813 -0.1107 -0.1732  0.0260
13075W        W28692  13.787   0.445  11.161  0.1731 -0.0731  0.1015
13076W        W28693  15.920  18.946   5.140  0.0393  0.0020  0.0306
13077W        W28694  12.410   3.439   0.859 -0.4537 -0.0327  0.0630
13078W        W28695  10.366   4.921   9.815  0.2062 -0.1298  0.0049
13079W        W28696   9.177  13.630   0.746 -0.0812 -0.1568  0.1119
13080W        W28697  12.754  16.333  13.430 -0.1172 -0.0452  0.0601
13081W        W28698  12.687   2.363  10.839  0.2239  0.0186  0.3107
13082W        W28699   2.122   9.662  15.050 -0.0875  0.2210  0.2584
13083W        W28700  17.321   4.703   3.060  0.0363 -0.0031 -0.0960
13084W        W28701  17.507  13.356  14.470 -0.0063 -0.2570  0.1872
13085W        W28702  12.615   6.378   2.025  0.0687  0.0124  0.0475
13086W        W28703   7.367  14.514  14.339  0.0008  0.0694  0.0150
13087W        W28704   5.486   2.882  11.580  0.0716  0.0271  0.0187
13088W        W28705   9.860   4.336   3.087 -0.0816  0.1721 -0.1493
13089W        W28706  13.952   9.605   2.642  0.0435  0.2303  0.2731
13090W        W28707   5.745   6.118  12.909 -0.0358  0.1023 -0.3253
13091W        W28708  18.240  10.267   4.181  0.1593 -0.2123 -0.2230
13092W        W28709   7.480  18.516   3.776  0.4819  0.0117 -0.2166
13093W        W28710  11.820  11.452  12.571 -0.0554  0.0299  0.0577
13094W        W28711  11.774   1.166   1.237  0.2153  0.1126 -0.0843
13095W        W28712  10.352   3.669  12.029 -0.0206  0.0858  0.3133
13096W        W28713   3.857  11.982   1.954  0.2291 -0.2908 -0.2830
13097W        W28714  10.929  16.343   9.541 -0.3899 -0.2961  0.1396
13098W        W28715  16.355   6.651   0.963  0.0432  0.0029  0.0191
13099W        W28716   5.264  14.536  10.164  0.1769  0.2827  0.1446
13100W        W28717  13.193  12.734  14.200 -0.0647  0.1262 -0.1479
13101W        W28718   0.625  14.533  15.127  0.2729 -0.1051 -0.1431
13102W        W28719   4.876   1.686  12.976  0.0411  0.0237  0.0347
13103W        W28720  18.540   7.976  12.619 -0.1222 -0.0851  0.0874
13104W        W28721  16.882   6.302   1.707  0.6534  0.0545  0.1909
13105W        W28722   3.007  12.676   4.110  0.1202 -0.3651  0.0960
13106W        W28723   7.687   9.955   0.979  0.1152  0.1032 -0.0336
13107W        W28724  16.665  18.763  14.942 -0.2719 -0.0683 -0.0809
13108W        W28725  11.107  13.493   0.460  0.0424 -0.1667 -0.0042
13109W        W28726  16.907  18.067   2.408 -0.0479 -0.0966  0.0109
13110W        W28727  15.373  10.782  12.972  0.1443 -0.1703  0.0092
13111W        W28728   2.936  12.968  10.797 -0.0820  0.2272  0.1712
13112W        W28729   5.378   7.121  12.481  0.3333  0.3435 -0.0662
13113W        W28730  10.655   4.190   2.518 -0.0916 -0.0321  0.0341
13114W        W28731  11.514   7.953  11.806  0.1075  0.0677 -0.2492
13115W        W28732  12.774   7.043   0.978  0.3880 -0.1014  0.0262
13116W        W28733   2.746  16.284   4.150 -0.3220 -0.4449 -0.2259
13117W        W28734  11.609   9.995  10.516  0.0124 -0.1561  0.2302
13118W        W28735  11.281  14.832   5.178 -0.1377  0.3833  0.0392
13119W        W28736   4.105  12.838   0.853 -0.0355  0.1594  0.0708
13120W        W28737  10.037   7.495  13.403 -0.1876  0.0428  0.1624
13121W        W28738  14.241   9.653  10.961 -0.0798 -0.1307  0.1838
13122W        W28739  16.864  13.787  13.181  0.0695 -0.3851 -0.1081
13123W        W28740  10.560   8.342   0.073  0.0519 -0.2013 -0.0052
13124W        W28741  11.771   9.948  13.353 -0.1525  0.0470  0.0063
13125W        W28742  14.758  17.457   3.040 -0.1935  0.0053  0.0201
13126W        W28743   3.484   0.417   4.885  0.4818 -0.5097 -0.1931
13127W        W28744   3.578  14.196   2.767 -0.3650  0.3381 -0.2933
13128W        W28745   6.006  17.087  12.690  0.2798 -0.1146 -0.4327
13129W        W28746  10.923   9.530   5.237 -0.3010  0.0834 -0.1185
13130W        W28747   8.406  14.764   5.544  0.0026  0.2009 -0.3291
13131W        W28748  12.015   5.597  12.038  0.2827  0.2397 -0.0281
13132W        W28749   4.545   7.174   5.410 -0.1232 -0.1050  0.0506
13133W        W28750   0.147  11.362  10.604 -0.2487 -0.2577  0.1553
13134W        W28751  10.068   2.957   3.081  0.3678  0.0332 -0.0542
13135W        W28752  17.125  10.703   2.478 -0.0382 -0.0941 -0.0368
13136W        W28753   2.428   2.765   0.595 -0.1652  0.0323 -0.1683
13137W        W28754   4.661  13.208   5.128 -0.0131  0.1053  0.2096
13138W        W28755  10.050   6.321   1.359 -0.0261  0.0895 -0.0720
13139W        W28756   5.900   1.029  11.736 -0.1572  0.0080 -0.0989
13140W        W28757  16.276   9.792   3.279 -0.0809  0.1349  0.2427
13141W        W28758   9.031   6.544  11.455  0.0403 -0.0065 -0.0290
13142W        W28759  11.350   9.428   0.047  0.2284 -0.3865  0.0466
13143W        W28760  14.438  15.379   1.476 -0.2896 -0.1879  0.2028
13144W        W28761   1.626  15.014  13.404  0.0824 -0.0674  0.2760
13145W        W28762  16.924   3.256   2.916 -0.1624  0.3502 -0.1258
13146W        W28763   9.924  14.749   4.839  0.1458  0.3297 -0.0945
13147W        W28764   9.468  14.980   2.042 -0.0208 -0.2038  0.2136
13148W        W28765  18.992   4.177   4.747 -0.1265 -0.0826  0.3842
13149W        W28766  14.095  14.975   4.079  0.0304 -0.1534  0.1690
13150W        W28767  11.385   8.556  13.810  0.2313 -0.1010 -0.2526
13151W        W28768  12.488  13.817   5.143  0.0169 -0.3153 -0.0555
13152W        W28769   0.528   3.563  14.186 -0.1470  0.0141 -0.2554
13153W        W28770  13.738   4.603  11.873  0.0613 -0.0453  0.2313
13154W        W28771  17.805  17.595   0.024 -0.3020 -0.0461 -0.0011
13155W        W28772  17.802   7.123   4.260 -0.3096  0.0393 -0.0823
13156W        W28773   1.204   9.246  13.790  0.1208  0.1174  0.1377
13157W        W28774   9.275   1.564  13.127  0.3804  0.0355 -0.0239
13158W        W28775   6.508  11.900   0.430 -0.0800  0.1480 -0.2646
13159W        W28776   8.220  15.128   0.646  0.3467 -0.1921 -0.1094
13160W        W28777  10.064   9.905  13.072 -0.1729  0.0921 -0.1853
13161W        W28778   8.773   0.741   4.122 -0.1087  0.0530 -0.0625
13162W        W28779  18.223   2.139   4.960 -0.2631 -0.0903  0.0720
13163W        W28780   8.541  13.663   1.645  0.2522  0.0827  0.2636
13164W        W28781  12.103   8.307   5.610 -0.4671 -0.0752 -0.1192
13165W        W28782   1.209   2.434  11.598  0.4092  0.1160  0.1628
13166W        W28783  17.936  17.511   1.303 -0.0061 -0.3496 -0.3879
13167W        W28784   6.251   2.402   1.022  0.1436  0.2388 -0.1649
13168W        W28785   9.430   4.856  11.192 -0.3605 -0.3172 -0.2318
13169W        W28786   0.672   2.281  11.627  0.7144 -0.0670 -0.2852
13170W        W28787  14.481  16.755  11.175  0.0491  0.3426  0.0733
13171W        W28788  17.110  16.519  11.037  0.3247 -0.2235  0.0653
13172W        W28789   2.603  14.298   4.114 -0.2422 -0.0921  0.0997
13173W        W28790  10.941  13.103  14.678 -0.2360 -0.0062  0.1334
13174W        W28791  14.672  16.655  12.467  0.1605  0.1663 -0.0964
13175W        W28792  16.585   2.660   4.166 -0.2278 -0.0298  0.2475
13176W        W28793   3.448  17.989   2.371  0.1132  0.3699 -0.0647
13177W        W28794  15.351  17.548  10.932  0.0268 -0.2886  0.0597
13178W        W28795   4.820  10.442   2.730 -0.0706 -0.1062 -0.1661
13179W        W28796   8.949   9.859  13.023  0.1373  0.1420 -0.3249
13180W        W28797  12.197   4.468  10.987 -0.2088 -0.0469 -0.1169
13181W        W28798   2.859  16.958  13.500  0.0411 -0.3848  0.1032
13182W        W28799   2.201   1.892   3.332  0.0279  0.0569  0.2805
13183W        W28800   8.987  11.743   1.208  0.0511  0.0396 -0.2586
13184W        W28801   0.022  11.113   4.020  0.0666  0.0060  0.4719
13185W        W28802  15.062  18.755  11.703  0.0161 -0.0660  0.0486
13186W        W28803   0.136   0.029  14.931 -0.2535 -0.0426  0.1108
13187W        W28804   6.366  15.793   3.212  0.0325  0.0170 -0.2501
13188W        W28805  16.955   0.056   0.410  0.3916  0.1522 -0.0744
13189W        W28806  17.224   5.226  14.108 -0.2874 -0.0858  0.0466
13190W        W28807   5.755  10.722  12.703 -0.0253 -0.1321  0.1950
13191W        W28808   9.670  17.108   3.890 -0.1040 -0.0027 -0.0263
13192W        W28809  10.877   1.715   2.507 -0.0191 -0.1192  0.2289
13193W        W28810  15.402   1.531   4.620  0.0952  0.0617  0.1255
13194W        W28811   1.329  15.907  14.112  0.0118  0.0695  0.3240
13195W        W28812   0.954   3.636   4.766  0.0835 -0.3453  0.1425
13196W        W28813  16.297   8.658  14.369 -0.0620  0.0918 -0.3814
13197W        W28814  11.211   7.539  14.363 -0.0220 -0.2244  0.0080
13198W        W28815   2.863   1.351   1.307  0.2769 -0.1396 -0.0285
13199W        W28816  15.699   0.647  11.839  0.3529  0.1233  0.2412
13200W        W28817   5.161  11.500  13.120 -0.5773 -0.1324 -0.2407
13201W        W28818   2.341   2.407   0.138  0.1796 -0.1988  0.0215
13202W        W28819  13.373   8.613  13.738  0.0436  0.0463 -0.0638
13203W        W28820   2.590  17.506   0.862 -0.0366 -0.0263 -0.1791
13204W        W28821   8.809  11.107   3.737  0.1718  0.0700 -0.2602
13205W        W28822   1.663  18.639  13.314 -0.0906 -0.1704 -0.0126
13206W        W28823   4.242  17.037   3.475 -0.3300  0.0333  0.0216
13207W        W28824  12.202  10.150   2.782 -0.0828  0.4792  0.3605
13208W        W28825   4.342  14.669   1.443 -0.1788  0.2833 -0.0085
13209W        W28826   6.295   0.152   0.726  0.2688  0.1928 -0.0743
13210W        W28827   6.663   2.835  10.922  0.1672 -0.0504  0.4052
13211W        W28828   0.868  17.266   2.064 -0.2204  0.1082  0.0908
13212W        W28829  12.265   7.980   1.060 -0.0615  0.1277  0.0044
13213W        W28830  15.249  17.861   0.262  0.2945 -0.2046  0.4431
13214W        W28831   4.548   6.656   1.750  0.0081 -0.1196 -0.0069
13215W        W28832   5.229   1.529   3.264 -0.0623  0.1725 -0.1090
13216W        W28833  15.758   9.952  11.794 -0.1356 -0.0867 -0.1665
13217W        W28834  17.651   1.420   4.369  0.1853 -0.1098  0.0529
13218W        W28835   3.253  12.064   4.574 -0.1302  0.3252 -0.0075
13219W        W28836   9.752   9.526   0.781 -0.0558  0.3309  0.2971
13220W        W28837   9.670   1.418  11.018 -0.2215 -0.0689 -0.1712
13221W        W28838   2.101   7.449  12.551 -0.4907  0.1132 -0.1913
13222W        W28839  10.680  15.701  12.298 -0.3558 -0.0783  0.2959
13223W        W28840   7.781  16.742  11.678  0.2091  0.0971 -0.0573
13224W        W28841   8.766   7.916  14.065  0.2131  0.3052  0.0586
13225W        W28842   9.466   0.813   2.524 -0.2090  0.0979 -0.0381
13226W        W28843   3.524  12.790  13.434  0.2566 -0.2558  0.4188
13227W        W28844  12.121  10.788  14.240 -0.0847 -0.0344  0.1188
13228W        W28845   4.158   3.562   2.112 -0.1263  0.1209 -0.1572
13229W        W28846   3.931  15.937   0.073 -0.0530 -0.2052 -0.4153
13230W        W28847   9.026   4.279   2.062  0.1273 -0.1209  0.2057
13231W        W28848   0.459  12.976   0.946  0.0834 -0.2091 -0.0601
13232W        W28849  17.618   7.228   3.737 -0.1244 -0.2202  0.1502
13233W        W28850   7.220   6.286   3.543 -0.0277  0.0023 -0.2632
13234W        W28851   6.353  14.084  12.173  0.2055  0.1446  0.1828
13235W        W28852  12.918  18.361  12.932 -0.0492 -0.1702 -0.2572
13236W        W28853   3.415  14.133   2.022  0.1832 -0.0382 -0.0837
13237W        W28854  12.002   9.563   4.920 -0.1263  0.0027  0.1937
13238W        W28855   2.022   9.479   2.877  0.4295  0.1393  0.2956
13239W        W28856   5.416   8.167  10.701 -0.1903 -0.0931  0.0880
13240W        W28857   6.525   5.283   4.746  0.1280  0.2156  0.1798
13241W        W28858   2.603  16.971  13.074  0.1835 -0.1401 -0.3228
13242W        W28859  14.120  10.393   2.090  0.1549  0.1580  0.1964
13243W        W28860  15.191  17.819  11.847 -0.1685 -0.0019 -0.3298
13244W        W28861   3.271   0.036  14.743  0.0762 -0.2943 -0.1999
13245W        W28862  12.979  16.816  13.619  0.2778 -0.2995  0.0864
13246W        W28863   6.642  18.695   0.822 -0.0061 -0.0364 -0.0983
13247W        W28864   4.034   2.690   5.715  0.2018  0.0143 -0.1085
13248W        W28865   3.968  16.953  10.930  0.2389 -0.0993  0.1223
13249W        W28866  16.798  17.061   2.147  0.2169 -0.2468 -0.1348
13250W        W28867  11.703   6.894   4.070  0.3604 -0.1866  0.1857
13251W        W28868   8.755  10.507   1.780  0.2735  0.0699  0.1049
13252W        W28869  18.945   6.137  11.427 -0.0776  0.1539  0.1021
13253W        W28870   5.927  12.222   4.422  0.0350  0.4482  0.0974
13254W        W28871   0.078  18.452  12.658 -0.5488  0.1785 -0.1275
13255W        W28872  14.142   7.961   2.675  0.2484 -0.2897 -0.2233
13256W        W28873   8.156  12.150   4.850 -0.1785  0.0471 -0.0808
13257W        W28874   6.715   2.839   4.689 -0.1117  0.0455 -0.0451
13258W        W28875   7.935  18.505  12.498 -0.4331  0.0326  0.3868
13259W        W28876   1.191   1.033  14.961  0.0713 -0.5006  0.0993
13260W        W28877  13.926  17.409   3.809  0.1241 -0.3154 -0.3767
13261W        W28878   9.841  11.298   1.626 -0.2754 -0.0590  0.0726
13262W        W28879  16.382   8.873  13.657  0.0556  0.3038 -0.0704
13263W        W28880   7.498  11.277   1.335  0.2652 -0.0461 -0.1719
13264W        W28881   5.615  11.211   3.074  0.0351  0.0598  0.1867
13265W        W28882   1.441  11.193   3.300 -0.0997 -0.1180 -0.0961
13266W        W28883  18.001   5.426   1.200  0.0266 -0.0935 -0.0617
13267W        W28884   9.182   2.619   3.305  0.0361 -0.1255  0.2815
13268W        W28885  17.881  13.478  13.009  0.4581 -0.1205 -0.2703
13269W        W28886  12.909  13.210  11.652  0.0061  0.4140  0.1028
13270W        W28887  10.688  12.656   2.784 -0.1097  0.1057  0.0543
13271W        W28888  12.238   4.460   2.065 -0.2315  0.1875  0.2774
13272W        W28889  16.251   1.921  13.124  0.0272  0.0149 -0.0213
13273W        W28890   6.577  15.842  11.919 -0.1884  0.1605  0.1592
13274W        W28891   6.760  18.113  12.400 -0.0577  0.0104  0.1015
13275W        W28892   1.274  16.198   2.440  0.0897  0.0560  0.2117
13276W        W28893   1.277  10.513  13.979 -0.0024  0.1212  0.1333
13277W        W28894  16.176  15.044   4.247  0.2226 -0.0680 -0.1274
13278W        W28895  10.669   7.204   3.274  0.0412  0.0990  0.1226
13279W        W28896  19.033   4.565   4.447  0.3159 -0.3569  0.0067
13280W        W28897  14.097  11.825   2.365  0.0478  0.0461 -0.1036
13281W        W28898   7.552   2.411  11.754 -0.2687 -0.1570  0.2396
13282W        W28899   9.671  11.681  14.224 -0.1346 -0.3591  0.1942
13283W        W28900   3.528   6.773   4.417  0.0916 -0.0227  0.0766
13284W        W28901  13.179   7.130   1.371 -0.1343 -0.0188  0.0503
13285W        W28902   4.164   7.050   4.613 -0.1577  0.1657 -0.0478
13286W        W28903  17.777  10.139   5.976  0.0479 -0.2179 -0.2772
13287W        W28904   6.704  14.744   5.582 -0.0227  0.0040  0.0754
13288W        W28905  16.394  15.965  11.211  0.0445 -0.2749 -0.2686
13289W        W28906   3.139  14.751   4.102  0.1968  0.0466  0.1933
13290W        W28907   7.237   1.441  11.288  0.1275 -0.2111  0.3015
13291W        W28908   9.602  18.011  11.438 -0.0846 -0.0562 -0.1875
13292W        W28909   9.314   4.632  10.641 -0.0780  0.1590  0.2548
13293W        W28910   9.104  12.700   4.608  0.2249 -0.3404  0.2626
13294W        W28911  10.999   3.936   4.825 -0.2969  0.0931 -0.3845
13295W        W28912   0.364  12.805   0.014 -0.0206  0.1904  0.3535
13296W        W28913   7.575   3.626  11.750  0.1772  0.1125  0.2300
13297W        W28914  16.562   7.985   0.925  0.2055 -0.1002  0.3081
13298W        W28915   7.844  14.144   4.047  0.0446 -0.0155  0.0725
13299W        W28916   4.119   7.831   0.969  0.1646 -0.2608 -0.2782
13300W        W28917   1.211  16.987  12.202  0.0416  0.1655 -0.1682
13301W        W28918   4.668   8.206  14.026 -0.1148 -0.3615 -0.3286
13302W        W28919  14.599   9.706   2.589  0.3825 -0.1327 -0.1922
13303W        W28920  10.100   3.972  14.510  0.2777 -0.0640 -0.3033
13304W        W28921  10.274   3.182   4.490 -0.2186  0.2205  0.0200
13305W        W28922  13.428  17.926  14.452 -0.0929  0.5196  0.1385
13306W        W28923   8.730   0.930  14.406  0.1076  0.0665  0.0222
13307W        W28924  12.524   5.669   0.682 -0.0245  0.0689 -0.0159
13308W        W28925   5.659  17.133   0.993 -0.0676 -0.0658  0.2933
13309W        W28926   8.711  14.419   0.093  0.0161  0.0831 -0.1865
13310W        W28927   1.562  12.976  10.583  0.3381 -0.0525 -0.1876
13311W        W28928   3.835   6.474  12.608  0.1787 -0.1876 -0.1308
13312W        W28929  14.604   0.594  11.120 -0.1006  0.0160  0.0016
13313W        W28930  11.310   3.009   1.567  0.0560  0.0375 -0.1704
13314W        W28931   8.621   3.910   2.097 -0.1550 -0.2516  0.0449
13315W        W28932   8.386   9.687  14.314  0.1015 -0.2176 -0.0478
13316W        W28933  17.817   2.157   0.577 -0.2052  0.1970 -0.1105
13317W        W28934   3.996  11.823  11.930 -0.0242 -0.0993  0.0138
13318W        W28935   6.586  15.000  11.876  0.0312 -0.1582  0.1906
13319W        W28936  11.932   9.791   0.566  0.0148 -0.1229 -0.0016
13320W        W28937  12.241  12.090   4.681 -0.2253 -0.1600  0.0990
13321W        W28938   6.184  18.220   2.844 -0.1487 -0.1103 -0.1625
13322W        W28939   0.502  15.545   2.390  0.1277  0.1566  0.1222
13323W        W28940  15.338   6.313  12.404 -0.2887  0.1529 -0.0804
13324W        W28941  18.759   1.648  12.032 -0.1103 -0.1268  0.0182
13325W        W28942  13.381  12.622  12.553 -0.1689  0.2545  0.2899
13326W        W28943  11.791   3.497  14.063 -0.0990  0.0830 -0.0559
13327W        W28944   1.777   9.631  10.751  0.0063  0.3512 -0.0520
13328W        W28945  15.225   8.287   2.016  0.3287  0.0339  0.0438
13329W        W28946   2.887  15.209   4.177  0.1985  0.0036  0.0419
13330W        W28947   3.634   6.875  10.888  0.0244  0.0781 -0.0365
13331W        W28948   1.069  13.522  11.547  0.0171 -0.1434  0.2659
13332W        W28949   6.218  18.554   4.251 -0.1448  0.0087  0.0084
13333W        W28950  13.570   1.902   2.500  0.0958 -0.1335 -0.5101
13334W        W28951  18.267  10.437   4.681 -0.3627 -0.3866 -0.3575
13335W        W28952   0.032   5.377  13.551  0.0717 -0.0310  0.1785
13336W        W28953  18.440   1.343   3.416 -0.1519 -0.1152 -0.0707
13337W        W28954  17.157   2.828   2.986 -0.0261 -0.0519 -0.0420
13338W        W28955  10.102   8.823  14.555  0.0836  0.0041  0.1971
13339W        W28956   3.391  10.457  13.413  0.1762  0.4518 -0.3187
13340W        W28957  11.389   5.231   9.868  0.0894  0.1284  0.1850
13341W        W28958  13.218   3.105   3.616  0.0455  0.3537 -0.3390
13342W        W28959  16.247   4.512   1.793  0.0450 -0.2463  0.1473
13343W        W28960   0.107   8.448   3.355 -0.2978 -0.2063  0.0239
13344W        W28961   1.515   5.708  14.502  0.0168  0.0821 -0.1705
13345W        W28962  15.703  14.359   3.535 -0.2330  0.1682 -0.0873
13346W        W28963  15.459   3.542   3.371  0.4034 -0.1904  0.0311
13347W        W28964  11.840   6.718  12.415 -0.0746 -0.3873  0.0373
13348W        W28965   8.249   0.841   1.776 -0.0925 -0.2240 -0.0743
13349W        W28966  17.673   3.331   0.778 -0.1560 -0.1393 -0.0159
13350W        W28967  10.549   4.723  14.147 -0.2141 -0.0632 -0.0231
13351W        W28968  14.740  14.351  12.416 -0.3849  0.1139 -0.0448
13352W        W28969   0.219   8.250   5.314 -0.2324  0.0639  0.3691
13353W        W28970  10.985   3.893  15.057  0.2453  0.2240  0.0417
13354W        W28971  10.389  15.488  12.691  0.2787  0.0784 -0.1329
13355W        W28972  18.378  14.427   0.374 -0.2099  0.0560  0.1217
13356W        W28973   6.261  16.133  13.546  0.1193  0.0915 -0.0989
13357W        W28974   5.443  12.697   3.178  0.0282 -0.0902 -0.0139
13358W        W28975  14.754  13.641   5.496  0.2137 -0.1453  0.1000
13359W        W28976  18.932   4.556  14.769 -0.0278 -0.1092  0.0695
13360W        W28977   8.407   5.722   2.246 -0.1524 -0.1451  0.1369
13361W        W28978   9.600   1.652   3.224  0.3722 -0.2981  0.3923
13362W        W28979  10.155  11.088  11.078  0.0957  0.2010 -0.2683
13363W        W28980  12.218  17.337   0.402  0.1051 -0.0135 -0.1471
13364W        W28981  16.598  16.022  14.679  0.5115  0.2314 -0.0119
13365W        W28982  17.635  10.760   9.389 -0.0433  0.1425 -0.1328
13366W        W28983   0.493  18.116   2.600 -0.2869  0.3418 -0.0603
13367W        W28984  10.047   6.724   0.505  0.1292  0.4066  0.0843
13368W        W28985  17.204  16.714   3.830  0.1520  0.1456 -0.1215
13369W        W28986   6.924  18.774   1.250  0.3849 -0.1545 -0.0429
13370W        W28987   1.954   7.579  11.497 -0.2309  0.2814  0.2549
13371W        W28988  15.408  11.805  12.502  0.0900  0.1187 -0.2433
13372W        W28989  12.595  10.076   9.652  0.0589 -0.2058  0.3744
13373W        W28990   9.402  11.448  11.158  0.0124 -0.1988  0.0459
13374W        W28991  14.384  12.994   5.669 -0.1746  0.1725  0.3070
13375W        W28992  12.009   1.320   1.720  0.1938  0.1241  0.2322
13376W        W28993  15.926   5.821  11.715  0.2849 -0.1274 -0.1883
13377W        W28994   2.994   5.579  14.600 -0.0477 -0.2508  0.0103
13378W        W28995  14.000   8.214  12.955 -0.3640  0.1421 -0.1302
13379W        W28996  10.247  12.743  14.280  0.0810  0.2014 -0.3514
13380W        W28997  17.797  18.724  10.440  0.0669 -0.2970 -0.2029
13381W        W28998  17.857   6.187   2.839  0.0364  0.2410  0.1373
13382W        W28999  12.902  16.510   1.991  0.0515  0.1781 -0.4033
13383W        W29000   3.602   1.211   3.966 -0.2142 -0.2647  0.0793
13384W        W29001  10.900   4.703  12.418 -0.2203  0.1304  0.1468
13385W        W29002  13.297   0.859  14.766  0.1972  0.0354  0.2383
13386W        W29003   4.399  13.591  12.165 -0.0565 -0.3552 -0.4587
13387W        W29004  16.804   0.511   0.168 -0.0302  0.0634 -0.0219
13388W        W29005   8.218   2.373  13.416  0.1363 -0.2152 -0.0714
13389W        W29006   5.208   8.353   0.451  0.0366 -0.0155  0.4413
13390W        W29007   1.370   4.348   4.285 -0.0179  0.1865 -0.1029
13391W        W29008   0.289   9.594   3.595  0.0994 -0.0726  0.0059
13392W        W29009  16.117  14.384   4.883 -0.4114  0.2775 -0.1838
13393W        W29010  12.964   0.997   1.907 -0.0720  0.0949  0.2793
13394W        W29011   5.774  18.479   4.535  0.1489  0.0628  0.0606
13395W        W29012  12.403  15.777  14.791  0.2518 -0.2134  0.0065
13396W        W29013  15.348  11.867   0.465 -0.0373 -0.1291  0.4236
13397W        W29014   9.510   1.313  11.600  0.1426  0.2406  0.2891
13398W        W29015  18.323   6.425   0.091 -0.1001  0.0626 -0.0343
13399W        W29016  17.442  12.297   1.301  0.0696 -0.2447  0.0516
13400W        W29017   1.199  13.492  12.017  0.3629 -0.0681  0.1328
13401W        W29018   1.108   7.106  12.672  0.0310  0.0767 -0.0896
13402W        W29019  13.342  17.224  11.761 -0.0594 -0.3421 -0.1429
13403W        W29020   3.161   9.063  13.726  0.1950 -0.0198  0.3683
13404W        W29021   4.701  10.817  12.277  0.3930 -0.2002 -0.1745
13405W        W29022  14.973  16.347   0.272 -0.1523  0.1455  0.0845
13406W        W29023  13.149  18.349   0.451  0.0603 -0.0222 -0.0587
13407W        W29024  11.251   1.681   2.761  0.1542  0.1360 -0.1497
13408W        W29025  14.110  17.558  11.883  0.1339  0.1133 -0.0859
13409W        W29026  11.168  10.601   2.906  0.2526 -0.0296 -0.0811
13410W        W29027  18.628   3.640   2.691  0.0955  0.3855 -0.1076
13411W        W29028   5.221  18.371  13.291  0.0625 -0.0835  0.1134
13412W        W29029   3.441   5.204   1.174 -0.0764 -0.1598 -0.1013
13413W        W29030  14.358   3.981  14.709  0.0315  0.0019 -0.3092
13414W        W29031   7.055   3.355  15.144  0.3761 -0.1478  0.2839
13415W        W29032  15.277  18.265  14.438 -0.1647  0.2040 -0.1040
13416W        W29033   6.752   2.428   5.574  0.0770  0.1974  0.0752
13417W        W29034  14.832   1.070  10.453 -0.3717  0.0403  0.0049
13418W        W29035  18.201   2.894   1.258 -0.3541  0.1619  0.3603
13419W        W29036   3.577  10.576  15.164  0.0922  0.3009  0.1417
13420W        W29037  11.783   3.579   3.858 -0.0278 -0.1391  0.1921
13421W        W29038  13.226   3.689  14.552 -0.3553  0.0284  0.2127
13422W        W29039  13.736   2.464   0.278 -0.0635 -0.1694  0.0618
13423W        W29040   4.294   6.334   1.445 -0.1905  0.1889  0.1846
13424W        W29041  11.321  10.221  11.681 -0.1923 -0.1099  0.4208
13425W        W29042  13.575   9.612  10.243 -0.3078 -0.2870  0.0420
13426W        W29043   2.037   7.473   4.292 -0.4685  0.1045 -0.0587
13427W        W29044   1.813   8.242  15.116 -0.0950 -0.1057 -0.0048
13428W        W29045  13.499  15.256   4.219 -0.0557 -0.0118 -0.3457
13429W        W29046   9.747  15.431  12.290  0.0329  0.2696 -0.0742
13430W        W29047   6.326   8.793  12.846 -0.0032  0.1044  0.2139
13431W        W29048  15.083   9.380  11.741  0.3842 -0.1504  0.0626
13432W        W29049   4.037  13.803   1.960 -0.1677 -0.1379 -0.0484
13433W        W29050   3.383   8.928  11.809 -0.3516  0.1552  0.0651
13434W        W29051   1.061  11.055   2.791 -0.0460  0.2426 -0.1854
13435W        W29052   1.175  17.917  10.809  0.2299  0.0711 -0.1453
13436W        W29053   2.676  16.696   2.441  0.1393  0.1633 -0.0486
13437W        W29054  15.732  16.443  12.649 -0.0013 -0.1657 -0.3327
13438W        W29055  11.206  17.196   0.255 -0.2045  0.0704 -0.1000
13439W        W29056   5.539   3.390   1.958  0.3678  0.3193  0.0713
13440W        W29057  15.042  14.040   2.182 -0.0838  0.0546 -0.2035
13441W        W29058   4.202   3.903   4.149  0.2622 -0.1031 -0.1467
13442W        W29059   8.871   8.018  12.548  0.0200 -0.0737  0.1143
13443W        W29060   5.107   0.690  14.566  0.1490  0.0048  0.0172
13444W        W29061  10.592   0.656   4.002 -0.2840  0.0210 -0.1742
13445W        W29062   1.764  13.517  12.178 -0.1628  0.1659 -0.0634
13446W        W29063  17.848  16.689  11.564  0.0587 -0.0593 -0.1665
13447W        W29064   1.179  10.903   1.356  0.0535 -0.5249  0.0011
13448W        W29065   0.896   7.690  10.538  0.0082 -0.0447 -0.2300
13449W        W29066  16.333   2.584   1.906  0.1868 -0.0200 -0.1252
13450W        W29067   7.618  16.002   0.225  0.0726  0.2124  0.2498
13451W        W29068  11.211   1.795   4.948  0.2960  0.1506  0.3441
13452W        W29069  16.106  14.925   4.752 -0.0407 -0.2194  0.1677
13453W        W29070  10.138  11.424   3.334  0.3623  0.1326 -0.1162
13454W        W29071  17.429   9.800   3.848 -0.0387  0.0100 -0.3684
13455W        W29072   6.077   7.149  13.598  0.0599  0.4621  0.0322
13456W        W29073   1.560   3.673   1.574  0.0499  0.1980 -0.2315
13457W        W29074  12.682   3.407   2.378  0.1784  0.0866 -0.1354
13458W        W29075   0.383   8.779   2.370  0.1356  0.0186  0.0569
13459W        W29076   2.026   3.641   5.295  0.0992  0.1752  0.0085
13460W        W29077  15.779   2.902   2.998 -0.1052  0.0990 -0.1457
13461W        W29078  15.133  16.560  14.486  0.0977  0.0000 -0.1763
13462W        W29079   8.178  13.671  14.489 -0.2194 -0.2541  0.3035
13463W        W29080   5.582  11.191   4.316 -0.0169  0.0678  0.1323
13464W        W29081   8.268  18.278   0.374 -0.2294  0.1125  0.1917
13465W        W29082  11.337   9.463  13.389 -0.1227  0.1044 -0.0062
13466W        W29083  15.842   0.733   4.061 -0.0139  0.4854  0.1068
13467W        W29084   7.101   5.942  11.698 -0.2312 -0.2767 -0.2562
13468W        W29085  10.369  11.942  12.648 -0.1087  0.0443 -0.2892
13469W        W29086  15.963   2.388   4.783  0.2574  0.2559  0.2439
13470W        W29087  18.270   5.413  13.312  0.1024 -0.2051  0.0708
13471W        W29088  10.492   6.773  12.183  0.0057  0.0365  0.2720
13472W        W29089   4.937   7.420   0.799  0.1114 -0.0961  0.0123
13473W        W29090  14.836  14.414  13.956 -0.1049 -0.0275 -0.2859
13474W        W29091   9.910  17.429  11.814 -0.2335 -0.0588 -0.0851
13475W        W29092   7.075   0.464   4.903  0.0349 -0.0681 -0.0778
13476W        W29093   9.452  16.527   4.263  0.2122  0.2066 -0.3348
13477W        W29094   7.575  10.563   3.477 -0.0126  0.0320 -0.4791
13478W        W29095   9.443   2.832   5.070 -0.0833  0.0190  0.2524
13479W        W29096   5.013   1.515   2.522 -0.0979 -0.0648 -0.1998
13480W        W29097  14.558   9.275  11.089 -0.1094 -0.1468  0.1260
13481W        W29098   0.722   4.267   2.745 -0.0929 -0.1163  0.2554
13482W        W29099  14.540  14.134   3.123  0.2283  0.0402  0.1144
13483W        W29100   3.906  16.039   3.572  0.0955 -0.1165  0.1664
13484W        W29101   3.435  17.677   2.912 -0.2475 -0.4392  0.0717
13485W        W29102   5.298   5.615   6.032  0.3077  0.5500  0.3236
13486W        W29103   2.996  18.566  12.783  0.3761  0.3782  0.3353
13487W        W29104   8.859  10.251  11.105 -0.2656 -0.3232  0.1780
13488W        W29105   0.286  16.684  14.497 -0.2071  0.1912 -0.1395
13489W        W29106   7.301  11.043   3.336  0.0326  0.3285  0.2197
13490W        W29107   5.295  17.326   1.398 -0.2290  0.4539  0.0597
13491W        W29108  17.896  12.415  12.484  0.0739 -0.0509 -0.2022
13492W        W29109  15.436  12.488  11.701 -0.1190 -0.2170 -0.0823
13493W        W29110   0.109   8.379   1.949  0.1488 -0.3071  0.0667
13494W        W29111   4.733  15.290  12.441  0.3236 -0.1694  0.4166
13495W        W29112   8.136   2.230   4.621  0.2308 -0.2593  0.1256
13496W        W29113  15.258  12.705   5.503  0.0059  0.0764 -0.0945
13497W        W29114   1.279   7.424  15.003 -0.1357  0.1038 -0.0455
13498W        W29115   1.840   1.561   3.215 -0.1798 -0.1341  0.0062
13499W        W29116   4.593  17.100  14.445 -0.2229 -0.0826  0.1253
13500W        W29117   5.372   6.233   0.444 -0.3860  0.0841 -0.2391
13501W        W29118   5.897   8.302   3.606 -0.1142 -0.2009 -0.0054
13502W        W29119   4.279   9.360  11.191 -0.0985 -0.0272 -0.1491
13503W        W29120  15.757   5.581  14.787 -0.0329  0.0308 -0.1128
13504W        W29121  15.330  12.915   2.796 -0.0206 -0.2349  0.0973
13505W        W29122   8.913   4.779   4.220  0.0319 -0.0522 -0.1428
13506W        W29123  17.312  14.371   5.487  0.0262  0.0343 -0.3998
13507W        W29124  14.017   3.199   2.410  0.1114 -0.0740 -0.0085
13508W        W29125  14.079   0.076   1.396  0.0680 -0.3991 -0.0169
13509W        W29126   1.775  15.339  12.970 -0.1538 -0.0148 -0.2443
13510W        W29127   3.409   0.783  14.852 -0.2758 -0.1523 -0.0832
13511W        W29128  12.411  16.435   0.794  0.0545 -0.0753  0.0582
13512W        W29129  17.756   6.415  11.094 -0.0662  0.3089  0.1440
13513W        W29130  13.227   1.503   2.554  0.1491  0.0894 -0.0323
13514W        W29131   4.935  12.872   3.836 -0.1944 -0.2952  0.0731
13515W        W29132   4.729   3.502   4.369 -0.0312 -0.2528 -0.0928
13516W        W29133  18.410  17.825  14.475  0.1711 -0.1695  0.1388
13517W        W29134   7.806   3.609   1.930  0.0024 -0.0091  0.2339
13518W        W29135   6.432   7.054   1.059 -0.0940  0.1023 -0.0880
13519W        W29136   3.854  18.674  12.792 -0.1389 -0.0233  0.3391
13520W        W29137   3.841   6.932  15.041 -0.2753  0.1896  0.0081
13521W        W29138   6.155   5.250   2.941  0.2329  0.2451 -0.1199
13522W        W29139   5.282   0.972   3.155  0.1369  0.1479  0.0209
13523W        W29140  17.188   0.914  12.193 -0.0333  0.2710  0.1276
13524W        W29141  16.562  18.798  11.373  0.0602  0.1326 -0.0941
13525W        W29142  11.967   0.119   2.403  0.1884  0.0995  0.0219
13526W        W29143   2.706   2.433   4.074 -0.2053  0.2678 -0.1667
13527W        W29144  10.896   2.326   3.994 -0.0042 -0.2146  0.3950
13528W        W29145  13.356   9.622   1.200 -0.1004 -0.1927  0.1882
13529W        W29146  13.581  12.324  14.287  0.1447 -0.2125  0.1071
13530W        W29147   5.587   6.660  12.679  0.0243  0.1732  0.3396
13531W        W29148   0.461  16.452   2.542  0.0501 -0.0940  0.1068
13532W        W29149   5.117  16.121   5.553  0.0196 -0.2717 -0.2100
13533W        W29150  11.430   9.712   0.531  0.1842  0.0938 -0.2204
13534W        W29151   9.276   2.874   0.479 -0.1352 -0.0873  0.2981
13535W        W29152  12.431   9.364   2.146  0.1769  0.0794 -0.3950
13536W        W29153  11.083  12.529   2.400  0.1437  0.0810  0.0409
13537W        W29154   6.162   8.355   2.137  0.1737  0.2809 -0.3563
13538W        W29155  18.003   7.452  14.975 -0.2941 -0.0774 -0.0212
13539W        W29156  18.251   9.165   3.088  0.2477  0.3502 -0.1460
13540W        W29157   4.675  14.815  10.948  0.1780 -0.1407  0.1311
13541W        W29158   4.020  16.445   5.529 -0.0738  0.1051  0.0634
13542W        W29159   7.640   8.380   3.680  0.1423  0.0798 -0.0901
13543W        W29160  17.926   3.765   1.079 -0.2309 -0.0148 -0.0634
13544W        W29161  16.819   6.540  11.200  0.1019  0.2981 -0.1220
13545W        W29162   3.827   9.391  14.560 -0.1867  0.1834 -0.0135
13546W        W29163   3.074   1.595   5.287 -0.0066 -0.1204  0.0295
13547W        W29164   5.858  17.202  11.327  0.0533 -0.0272 -0.0757
13548W        W29165   8.331  10.740  13.264 -0.0353  0.1797 -0.1728
13549W        W29166   1.179   2.653   0.192  0.1366 -0.2162  0.2858
13550W        W29167   7.396   7.398  11.457 -0.1947  0.0570  0.1172
13551W        W29168  13.699   0.695  14.560  0.0493  0.0696  0.1040
13552W        W29169  11.629  16.217   5.633  0.0110 -0.2573 -0.1302
13553W        W29170   2.117  13.234   0.208 -0.0541  0.2255  0.0285
13554W        W29171   3.072  11.784  10.581 -0.1221 -0.5041 -0.2788
13555W        W29172  17.789  15.712  12.550  0.1612  0.1992  0.1035
13556W        W29173   7.556  18.720  13.766  0.2231 -0.0442  0.1268
13557W        W29174   6.220  16.598  13.634 -0.1277 -0.0276 -0.1361
13558W        W29175  17.212  17.097  10.639 -0.1322  0.2061  0.2035
13559W        W29176  17.189  18.185   4.838  0.0351  0.1447 -0.2126
13560W        W29177  10.205   2.427  13.639  0.2664 -0.2234  0.1606
13561W        W29178   6.503   7.665  12.062 -0.0942  0.0447  0.0358
13562W        W29179  13.740  15.772   0.169  0.0110  0.2188  0.0034
13563W        W29180  16.952   8.750  10.485  0.0995  0.0783  0.2926
13564W        W29181   3.818   3.466  11.329  0.0986  0.4445 -0.0916
13565W        W29182  15.686   8.234   2.196  0.1953  0.1358  0.0839
13566W        W29183   2.607  10.202   1.937 -0.1106 -0.3142  0.3382
13567W        W29184   1.104   3.732  14.920 -0.1132  0.3035 -0.1964
13568W        W29185   2.958  10.133   0.068 -0.0675 -0.0241 -0.0601
13569W        W29186   5.771  15.298  14.324  0.1426  0.1447 -0.2704
13570W        W29187  18.001   2.276   4.447  0.0814 -0.2868 -0.1888
13571W        W29188  13.263   6.251  11.861  0.0069  0.1824  0.2010
13572W        W29189  14.031   8.771   2.092  0.1208  0.2537 -0.0090
13573W        W29190   8.314   3.000   1.590 -0.1968  0.1526  0.1082
13574W        W29191   8.406   1.824   1.126 -0.1853  0.1262 -0.2016
13575W        W29192  15.510   4.963  12.493  0.2397  0.1401  0.1378
13576W        W29193  11.745  18.123   4.272  0.0753  0.2209  0.0849
13577W        W29194  13.705  18.827   0.939  0.1240  0.1973 -0.0408
13578W        W29195   9.325   3.544  13.028  0.3861 -0.1537  0.0824
13579W        W29196  10.195  17.501   5.776 -0.1258  0.1561 -0.2683
13580W        W29197  15.291   3.599  12.454 -0.0396  0.0718  0.1118
13581W        W29198   0.990  15.412   3.710 -0.0593  0.0033 -0.2663
13582W        W29199  15.139   6.600  12.873  0.2811 -0.0168 -0.2151
13583W        W29200   9.266   8.086   4.137 -0.1358 -0.2230 -0.2471
13584W        W29201  10.612  12.237  14.462  0.0967  0.4216 -0.0769
13585W        W29202  13.300   8.570   0.916 -0.1201 -0.0778  0.2622
13586W        W29203  10.181  10.567   2.943 -0.4920 -0.1214  0.1040
13587W        W29204  13.189  12.442  12.030  0.1552 -0.1270 -0.1671
13588W        W29205   2.410   5.995  13.787  0.0054  0.1877  0.2224
13589W        W29206  12.361  14.476   3.073 -0.3150  0.3370 -0.2892
13590W        W29207   7.676   2.907  11.768  0.1178  0.0639  0.2362
13591W        W29208   6.863  18.771   0.141  0.1875  0.3553  0.2329
13592W        W29209  10.700  17.922  15.186  0.1001 -0.0949  0.1088
13593W        W29210   0.452  18.488   4.916  0.1347 -0.1417 -0.0116
13594W        W29211  13.369   1.287  11.442 -0.2010 -0.1823  0.1396
13595W        W29212   3.761  17.595   1.110 -0.0468 -0.1067  0.1496
13596W        W29213   6.621  17.630  11.553  0.1634 -0.0795  0.2604
13597W        W29214   7.510  13.633  13.163  0.0309  0.2839  0.0921
13598W        W29215   3.195   4.268   4.767 -0.1360 -0.3266 -0.0151
13599W        W29216  14.821   5.919  10.436  0.1622 -0.1221 -0.0017
13600W        W29217  10.763  16.866   5.105 -0.5085  0.1137 -0.1295
13601W        W29218   3.790  17.267  11.283 -0.3748  0.2218  0.1009
13602W        W29219   2.911   8.396   2.279  0.1536 -0.2497 -0.1938
13603W        W29220   2.495  14.851  10.404  0.0597  0.5769 -0.2451
13604W        W29221   1.328  12.741   1.679 -0.0377 -0.0939  0.3469
13605W        W29222  11.540   4.848   9.561  0.0430  0.1450  0.2838
13606W        W29223  11.851   7.258   0.603  0.1310 -0.3262  0.1813
13607W        W29224  14.306   6.191   3.980  0.2192 -0.1714  0.1904
13608W        W29225   7.062   7.576  11.837  0.0250 -0.1842  0.1947
13609W        W29226   6.133  13.756  11.608 -0.0288 -0.2416 -0.3450
13610W        W29227   2.254   9.242  11.414  0.1313 -0.1480  0.2880
13611W        W29228  12.334   9.429   0.823 -0.0962  0.0988  0.0236
13612W        W29229   3.302  14.313  10.164 -0.1166 -0.0490 -0.0090
13613W        W29230  13.790   1.872   0.116 -0.2567  0.0690  0.1620
13614W        W29231  15.505   3.880   3.817  0.0926  0.0476  0.1431
13615W        W29232   5.787  14.476  14.100  0.0167  0.1268  0.1483
13616W        W29233  13.910   9.300   0.486  0.0293  0.3056 -0.2511
13617W        W29234   3.930   5.746   2.844  0.0622 -0.3744  0.0525
13618W        W29235  18.164  16.532  14.551  0.1903  0.1567 -0.1371
13619W        W29236   6.728   2.913  12.541 -0.1738  0.1546 -0.1284
13620W        W29237  12.067  12.439   3.836  0.0705 -0.0077 -0.4404
13621W        W29238   7.681   3.842  14.045 -0.1751 -0.0171 -0.0347
13622W        W29239   8.321   1.597   2.749  0.1494 -0.2347  0.1528
13623W        W29240  12.997  13.613   5.022  0.1274  0.2267  0.0519
13624W        W29241   2.258   4.947  14.006 -0.1897 -0.1498 -0.4657
13625W        W29242  13.958   4.588  13.465  0.1047 -0.0912 -0.0008
13626W        W29243  11.578   9.575   3.948 -0.0386  0.1871 -0.1067
13627W        W29244  14.506  13.568   4.974 -0.2943  0.0863  0.1853
13628W        W29245  19.004   3.377  11.759 -0.0104 -0.1513 -0.0997
13629W        W29246  10.038  15.792   3.873 -0.0114  0.2660 -0.1896
13630W        W29247   1.124  12.085   1.162 -0.1982  0.0952 -0.0788
13631W        W29248   2.227   6.833   0.254  0.0873 -0.0180 -0.2617
13632W        W29249  12.372   5.176  14.623 -0.2657  0.0433  0.0610
13633W        W29250   7.611  12.651   1.339 -0.0573  0.0108  0.0363
13634W        W29251   5.174  18.923  12.362  0.1480 -0.0163  0.0635
13635W        W29252  18.108  14.796  11.802 -0.2152  0.1902 -0.1618
13636W        W29253   4.002   5.407  14.330 -0.2193  0.4001  0.3048
13637W        W29254   4.215  19.073  13.028  0.0072 -0.1959  0.2503
13638W        W29255   7.962   2.865  13.813  0.0158  0.1857 -0.2452
13639W        W29256   2.703   6.954   2.892  0.0373  0.1168  0.0436
13640W        W29257  17.263  10.599  12.423 -0.0754 -0.0385 -0.2280
13641W        W29258   2.786   8.363   2.799 -0.0534 -0.0060 -0.1274
13642W        W29259   8.073  15.303   2.883  0.1437 -0.2193  0.0373
13643W        W29260  15.617  18.537   0.627  0.0667  0.1982 -0.2972
13644W        W29261  12.636   2.659  12.193 -0.0869 -0.0704  0.0806
13645W        W29262   8.997  17.830   0.060 -0.4110 -0.2092  0.1434
13646W        W29263  15.779   4.302   1.076  0.0427  0.0456 -0.0376
13647W        W29264   1.856  15.101  10.731 -0.1842  0.1462 -0.0734
13648W        W29265   2.517  17.848   2.669  0.0862 -0.0191 -0.2144
13649W        W29266   6.642   1.610   3.884  0.1938 -0.0433  0.0897
13650W        W29267   1.083   8.957  11.020 -0.0448 -0.0945  0.4207
13651W        W29268   8.151   1.321  11.646  0.0675 -0.0032 -0.0152
13652W        W29269   7.300  18.636   5.100 -0.1227 -0.1299  0.0282
13653W        W29270   9.537   1.207   0.816  0.0842  0.0204  0.0294
13654W        W29271  12.691   0.157  13.788  0.3832  0.0925 -0.2107
13655W        W29272  13.316   3.482   1.810 -0.0216  0.1000  0.2823
13656W        W29273   1.516   4.337  11.185  0.2659 -0.1064  0.0839
13657W        W29274  10.508   2.070   2.669  0.0539  0.2233  0.2033
13658W        W29275   4.404  15.973  15.119  0.0891  0.2128 -0.0917
13659W        W29276  18.849  15.253   2.395  0.0866 -0.0924  0.0659
13660W        W29277  12.715  16.729   0.140  0.0019 -0.1514 -0.1318
13661W        W29278   1.604  16.581   4.313 -0.2579 -0.1628  0.2206
13662W        W29279   5.492  13.511  10.853  0.5684  0.0684  0.2096
13663W        W29280   8.555  15.184  11.975  0.1531  0.3626 -0.2859
13664W        W29281  17.032  11.144   0.435 -0.1335  0.0056  0.1156
13665W        W29282   1.766  11.314  11.243  0.0030  0.0821 -0.2872
13666W        W29283  10.204  16.290   0.519  0.2646 -0.3050 -0.0343
13667W        W29284  13.598   2.778  11.496 -0.0001  0.0394  0.1485
13668W        W29285  14.374  15.430   2.355 -0.2903 -0.2436  0.2594
13669W        W29286  17.309  11.784  10.972 -0.0583 -0.4197  0.1083
13670W        W29287   0.840   9.860   5.657 -0.2412  0.1411 -0.0354
13671W        W29288   1.639   9.848  14.694 -0.4129 -0.0790 -0.2011
13672W        W29289   1.185   9.636  12.174 -0.3209 -0.0532  0.3870
13673W        W29290   7.985   8.503  12.093 -0.1645 -0.1194 -0.1176
13674W        W29291   2.227   1.115  12.715 -0.0873 -0.1550  0.0306
13675W        W29292   5.914   2.920  14.192 -0.0948  0.1128 -0.4061
13676W        W29293   9.919  15.835   4.976 -0.1212 -0.0455 -0.0443
13677W        W29294  12.307   1.230   3.890 -0.2410  0.2196  0.0845
13678W        W29295   2.705   1.961  15.246  0.1842 -0.2387 -0.1121
13679W        W29296  13.085   6.238   1.221  0.0538 -0.2043 -0.1595
13680W        W29297   8.421  15.399  13.275 -0.0329 -0.1622 -0.1710
13681W        W29298   8.993  14.428  14.900 -0.2587 -0.0861 -0.1023
13682W        W29299  12.951  10.659   2.241 -0.2157  0.1434  0.2025
13683W        W29300  13.082  15.984   2.931 -0.1017  0.1775 -0.0760
13684W        W29301  17.658   8.849   2.315 -0.1110  0.0986  0.1958
13685W        W29302  14.965  18.764  10.310 -0.0520  0.0774 -0.0783
13686W        W29303   5.876  11.029  11.609 -0.3035  0.2529 -0.0322
13687W        W29304   2.387  17.487  12.129 -0.0462 -0.0591  0.2854
13688W        W29305   3.098   8.123  14.735  0.1763 -0.3073 -0.1889
13689W        W29306   3.875  11.615  14.789  0.1489 -0.0276  0.2145
13690W        W29307   8.515   8.501  10.693  0.0450 -0.1652  0.1636
13691W        W29308   4.257   2.185   1.240 -0.2951  0.3329 -0.3374
13692W        W29309   2.563  15.561  15.149 -0.1672 -0.0964  0.0321
13693W        W29310  11.120  10.439  14.146  0.0887 -0.4348  0.0105
13694W        W29311  13.947  12.511  12.145  0.2434  0.0238  0.0837
13695W        W29312  13.726  11.587   0.445 -0.0951  0.0396  0.2626
13696W        W29313  16.400  13.862   2.253 -0.0554 -0.1143  0.3351
13697W        W29314  16.083  16.479   2.000  0.0000  0.3259 -0.0547
13698W        W29315  17.613   7.403  12.608 -0.2030  0.2200  0.1095
13699W        W29316   2.078  16.693  12.310  0.0204 -0.0731  0.2807
13700W        W29317   3.295  14.928  13.068  0.5449  0.4594  0.3957
13701W        W29318  17.981   3.605  13.419 -0.0828 -0.2389 -0.0606
13702W        W29319   3.735   4.545  11.026 -0.2732 -0.0703 -0.2475
13703W        W29320   1.171   2.876   4.913 -0.1442  0.2363 -0.0012
13704W        W29321   9.699  18.989   1.520 -0.0011  0.1321  0.2150
13705W        W29322   5.644  15.002  13.898 -0.0140  0.0930 -0.2046
13706W        W29323   6.746  10.857  13.590 -0.3175  0.3442  0.1576
13707W        W29324   0.332   4.723  14.808  0.1188  0.3302  0.1122
13708W        W29325   5.632  12.268   0.571  0.4583  0.0321  0.0572
13709W        W29326   2.961  11.175   3.005  0.5323 -0.2328  0.0814
13710W        W29327  14.286  11.382   3.605  0.1332 -0.0020  0.1051
13711W        W29328   2.835   4.192  13.823 -0.1405 -0.1019  0.1258
13712W        W29329   5.766   3.213   0.019  0.0657  0.0372 -0.3896
13713W        W29330   7.837  12.204   0.608  0.0598  0.0269 -0.0915
13714W        W29331  15.581   8.166  12.600 -0.0470 -0.2880  0.1067
13715W        W29332   1.491   1.402  13.943  0.1323 -0.1523 -0.0611
13716W        W29333  11.169  12.555   2.868 -0.3200 -0.1231 -0.3657
13717W        W29334  11.076   8.271  10.376 -0.0789  0.1854  0.2671
13718W        W29335   4.579  17.646   0.176  0.1031  0.0144  0.1730
13719W        W29336  15.668  18.455   3.800  0.2470 -0.0836 -0.0857
13720W        W29337   3.192  10.473   4.772  0.1684  0.0218  0.0048
13721W        W29338  11.926   5.579   2.516  0.1221 -0.0912 -0.0922
13722W        W29339   0.009  12.946   1.385  0.0264  0.0223 -0.3603
13723W        W29340  15.111  11.927   4.763 -0.0410 -0.0543 -0.0303
13724W        W29341  11.832   6.835   0.918  0.4449 -0.1179  0.2835
13725W        W29342  12.987   6.251   1.723  0.0354  0.0193  0.2455
13726W        W29343   0.615   0.099  11.941  0.2381  0.2273  0.1276
13727W        W29344  12.453  14.406  14.394  0.1197  0.4160  0.1760
13728W        W29345   4.524   0.437   0.157 -0.2150  0.2825 -0.0287
13729W        W29346  17.921  14.932  12.276 -0.4171 -0.0806  0.1025
13730W        W29347   6.243   2.323   0.489 -0.0838  0.1548 -0.1307
13731W        W29348   7.401   1.408  14.095  0.0483 -0.0072 -0.0826
13732W        W29349  14.767  13.870   4.563 -0.2957  0.1415 -0.0855
13733W        W29350   1.662  11.944  14.439 -0.0047 -0.1748 -0.1985
13734W        W29351   1.057  18.879  13.262 -0.1053  0.1189 -0.0329
13735W        W29352  17.018   2.583   1.285  0.1092 -0.1522  0.1534
13736W        W29353  16.769  16.391  14.993 -0.3665  0.1989  0.0760
13737W        W29354  13.144   5.267   3.849  0.0521  0.2381  0.1467
13738W        W29355   9.589  14.039  11.925 -0.0256 -0.1438 -0.0536
13739W        W29356   1.434   5.701  12.500 -0.0322 -0.0016  0.2039
13740W        W29357  17.438  12.185   2.779  0.2595 -0.0466 -0.4136
13741W        W29358  13.517   6.821   1.915  0.0888  0.0551 -0.0454
13742W        W29359   1.593  14.535   3.885 -0.0147 -0.1544 -0.2096
13743W        W29360  13.756   3.388   2.053  0.1142 -0.0284 -0.2751
13744W        W29361   5.153  18.798   0.731 -0.0707 -0.1150  0.1340
13745W        W29362  12.652   7.270  11.662  0.1069 -0.0852  0.4072
13746W        W29363   9.192  11.181   3.374  0.0090  0.2747  0.1416
13747W        W29364  13.084   5.097  12.958 -0.1537 -0.0323 -0.0471
13748W        W29365   1.670   7.197   9.984 -0.1371  0.2751 -0.1636
13749W        W29366   5.404  18.179  11.956 -0.1111 -0.1482  0.0273
13750W        W29367  10.704  10.964  10.836  0.0441 -0.0300 -0.0292
13751W        W29368  18.453  18.464   4.313  0.0403 -0.3198 -0.0911
13752W        W29369   3.071  18.458   3.106 -0.2261  0.3280  0.2666
13753W        W29370   1.972   1.941   2.011  0.2669 -0.1332 -0.1058
13754W        W29371   6.760  18.768  11.886  0.2085 -0.1192 -0.0314
13755W        W29372  17.055  14.364   1.203  0.0225 -0.0081 -0.5153
13756W        W29373   6.678   9.633  12.396  0.1711  0.0235  0.1952
13757W        W29374   7.382   1.704  13.697 -0.5947 -0.4025  0.0065
13758W        W29375   9.332  10.291   0.185 -0.2182  0.2498 -0.2448
13759W        W29376   9.107  18.407  13.631 -0.2276  0.1583  0.2479
13760W        W29377  13.095  14.424   4.798 -0.0039 -0.3536  0.1455
13761W        W29378  16.644  17.417  11.790 -0.0485  0.3907  0.1359
13762W        W29379   9.097   4.448  14.144  0.0270 -0.2016  0.3348
13763W        W29380   5.668  17.973  14.747 -0.0837  0.2001 -0.3093
13764W        W29381   0.547  13.421  13.272 -0.2662  0.0845  0.0933
13765W        W29382   9.002   6.394  11.920  0.0002  0.0047 -0.6053
13766W        W29383   3.842  18.331   5.277  0.0028 -0.2619  0.2379
13767W        W29384  16.842  16.484   1.695 -0.3127  0.0019 -0.3576
13768W        W29385   0.503  15.864  11.676 -0.3449 -0.3669  0.1537
13769W        W29386  18.964   6.975  14.028 -0.0207 -0.3564  0.2226
13770W        W29387   9.665   6.002  13.779  0.1488  0.0600 -0.0043
13771W        W29388   6.682  10.963  14.142 -0.4792 -0.3174  0.0960
13772W        W29389  12.819  10.235   3.991  0.1775 -0.3283 -0.2081
13773W        W29390   1.327  15.149  10.638  0.2089 -0.0192 -0.0643
13774W        W29391  16.297   8.338  13.512  0.0715 -0.0088 -0.2610
13775W        W29392   6.742  10.108   4.538 -0.2431  0.1056 -0.0297
13776W        W29393  13.965   3.250  13.135  0.0485  0.0379 -0.2304
13777W        W29394  12.432  10.338   3.239  0.2686  0.1128 -0.0682
13778W        W29395   3.339  15.195  14.949 -0.0768 -0.1409  0.0834
13779W        W29396  11.387   6.455   0.692  0.1099 -0.1351 -0.0319
13780W        W29397   7.406  14.584  12.111 -0.3179  0.0087 -0.0386
13781W        W29398   1.152   0.906   3.366 -0.4017 -0.0928  0.2293
13782W        W29399   5.025  18.903   4.186 -0.1613 -0.3132 -0.2003
13783W        W29400   0.888   8.941   4.819  0.0491 -0.1687 -0.1675
13784W        W29401   4.545   4.714   0.470 -0.0789  0.2028 -0.2675
13785W        W29402   2.384   1.681   2.897  0.2294  0.1327 -0.3361
13786W        W29403  19.050  11.866  14.101 -0.0792 -0.0400 -0.2423
13787W        W29404  17.304  12.751   3.615 -0.0165 -0.1738  0.0417
13788W        W29405  15.958  15.709   5.681  0.0563 -0.1619  0.3038
13789W        W29406  14.416  16.738  11.784  0.0021  0.0434  0.1945
13790W        W29407   6.892   7.495   4.117 -0.2359  0.0700 -0.2607
13791W        W29408  18.569   4.969  14.795  0.1725 -0.0550  0.2760
13792W        W29409  19.021  18.975   2.188 -0.1698 -0.0798  0.2214
13793W        W29410   8.491  12.525   3.198  0.0176 -0.1669 -0.0569
13794W        W29411  11.872  17.777   3.133 -0.0761  0.2650  0.0668
13795W        W29412   6.582  16.848   5.647 -0.1421 -0.0853 -0.1484
13796W        W29413  12.253   2.248  11.536 -0.0948  0.1192 -0.2027
13797W        W29414  12.794   2.729   4.658  0.3489  0.2326 -0.1329
13798W        W29415   6.739  16.448   2.142  0.0877 -0.0834  0.0474
13799W        W29416   0.296   3.852   1.279  0.1889  0.3053 -0.0503
13800W        W29417   1.312  12.634   4.867  0.0275  0.1179  0.0922
13801W        W29418  14.483   0.668   0.787  0.2819  0.3075 -0.1911
13802W        W29419   0.736   4.382   4.248 -0.0935  0.2498 -0.2302
13803W        W29420   8.297  12.617  13.598  0.0504  0.0149  0.1800
13804W        W29421  17.535  10.967  14.318  0.0197  0.0862  0.1256
13805W        W29422   4.075  17.234   4.988  0.0067  0.3652  0.2011
13806W        W29423   4.216  15.501  10.678  0.0624  0.1872 -0.0124
13807W        W29424  12.224   0.165   5.381  0.0449  0.1516  0.3742
13808W        W29425  18.339   3.156   2.739  0.1496 -0.1185  0.1880
13809W        W29426  17.514  11.868   1.079 -0.2639 -0.0783 -0.0332
13810W        W29427   6.053   0.350   3.445  0.0605  0.3273 -0.0820
13811W        W29428   1.797   5.640   0.604  0.0990  0.1248  0.1858
13812W        W29429  12.285   0.096  13.316 -0.1473  0.0876  0.0690
13813W        W29430  14.630  11.323  13.068 -0.1960 -0.0449  0.0002
13814W        W29431   5.206  11.636   2.894 -0.1457 -0.0932 -0.0743
13815W        W29432  16.146   5.865  14.671 -0.1280 -0.0645  0.1252
13816W        W29433   4.351  16.010   2.705 -0.1250  0.1110 -0.0996
13817W        W29434   6.829   6.037   5.318 -0.4616  0.2759 -0.0354
13818W        W29435   7.179   2.792   0.647  0.0818 -0.0904  0.1691
13819W        W29436  17.435  10.023  14.290 -0.0367  0.0156 -0.0101
13820W        W29437   8.239  11.028   0.159  0.0522 -0.0723 -0.2488
13821W        W29438   3.098   5.117   2.252 -0.0105 -0.0534 -0.0500
13822W        W29439   0.984   8.368   0.591 -0.1134 -0.1872 -0.1017
13823W        W29440   4.048   0.749   2.875  0.0359 -0.0058 -0.1060
13824W        W29441  13.601   5.842   1.940  0.3288  0.0093  0.1856
13825W        W29442   8.001   7.174   1.050 -0.0725 -0.2048  0.0430
13826W        W29443  18.003   1.645  14.660  0.1239  0.3705  0.0144
13827W        W29444   5.899   4.702   1.005 -0.1552  0.1440 -0.2151
13828W        W29445   1.782   3.604   3.777 -0.1014  0.2127 -0.0560
13829W        W29446   3.390  14.195   3.386 -0.3473  0.2418 -0.0825
13830W        W29447   8.402   9.792   1.345  0.1719 -0.2823 -0.1937
13831W        W29448  11.365   8.873  11.891  0.3050  0.1562  0.1368
13832W        W29449  11.262  11.151  11.058 -0.0497 -0.0753 -0.2856
13833W        W29450  14.959   8.531   0.120 -0.1488  0.0809  0.0836
13834W        W29451  15.879   6.218   2.267 -0.3665 -0.1420  0.0820
13835W        W29452  19.024  10.048  11.258  0.0373 -0.2154 -0.4949
13836W        W29453   4.163  12.098  14.448  0.0022  0.0542 -0.0085
13837W        W29454  12.163   3.093  10.525  0.0119  0.0472 -0.2751
13838W        W29455  13.293   6.139  12.333  0.1139 -0.0510 -0.1296
13839W        W29456   8.499   8.502   4.623 -0.2456 -0.2550  0.0246
13840W        W29457   9.017  14.211   2.922 -0.1054  0.4028  0.1384
13841W        W29458  11.211   1.814  11.721  0.0467 -0.1089  0.0860
13842W        W29459   9.973  15.779   2.288 -0.0491 -0.0942  0.1084
13843W        W29460   8.891   9.691  11.303  0.1856  0.2212  0.1804
13844W        W29461  13.387  13.114  13.324  0.2166  0.1255 -0.1327
13845W        W29462  10.484   0.485  13.903 -0.1089  0.1894 -0.1427
13846W        W29463  17.108   4.326  10.451  0.5622  0.2379  0.0885
13847W        W29464   7.175   7.416  10.351  0.0883 -0.0125  0.0230
13848W        W29465   2.600   4.610   2.231  0.2374 -0.3649 -0.1708
13849W        W29466   7.364   3.715   0.780  0.0240 -0.0157 -0.1864
13850W        W29467   6.149  16.493  13.133 -0.0190 -0.4834  0.0394
13851W        W29468   0.280   9.313   1.707 -0.0284 -0.2265  0.1425
13852W        W29469   1.756  11.374  10.760 -0.1239 -0.1088 -0.3129
13853W        W29470  12.133   5.600   1.590  0.0592  0.1798 -0.2339
13854W        W29471   1.309  16.021   4.087  0.0069 -0.1627 -0.1015
13855W        W29472   3.216   9.817   1.534  0.1661  0.1086  0.1831
13856W        W29473   8.090  12.392  15.083 -0.1681  0.1857 -0.1189
13857W        W29474   7.919   1.058   1.365 -0.1012 -0.3686  0.0841
13858W        W29475  10.908   3.600   1.711  0.0673 -0.3990 -0.1669
13859W        W29476   5.605   1.747   0.365 -0.2131 -0.1873  0.3564
13860W        W29477   8.256  17.149   3.541 -0.1583 -0.2681  0.0997
13861W        W29478   8.961   7.890   0.077 -0.3323 -0.1193  0.0171
13862W        W29479  10.292  13.906   4.806 -0.2062  0.2103  0.0849
13863W        W29480  11.390   5.615   3.401  0.2935  0.0154  0.0323
13864W        W29481   0.515   5.815  13.955 -0.1011 -0.2075 -0.1315
13865W        W29482   5.330  16.532   1.747 -0.0838  0.0618 -0.4777
13866W        W29483   7.182  18.390  10.200 -0.0550 -0.0953 -0.1006
13867W        W29484  17.029   0.502   5.192 -0.1958  0.0493 -0.0157
13868W        W29485   8.113   4.671   0.536 -0.0887  0.0379 -0.2953
13869W        W29486  12.165   8.125   0.161  0.1089 -0.2741  0.1112
13870W        W29487   1.386   6.055   0.884  0.0159  0.1038  0.2746
13871W        W29488  12.529   3.893   1.625  0.1422  0.0475 -0.4419
13872W        W29489   7.662  11.941  13.141  0.1477  0.1619  0.0708
13873W        W29490  16.360  12.696  11.287  0.2821  0.0644  0.0569
13874W        W29491   9.862   0.000   4.628 -0.1812  0.0476  0.1648
13875W        W29492   4.609  17.972   3.262  0.2329 -0.1901 -0.3761
13876W        W29493  18.978  11.570   2.160  0.0899 -0.0178 -0.2776
13877W        W29494  12.151   2.580  10.929 -0.0491 -0.3862 -0.0098
13878W        W29495   6.385  17.204  11.466  0.2378  0.0244 -0.0697
13879W        W29496  14.000  14.905  14.209 -0.0816 -0.0920 -0.1864
13880W        W29497  13.199   1.706   5.868  0.3736 -0.2843  0.0826
13881W        W29498  14.071  12.179   2.835  0.2741  0.2631 -0.2557
13882W        W29499  16.952  13.024  12.966 -0.0396 -0.0936  0.1951
13883W        W29500   0.188   2.756  14.608 -0.1247  0.2756  0.0030
13884W        W29501   9.797   7.457   3.673 -0.0600  0.0512 -0.0785
13885W        W29502  16.602  18.920   3.380  0.1687  0.0446  0.0689
13886W        W29503   8.216   6.346  15.215  0.1334  0.0715 -0.4286
13887W        W29504   8.881   7.029   1.241 -0.2584 -0.0141 -0.2455
13888W        W29505  12.278   8.465  13.750 -0.1608 -0.0029  0.3922
13889W        W29506   7.873   2.660  13.226  0.1292 -0.0271 -0.0549
13890W        W29507   1.277   8.365   3.831 -0.2843 -0.1427 -0.3523
13891W        W29508   2.909   9.022   2.244 -0.0134 -0.0227 -0.1894
13892W        W29509  14.168   1.249  13.779  0.0317  0.3583 -0.1216
13893W        W29510  17.077   0.448  12.076 -0.2721  0.4114  0.1786
13894W        W29511   5.107   2.377   1.287  0.1555 -0.2287  0.0719
13895W        W29512   3.256  11.236   0.508  0.2177  0.2222 -0.0002
13896W        W29513   2.132   5.241  10.436  0.1136 -0.0810  0.1268
13897W        W29514  10.660  17.969   1.757  0.3784 -0.0676  0.4006
13898W        W29515  18.601  11.044  13.144 -0.0228 -0.1914 -0.1673
13899W        W29516  13.828   5.127  14.554  0.0818 -0.1155  0.1070
13900W        W29517   7.353  18.473   4.262  0.0904 -0.0148  0.2352
13901W        W29518  18.798   9.423   5.477  0.0675 -0.3006 -0.3627
13902W        W29519   0.148  14.598  13.092 -0.1374 -0.0211 -0.2660
13903W        W29520  16.460   3.964   4.068  0.0765  0.1768 -0.0000
13904W        W29521   9.368   7.079   3.676 -0.0754 -0.1257  0.3226
13905W        W29522  16.806   7.454  11.380  0.0210  0.0220 -0.1531
13906W        W29523  12.958  11.130  11.278  0.4625  0.3658  0.1000
13907W        W29524   2.008   9.336   9.890 -0.0025 -0.1076 -0.2271
13908W        W29525   2.353   1.315  11.906 -0.2178  0.0348  0.3075
13909W        W29526   4.918   1.554   0.893 -0.1438 -0.1484  0.2862
13910W        W29527   7.746   3.846   2.462 -0.0567 -0.2792  0.2744
13911W        W29528   5.843  14.424  12.928 -0.0529 -0.3538 -0.0260
13912W        W29529  13.155   2.182  10.917  0.0034 -0.1481 -0.0243
13913W        W29530   1.652   3.295  13.517  0.0388 -0.0892  0.2412
13914W        W29531   2.119  17.651  13.511 -0.1698 -0.0812  0.4231
13915W        W29532  17.558  16.721  12.800 -0.0585 -0.1326  0.3704
13916W        W29533   1.032  15.908  10.221  0.1119 -0.0003  0.1479
13917W        W29534  11.534   0.569  12.624  0.0795 -0.0324 -0.0197
13918W        W29535   4.155  10.314   3.780  0.1429 -0.1251  0.2143
13919W        W29536   3.382   4.248   3.079  0.2641 -0.1914  0.0741
13920W        W29537  12.203  13.181  10.529  0.0636  0.3122  0.2267
13921W        W29538   7.563   6.315   6.075 -0.0469  0.0926  0.0409
13922W        W29539  10.238   2.338  14.694 -0.0393 -0.2489  0.0995
13923W        W29540   4.195  18.267   1.493 -0.1584 -0.0817 -0.1894
13924W        W29541   5.025  18.516  10.256 -0.0994 -0.0423 -0.0252
13925W        W29542  10.748  10.678   3.905 -0.0406  0.1233  0.1514
13926W        W29543  18.950  16.470   1.535 -0.2068 -0.0718  0.2273
13927W        W29544  13.369   3.503  15.216 -0.1440 -0.0979  0.0959
13928W        W29545   4.631  11.741   2.589 -0.1183  0.2485 -0.0484
13929W        W29546   3.196  16.391  11.195 -0.2132 -0.0476  0.0817
13930W        W29547   3.888   9.138   2.919 -0.2892  0.3487 -0.0932
13931W        W29548   2.518   9.605   4.552  0.4167 -0.0622  0.1352
13932W        W29549  13.532  10.662   1.248  0.0790  0.0346 -0.0727
13933W        W29550   0.501  13.782  14.095  0.3197  0.0048 -0.4172
13934W        W29551   3.940  16.751  11.589 -0.3513 -0.2375 -0.0128
13935W        W29552  11.905  13.359  15.041 -0.0567 -0.1002 -0.3002
13936W        W29553  15.620   0.937   3.471 -0.0309 -0.4352 -0.1404
13937W        W29554   7.988   8.596  10.854  0.0344  0.0985 -0.4253
13938W        W29555   1.168   3.200  10.875 -0.7632 -0.2069  0.0285
13939W        W29556   5.574  15.259   3.441 -0.0282  0.0531 -0.0568
13940W        W29557  13.443  11.686   1.761 -0.3978  0.2541 -0.2343
13941W        W29558   7.957   2.695  11.176  0.2507  0.1886  0.2839
13942W        W29559  16.045  12.455   2.067  0.0784  0.2138  0.1954
13943W        W29560  14.604   9.852  15.097  0.2512 -0.1306 -0.0945
13944W        W29561  15.713   7.345  12.877 -0.1252 -0.2042 -0.1018
13945W        W29562   3.202   3.558  12.095 -0.0772  0.1269 -0.0668
13946W        W29563  15.896  16.467   4.650  0.0007 -0.2863  0.2837
13947W        W29564  12.000  17.206   0.823 -0.2616 -0.2131  0.0345
13948W        W29565   7.843   9.311  12.741 -0.4607 -0.1138  0.1235
13949W        W29566  17.897  10.762   3.237 -0.0251 -0.1032  0.0531
13950W        W29567   9.873  14.246   2.662 -0.2554  0.2221 -0.0293
13951W        W29568  12.580  15.707   4.781  0.1171  0.3215  0.2796
13952W        W29569  18.579   2.079   1.999  0.0248  0.1010 -0.0235
13953W        W29570   9.557   3.980  12.928  0.2840  0.2200 -0.2846
13954W        W29571  12.144  17.239   2.182  0.1349 -0.0381  0.3946
13955W        W29572  16.727  12.445   1.847 -0.0252  0.1900  0.2984
13956W        W29573  12.796   3.127   0.628 -0.1287 -0.0239  0.2627
13957W        W29574  16.761   4.748  11.675 -0.0714 -0.2877 -0.0259
13958W        W29575   0.585  15.240   1.342  0.1393 -0.3359  0.0947
13959W        W29576   6.663   1.454   1.703 -0.1866  0.3361  0.3151
13960W        W29577   2.663   8.729  14.459 -0.2227  0.2126 -0.2237
13961W        W29578   6.422  11.796   0.992  0.1078  0.0579  0.2092
13962W        W29579   0.561  10.937   3.190  0.2750  0.0731  0.3078
13963W        W29580  17.654   9.522  11.214 -0.4737 -0.2724  0.0568
13964W        W29581   1.678  11.290  12.783 -0.2291 -0.1614 -0.2033
13965W        W29582   7.439  12.950  10.596  0.1763 -0.0166  0.1142
13966W        W29583   2.656  14.847   0.866 -0.0819 -0.1437 -0.2302
13967W        W29584  15.317   6.456   1.110  0.3544 -0.2878 -0.2717
13968W        W29585   8.749  17.011  11.328 -0.3214  0.0111 -0.2021
13969W        W29586  18.456   6.716   3.983 -0.3111 -0.0398  0.0245
13970W        W29587  13.641  17.609   3.416 -0.2066  0.0832 -0.1894
13971W        W29588  15.864   6.946   4.264 -0.0919  0.0592 -0.1705
13972W        W29589  14.254   1.361   4.732  0.0768 -0.0478  0.0539
13973W        W29590   9.578   1.945  12.998 -0.4774  0.1845  0.1636
13974W        W29591   5.295  14.490   4.006 -0.1514  0.0921  0.0477
13975W        W29592   9.705   8.473  10.772 -0.0588  0.2931 -0.4481
13976W        W29593   7.018  17.293  14.614 -0.0767  0.1975  0.0911
13977W        W29594  17.532  12.091  12.815  0.0619 -0.0519 -0.1037
13978W        W29595   7.022  18.193   4.030  0.1826  0.1667 -0.2087
13979W        W29596  16.643   6.099   0.130  0.3030  0.2997  0.0350
13980W        W29597   9.386   0.881  10.885 -0.1790 -0.4570  0.1046
13981W        W29598  18.123   9.145  15.023  0.4419  0.0527 -0.1343
13982W        W29599   9.679  13.077   4.420 -0.0962 -0.3201  0.2714
13983W        W29600   7.749   6.838  15.089  0.0901  0.1033  0.0506
13984W        W29601   8.210  14.650  13.239  0.0438 -0.1406  0.1849
13985W        W29602   7.009   2.856  11.398  0.0234 -0.2548  0.1085
13986W        W29603   6.128  12.685  12.246  0.2397 -0.0259 -0.1598
13987W        W29604   7.840   4.555  10.478  0.1696  0.2113 -0.0325
13988W        W29605  18.867   0.818  13.186  0.2526  0.0221 -0.0652
13989W        W29606   0.830   2.659   4.541 -0.0868 -0.0789 -0.3879
13990W        W29607   7.425   9.522   1.826 -0.2011 -0.2296 -0.1549
13991W        W29608  14.877  17.335   3.501  0.1490  0.0725  0.0203
13992W        W29609   6.872  17.674  14.306 -0.0065 -0.1421  0.1243
13993W        W29610   8.055   8.071  11.816  0.0890 -0.0179  0.4195
13994W        W29611  18.157   8.450   9.617  0.0733 -0.0496  0.3390
13995W        W29612   4.832  17.994  13.446 -0.1687 -0.0679 -0.2226
13996W        W29613  13.937   5.297   0.096 -0.0773 -0.2816 -0.1769
13997W        W29614  17.421   3.549   3.683  0.3801 -0.0232 -0.2818
13998W        W29615  12.569   2.838   1.276 -0.2570  0.2199  0.1356
13999W        W29616  17.768   0.996   4.021 -0.3439 -0.0333  0.1914
14000W        W29617   8.852   5.890  13.067 -0.0189  0.1173  0.0727
14001W        W29618  18.502   8.737   4.969  0.0643  0.0705 -0.1116
14002W        W29619   5.218   7.666  14.766  0.0316 -0.1949 -0.0544
14003W        W29620  18.328  12.168   2.942  0.0711  0.1934  0.0177
14004W        W29621  12.876  12.282   2.310  0.0478  0.0053 -0.0528
14005W        W29622  17.012  16.790   2.970  0.3286 -0.0478  0.0394
14006W        W29623  17.833   0.037   4.730 -0.0070 -0.2926  0.0410
14007W        W29624   1.986  16.866   4.045 -0.6847  0.0468  0.0092
14008W        W29625   8.633   8.364   0.024 -0.0108  0.3231  0.0810
14009W        W29626   0.874  11.192   0.765  0.0796 -0.2949 -0.1417
14010W        W29627   5.600  10.668  10.844  0.2220 -0.1383  0.1161
14011W        W29628  13.319  12.305  13.825 -0.2069  0.1897  0.1421
14012W        W29629   2.931  15.639   2.624  0.0337  0.0974  0.3694
14013W        W29630   0.323   5.523   0.680 -0.1796  0.0584 -0.4585
14014W        W29631   6.640   8.038  11.641 -0.0795  0.4300 -0.1029
14015W        W29632   0.233   0.864  11.272 -0.1494 -0.0777 -0.3615
14016W        W29633   1.588  14.694   1.810 -0.0002  0.5393 -0.0250
14017W        W29634   8.917   4.295  11.711  0.1728  0.0236 -0.1121
14018W        W29635  15.792  12.916  12.614  0.1212  0.1625 -0.1964
14019W        W29636  16.050  16.263  13.665  0.0021 -0.1097 -0.0376
14020W        W29637  15.365   7.852   2.269 -0.1236 -0.0160 -0.1570
14021W        W29638  16.916   1.707  11.941  0.0742  0.1046  0.2394
14022W        W29639   1.165   6.496   1.127  0.3050 -0.1226  0.2977
14023W        W29640   0.574   3.305  14.708  0.0756 -0.1499 -0.0442
14024W        W29641  18.417  15.729  11.665  0.1137 -0.1923 -0.1968
14025W        W29642   3.647  15.448  13.713  0.3090 -0.1577 -0.0790
14026W        W29643   3.939   6.967  12.918 -0.1100 -0.0486 -0.0075
14027W        W29644   5.772   4.506   2.496  0.0683 -0.1541 -0.0814
14028W        W29645   0.553   3.900   4.481  0.2052  0.1273  0.0553
14029W        W29646  17.979  17.768  10.118  0.0921 -0.2417 -0.1692
14030W        W29647   9.789  12.797   1.783  0.1060  0.3528  0.0158
14031W        W29648   7.908  10.590  11.151 -0.2965 -0.0714 -0.1542
14032W        W29649   5.605  17.718  11.248  0.0133  0.1532 -0.3199
14033W        W29650  13.558   7.297  10.607 -0.2405  0.0957  0.0835
14034W        W29651  15.475  10.399  11.911 -0.0365  0.2493  0.0358
14035W        W29652   8.069  14.291  14.659  0.2496 -0.2029 -0.0842
14036W        W29653  13.553  18.918  14.880 -0.2541  0.1210  0.2075
14037W        W29654   3.262   7.228   1.183  0.5437 -0.1079 -0.0600
14038W        W29655   6.499   0.161  12.151 -0.4530  0.1062  0.0821
14039W        W29656  10.363  16.706  11.582  0.3011  0.1596 -0.1712
14040W        W29657  11.007  16.661  14.087  0.0801  0.1395  0.2025
14041W        W29658   5.717   5.318  14.118  0.0628 -0.1123 -0.0212
14042W        W29659   6.923   3.975   1.102  0.2536 -0.2581  0.0099
14043W        W29660   2.460   2.105   1.404  0.1362 -0.1297  0.1847
14044W        W29661  17.099   4.230   1.296 -0.0040  0.2118  0.1571
14045W        W29662  12.716  17.574   0.304  0.1602  0.2661 -0.0528
14046W        W29663  14.745  15.139  11.637 -0.1305  0.0111  0.2871
14047W        W29664   9.296  10.481   2.559  0.1835  0.1061  0.0157
14048W        W29665  18.579  12.004   1.010  0.2144 -0.0709 -0.1182
14049W        W29666   0.911  18.499   4.331 -0.0138  0.2070 -0.0555
14050W        W29667  11.184   9.302   1.917 -0.1377 -0.0837  0.1961
14051W        W29668   0.868  13.129  11.354  0.1251  0.0143  0.2539
14052W        W29669   2.719   1.012  11.515 -0.0676 -0.4009  0.2746
14053W        W29670   4.023  13.805  10.961 -0.1831  0.4904 -0.2258
14054W        W29671   1.153  16.295  14.569 -0.0739  0.1602  0.0265
14055W        W29672   4.524   7.474   1.114  0.2362 -0.2997 -0.0040
14056W        W29673  18.361  12.744   3.060  0.3348  0.1115 -0.2707
14057W        W29674   7.971   0.984  13.613 -0.2076  0.0963 -0.1330
14058W        W29675  13.963  18.742  10.637  0.0045 -0.0847  0.2485
14059W        W29676   2.231  11.606  10.648 -0.1112 -0.0151 -0.1382
14060W        W29677   5.604  12.576   2.284 -0.0348  0.0348  0.0614
14061W        W29678  16.640  18.209  10.120  0.3328 -0.0156 -0.1059
14062W        W29679   6.634  18.769  12.905 -0.3875 -0.2167 -0.1361
14063W        W29680  17.312  16.605  11.569  0.1621  0.1716 -0.1542
14064W        W29681   8.775  12.837   2.114 -0.1276  0.3018  0.2455
14065W        W29682   7.837   6.714  11.725  0.1333  0.0914 -0.0093
14066W        W29683   7.798   6.684   5.667 -0.3125 -0.3661 -0.2599
14067W        W29684   5.754   5.700  14.647 -0.3184  0.0474  0.5849
14068W        W29685   8.798   7.716   2.769  0.0980 -0.4727 -0.0366
14069W        W29686  18.031  10.118  13.448  0.0305  0.2505 -0.1593
14070W        W29687  11.065  11.877   4.094 -0.0690 -0.0919 -0.0488
14071W        W29688  13.736   0.012   3.969  0.0921 -0.1031  0.0083
14072W        W29689   6.734   9.688  10.569 -0.1184  0.3099 -0.1293
14073W        W29690   0.305   8.264  11.750  0.0941 -0.1937 -0.1013
14074W        W29691   2.706   3.615  12.933  0.0578 -0.0249 -0.1895
14075W        W29692   7.147  14.801  11.311 -0.2224 -0.0293  0.1167
14076W        W29693  11.521   3.596   2.298 -0.1349  0.1373  0.0879
14077W        W29694   0.945  10.193  14.776 -0.3196  0.1707 -0.1645
14078W        W29695   6.573   7.100  13.713 -0.0809 -0.1963  0.1392
14079W        W29696  15.127  18.536  13.067  0.0299 -0.1132  0.0712
14080W        W29697   9.579  16.806  12.073 -0.0808 -0.2202 -0.0212
14081W        W29698   2.608  12.000   9.818  0.1376 -0.0037 -0.1423
14082W        W29699   2.422   1.523   3.738 -0.2478 -0.1628  0.3452
14083W        W29700   9.112  16.794  11.045  0.0220  0.0913  0.1246
14084W        W29701  10.034  12.567  12.122 -0.2999  0.1233  0.0839
14085W        W29702   3.516   6.929  12.581  0.1823 -0.1427 -0.0096
14086W        W29703  13.301  16.751  11.341  0.1301  0.2374  0.2396
14087W        W29704   5.324   7.307  15.265 -0.0855 -0.1553 -0.0237
14088W        W29705  13.345  12.320  10.791 -0.1076  0.3312 -0.2148
14089W        W29706   1.072   9.172   5.219 -0.0052  0.1510  0.1232
14090W        W29707   8.892   7.415  11.929 -0.2345 -0.2052 -0.2912
14091W        W29708  15.817  13.883  11.489  0.0386  0.0755  0.1841
14092W        W29709  12.412   2.559   3.982  0.0849  0.0446  0.1041
14093W        W29710   0.227   8.649   2.907 -0.0006  0.2431  0.2232
14094W        W29711   1.380  14.269   5.387 -0.1511  0.1820  0.0315
14095W        W29712   2.083   2.461  13.705  0.1870  0.0967  0.1543
14096W        W29713  16.299  18.192  12.038  0.1154  0.5602  0.0103
14097W        W29714  17.598  14.637  13.749 -0.0826 -0.1656  0.2181
14098W        W29715   5.770  11.952   1.993  0.0635 -0.2937 -0.1762
14099W        W29716   4.981  18.290   0.654 -0.3713  0.0198 -0.0421
14100W        W29717   2.493  13.050  13.628  0.1096 -0.1080  0.2858
14101W        W29718  14.019  15.505  13.747 -0.2207  0.2031 -0.0826
14102W        W29719  16.574  14.542   1.099 -0.3813 -0.1513  0.1544
14103W        W29720  12.107   6.042   1.368  0.2222  0.2175 -0.1349
14104W        W29721   4.518  15.392  13.747  0.2569  0.0881  0.1378
14105W        W29722   3.995  18.855  12.371 -0.2258  0.0952  0.2289
14106W        W29723   6.118  11.993   1.676 -0.2623 -0.1839  0.0930
14107W        W29724  14.446   9.428   1.492 -0.3327  0.1138  0.2312
14108W        W29725   9.100  11.824   3.051  0.2066  0.3009 -0.0576
14109W        W29726  13.107  17.435   0.811 -0.0732 -0.1257 -0.4082
14110W        W29727   0.765  16.241   9.837  0.0775 -0.3008  0.0259
14111W        W29728  18.134  11.598   2.699 -0.1698  0.2600  0.0707
14112W        W29729  16.557  15.924   2.726 -0.1710 -0.1146 -0.0880
14113W        W29730   2.811   3.218  13.900 -0.1471 -0.4781  0.4176
14114W        W29731   6.207  14.712  13.116 -0.5519 -0.0667  0.1051
14115W        W29732   3.787  17.679  13.557  0.3494  0.3586  0.0480
14116W        W29733   6.713   9.061  12.633  0.0240  0.3842 -0.0089
14117W        W29734   7.669   6.956   0.310 -0.0588 -0.1403  0.1714
14118W        W29735  11.261  18.082  12.635  0.2832 -0.2724  0.0296
14119W        W29736  16.027  15.619  13.127 -0.1454  0.2980 -0.1746
14120W        W29737   1.561   0.817  12.022 -0.1080  0.1455  0.0539
14121W        W29738   4.924   4.475  14.208  0.0170  0.1083 -0.1049
14122W        W29739   8.759   1.200   2.389  0.0415  0.4387 -0.2849
14123W        W29740  10.783   1.951  15.029  0.1275 -0.1503  0.2055
14124W        W29741  16.613  11.877   3.023 -0.1067  0.2497  0.3671
14125W        W29742   6.844   8.025  15.198 -0.2759 -0.0512  0.0329
14126W        W29743  15.844   4.977  14.963 -0.4109 -0.3002 -0.1836
14127W        W29744  10.729   3.510   4.682  0.2078 -0.2541  0.1345
14128W        W29745  19.052   5.908  14.276 -0.1658 -0.0280 -0.2508
14129W        W29746  14.155   9.630   3.469 -0.0374  0.4207 -0.0647
14130W        W29747   0.759  18.998  14.871  0.0335  0.0944 -0.2361
14131W        W29748   3.733   0.235   1.177 -0.0048 -0.0890 -0.0619
14132W        W29749   3.319   3.026   3.533  0.2600  0.0009 -0.0576
14133W        W29750   1.184   3.016   5.393  0.0881 -0.3160 -0.0159
14134W        W29751  15.687  13.290  13.793 -0.1443  0.1675  0.1926
14135W        W29752  13.504  18.788   0.431 -0.0643 -0.1146  0.1652
14136W        W29753  16.031   1.319  11.634 -0.0008 -0.1709  0.1998
14137W        W29754  13.001   1.385   2.945  0.0191 -0.2186  0.0796
14138W        W29755   3.709   7.887   4.440 -0.1459 -0.1417 -0.0699
14139W        W29756   6.338   3.873   1.390  0.4339 -0.1817 -0.2778
14140W        W29757   4.009  15.139  11.740  0.2604  0.3697  0.2477
14141W        W29758   1.850  18.865  10.347  0.1336 -0.1178 -0.3003
14142W        W29759   2.525  17.512  14.788  0.0302 -0.0628  0.1775
14143W        W29760  17.884  15.214   4.531 -0.0250  0.1255  0.0598
14144W        W29761  12.631   6.392  11.068  0.0797 -0.1132  0.0653
14145W        W29762  10.193   2.075  14.174 -0.1214  0.1020  0.0350
14146W        W29763   4.373   3.253  13.244  0.0002  0.2003  0.0389
14147W        W29764   3.184   0.355  11.860  0.0383  0.2584 -0.2910
14148W        W29765  14.148  11.907  11.716  0.2368 -0.2472  0.0702
14149W        W29766   7.074  13.804  10.041  0.2102  0.0969  0.0932
14150W        W29767  12.668   8.955   5.041  0.0016  0.2437 -0.0518
14151W        W29768   4.972   4.848   4.510  0.0240  0.1178 -0.1323
14152W        W29769  15.586  14.199  14.237  0.2120 -0.1925  0.2164
14153W        W29770   4.113   0.915   2.337 -0.1689 -0.2909  0.3314
14154W        W29771  18.621   5.948   3.833 -0.0993  0.0921 -0.1507
14155W        W29772  14.800  16.925  11.552  0.0546  0.0480  0.2382
14156W        W29773  11.645  15.523  13.261  0.0781 -0.0417 -0.3727
14157W        W29774   9.804  11.901   3.643 -0.3871 -0.3018  0.0867
14158W        W29775  17.746  19.079  10.017 -0.3464 -0.0812  0.2023
14159W        W29776  13.724   0.413   9.569  0.2712  0.0940  0.0880
14160W        W29777   6.948  11.405   0.128 -0.1338  0.0414 -0.0936
14161W        W29778   7.666   7.386  11.016 -0.1115  0.3667 -0.2207
14162W        W29779   7.930  10.272  13.206 -0.1413  0.3681  0.1010
14163W        W29780   3.746   2.027   2.920  0.6296  0.1217  0.3219
14164W        W29781  18.458   0.888   9.726  0.4335 -0.0252 -0.2086
14165W        W29782   9.748  15.874  14.492 -0.1631 -0.1426  0.1635
14166W        W29783  11.946   1.233   0.267  0.0762  0.1598  0.2948
14167W        W29784   0.824  18.826   4.854  0.0572  0.0129 -0.0386
14168W        W29785   4.809  15.801   2.272 -0.0406  0.0943 -0.0674
14169W        W29786  11.697  16.213   1.189 -0.0270  0.1188  0.1426
14170W        W29787  10.255   9.570   4.267  0.1119 -0.0476 -0.0877
14171W        W29788  15.035  15.047   3.459 -0.0559 -0.0484  0.0426
14172W        W29789   9.815   4.501   3.616 -0.1164  0.0846  0.1132
14173W        W29790   5.926   9.785   1.150 -0.0988 -0.0314  0.1018
14174W        W29791  14.768   4.317   3.413 -0.3355 -0.3180  0.0282
14175W        W29792  10.443   6.732   5.798 -0.3883  0.3997  0.2810
14176W        W29793  11.997   4.680   5.511  0.1702 -0.0991  0.2190
14177W        W29794   9.518  13.408  13.331 -0.0159  0.0653  0.3970
14178W        W29795  18.914   1.317  13.008  0.2031  0.0688  0.0750
14179W        W29796  12.537   3.438  10.832  0.1395 -0.2265 -0.2128
14180W        W29797  10.429   3.496   1.942  0.0851 -0.2223  0.0497
14181W        W29798   0.739   3.476  12.036 -0.5580  0.2202  0.0020
14182W        W29799  11.553  11.287  13.676 -0.0234  0.0800  0.3252
14183W        W29800   5.509  18.797   5.101  0.4397  0.1577 -0.2454
14184W        W29801  13.521   6.446  13.803 -0.1044 -0.2446 -0.0461
14185W        W29802  13.766  14.463  11.952 -0.1837  0.2982 -0.2497
14186W        W29803   8.302   3.439   1.081  0.3022 -0.2055  0.0454
14187W        W29804   3.396   4.339   5.830 -0.3287  0.0208  0.0083
14188W        W29805  17.750  11.557  11.191  0.0063 -0.3453 -0.3120
14189W        W29806  15.515  16.025  14.462  0.2092  0.0918 -0.1559
14190W        W29807   0.850  10.826   3.644 -0.2843 -0.2988  0.0578
14191W        W29808  16.370   4.764  13.125  0.0728  0.0038 -0.3100
14192W        W29809   5.146   5.429   4.733 -0.1093 -0.2776 -0.0871
14193W        W29810  10.192  12.156  14.130  0.0871 -0.1128 -0.2493
14194W        W29811   0.259   4.096  11.233  0.0263 -0.1767 -0.2466
14195W        W29812  16.307  10.455   2.106 -0.0934 -0.1346 -0.1902
14196W        W29813   9.334  18.745  13.330  0.1316 -0.0850  0.2779
14197W        W29814   6.524   3.726   4.189 -0.1146  0.1443  0.1016
14198W        W29815  18.630   6.778   0.318  0.3798 -0.0650 -0.0141
14199W        W29816   1.364   5.055   6.181 -0.1063 -0.1832 -0.0697
14200W        W29817   6.241  12.706  14.068  0.0952 -0.0669  0.0152
14201W        W29818   8.042  15.805   2.781 -0.0685 -0.2951  0.0549
14202W        W29819  12.657  12.291  10.607  0.4324 -0.2727  0.1828
14203W        W29820   6.499   5.084  15.098  0.0540 -0.4858  0.3660
14204W        W29821   5.752  15.163  11.796  0.1160 -0.0473  0.1963
14205W        W29822   3.870   0.358   5.350  0.0774  0.4050  0.0511
14206W        W29823  19.007  15.479  12.912  0.2197 -0.0783 -0.1285
14207W        W29824   1.309   8.259  11.912  0.0506  0.0141  0.0735
14208W        W29825  17.598   5.374  11.437 -0.0301  0.2340 -0.1837
14209W        W29826   8.929   7.658  14.895  0.0286 -0.1760  0.2567
14210W        W29827   8.349   6.497  12.817  0.0976 -0.0135  0.0702
14211W        W29828  13.380   2.545   3.902  0.1725  0.1747  0.2479
14212W        W29829   3.086   7.929  11.816  0.0050  0.0787 -0.0776
14213W        W29830   2.350   7.818  13.781  0.1881 -0.1974  0.1171
14214W        W29831   4.528  17.342   4.655 -0.1412 -0.1724  0.1390
14215W        W29832   9.414   9.702   1.301  0.0126 -0.0760  0.1303
14216W        W29833  16.723   4.684  15.251 -0.0464 -0.2886 -0.0873
14217W        W29834   4.920  13.290   5.538 -0.2455  0.2454 -0.0913
14218W        W29835   3.500  16.753   0.081 -0.2005  0.3025  0.1293
14219W        W29836   6.999  16.089  10.153  0.2568 -0.0469 -0.3991
14220W        W29837  14.787   0.543  13.678  0.1729  0.1505  0.0486
14221W        W29838  14.908  14.895  14.656 -0.0995  0.1225 -0.1619
14222W        W29839  18.796   6.611  11.478 -0.0171  0.3585  0.1424
14223W        W29840  10.009   0.025   2.358 -0.0697 -0.3818  0.0200
14224W        W29841  16.455   6.745  14.730  0.1886 -0.2124 -0.2419
14225W        W29842   6.720   6.809  11.325 -0.0431 -0.1101 -0.0596
14226W        W29843  12.813   9.265   4.428  0.1901 -0.1561  0.1914
14227W        W29844  10.313  19.023  12.319  0.0429  0.0037 -0.0972
14228W        W29845   2.838  11.657   3.942  0.0151 -0.0456  0.2567
14229W        W29846  10.763   2.490  14.604  0.2140  0.3773  0.0190
14230W        W29847  18.996  15.820   1.162 -0.2279 -0.0246  0.1783
14231W        W29848  16.600   2.173  11.721  0.0604 -0.0785 -0.1958
14232W        W29849   4.489   3.357  14.161  0.2657  0.0942 -0.2587
14233W        W29850   8.559  17.399   4.782  0.0797 -0.1150  0.1984
14234W        W29851   3.963   5.894   3.737  0.2022  0.1398 -0.1239
14235W        W29852   3.705  15.089   1.470 -0.2354  0.2926 -0.1550
14236W        W29853   1.755   4.433   1.027  0.0275  0.0061  0.3973
14237W        W29854   1.730   9.912  12.628 -0.0756  0.2132 -0.2946
14238W        W29855   5.783  13.791   4.661 -0.0933  0.0074  0.0509
14239W        W29856  11.020  15.521  10.979  0.0602  0.1275 -0.0443
14240W        W29857  15.144  11.267  12.408 -0.1068  0.2149  0.2740
14241W        W29858  13.574   5.740  14.574 -0.5605  0.0976 -0.1355
14242W        W29859  14.963   5.941   0.040  0.3521 -0.1292  0.0550
14243W        W29860   1.042   0.280  15.073  0.0121  0.1640  0.1466
14244W        W29861   1.508  10.020  12.152 -0.1224 -0.1777 -0.0887
14245W        W29862  13.687   0.963  12.184  0.0518 -0.0451 -0.0216
14246W        W29863   0.728  12.467  13.649  0.0487 -0.2204 -0.0997
14247W        W29864   1.023   6.598  11.292  0.4604 -0.0194  0.0179
14248W        W29865  12.135  18.670  13.159  0.0620  0.1779 -0.0583
14249W        W29866   0.628   3.736   2.357 -0.1512  0.1074 -0.0343
14250W        W29867   8.612  12.129   2.870  0.3743  0.0695  0.0386
14251W        W29868   0.801   2.026  15.037  0.0527 -0.0583 -0.0074
14252W        W29869   7.931  16.893  12.505 -0.2438  0.4847  0.0155
14253W        W29870  17.091  11.647  15.042  0.1296 -0.0282  0.1676
14254W        W29871  16.959  18.108  15.193  0.0738 -0.2212  0.0442
14255W        W29872  14.170  16.649   2.229  0.2472 -0.0695  0.2037
14256W        W29873  13.533  13.565   3.061 -0.1614 -0.0284 -0.1648
14257W        W29874  14.563   1.171   3.156 -0.0943 -0.0700 -0.2121
14258W        W29875  17.221   0.448  14.032 -0.0731 -0.1241  0.0000
14259W        W29876   2.261  10.128  13.415 -0.0995  0.0861  0.0791
14260W        W29877   5.516   3.152  11.110  0.2019  0.1227 -0.0978
14261W        W29878  15.693  11.680  10.566 -0.1744 -0.0185  0.0447
14262W        W29879  14.838   4.324   5.671  0.3621 -0.1713 -0.1368
14263W        W29880   4.162   0.254  11.038  0.2021 -0.2181  0.1994
14264W        W29881  14.776  18.178   5.216 -0.1132  0.1561 -0.1451
14265W        W29882   6.570   5.152  12.571 -0.2288 -0.2311 -0.0758
14266W        W29883   1.820   9.290  14.955 -0.2201  0.0867  0.1238
14267W        W29884  13.118  13.584  15.224 -0.0261  0.0089  0.3087
14268W        W29885  11.241  14.823   0.929 -0.1299 -0.1818  0.0521
14269W        W29886   9.106  10.812  12.669 -0.3759  0.0283 -0.0613
14270W        W29887  18.345   0.517  15.273 -0.2985 -0.1460 -0.2542
14271W        W29888   5.517   3.431   4.581 -0.2285  0.0668 -0.1423
14272W        W29889   3.535  18.298  14.389  0.0611  0.0200 -0.2469
14273W        W29890   0.913   0.732   4.443  0.0239 -0.1394  0.2049
14274W        W29891  14.021   6.719  12.250  0.2084  0.0091 -0.1104
14275W        W29892   7.581  14.734   0.170 -0.1703  0.0712  0.1017
14276W        W29893   1.024   3.615   3.629  0.2154  0.0243 -0.2630
14277W        W29894  12.279   8.211   1.942 -0.3341 -0.1154 -0.0563
14278W        W29895   6.630  12.298   3.597  0.0771 -0.3529  0.3141
14279W        W29896   9.839   2.817   5.474  0.0526 -0.0023 -0.1615
14280W        W29897   5.479  16.635   4.546  0.0410  0.3216  0.0927
14281W        W29898   2.193  15.071  13.348  0.3705 -0.2118  0.2009
14282W        W29899   5.321  13.310  11.285  0.2433 -0.0635  0.0306
14283W        W29900  15.961  14.199   4.043 -0.1796  0.2446  0.1310
14284W        W29901  17.521  18.236  10.425 -0.0577 -0.0599 -0.0702
14285W        W29902   2.479  18.706   2.213  0.0289  0.3970  0.2061
14286W        W29903  18.251   2.110  10.896 -0.1096  0.2446 -0.0497
14287W        W29904   6.090   9.920  12.676  0.1134  0.0594  0.3394
14288W        W29905   4.123   1.647  14.230  0.4706  0.0253 -0.1081
14289W        W29906   0.012   1.061   5.519 -0.0101  0.1281  0.1899
14290W        W29907   1.891  18.445   4.690  0.2488  0.1983 -0.1671
14291W        W29908   6.290   3.910  12.092  0.1711  0.1442  0.2928
14292W        W29909   2.864  14.284  10.391  0.2586 -0.0116 -0.0774
14293W        W29910   4.720  18.779   5.634  0.1507  0.2769  0.0727
14294W        W29911  11.856   8.343  10.667  0.0620 -0.0142  0.0139
14295W        W29912   7.586  18.084  10.086  0.1071 -0.1477 -0.0787
14296W        W29913  18.581  10.387  14.034  0.0650 -0.4583 -0.1113
14297W        W29914  14.455   2.354   2.058  0.1939  0.0910 -0.2196
14298W        W29915  12.176   7.586  14.185 -0.1269  0.0446  0.2434
14299W        W29916  10.073  14.235   3.097 -0.1998 -0.0001 -0.1693
14300W        W29917  11.899   0.469  12.282 -0.3650  0.0511 -0.0617
14301W        W29918   7.164  12.386   1.385 -0.1820  0.2040  0.2072
14302W        W29919   2.508  12.625   4.144  0.1671 -0.0370 -0.0347
14303W        W29920   9.029  16.511   3.632 -0.0260 -0.0718  0.1450
14304W        W29921   1.807   9.962  13.257 -0.1146 -0.1111  0.0616
14305W        W29922  10.358  11.277   0.935  0.0369  0.0850 -0.1115
14306W        W29923  11.812   4.534   0.461 -0.2626 -0.1465 -0.0503
14307W        W29924   4.976   9.568   4.091 -0.0347  0.0096  0.0972
14308W        W29925   5.357  15.744  13.473 -0.2971 -0.0656 -0.1386
14309W        W29926  13.662  12.776   3.532  0.1844  0.1816 -0.1465
14310W        W29927   8.169   5.876  15.001  0.0298 -0.1044 -0.1651
14311W        W29928   5.049  17.528   2.409 -0.1511  0.1461 -0.0646
14312W        W29929  16.261  14.498   3.041  0.2595 -0.0440  0.1203
14313W        W29930   6.797  12.674  14.575  0.1257 -0.3461  0.1240
14314W        W29931  17.927  13.397  14.179  0.3305 -0.3267  0.1963
14315W        W29932  10.480   6.449   0.530 -0.0355  0.1099 -0.1997
14316W        W29933   2.824   3.827   1.790 -0.0930  0.0224 -0.1207
14317W        W29934   3.733   9.776   4.584  0.0058  0.2236 -0.1286
14318W        W29935   5.794   1.943   5.483 -0.0489  0.1819  0.0348
14319W        W29936   5.766  17.002   4.637 -0.0178 -0.0279 -0.0842
14320W        W29937   7.779   3.594   2.887  0.1985  0.2981 -0.0182
14321W        W29938   1.019   2.999  12.412  0.0768 -0.0334 -0.1004
14322W        W29939   9.267  17.496   4.730  0.3179 -0.0324  0.3643
14323W        W29940   8.544  16.967  12.432 -0.2087  0.3618 -0.2411
14324W        W29941  12.232  14.664  13.977 -0.0482 -0.1284  0.1102
14325W        W29942  16.025  14.791   0.988 -0.2633  0.1013  0.2550
14326W        W29943   7.526   5.306   0.539  0.2025  0.0395  0.0376
14327W        W29944  16.903  17.073  13.132 -0.0428  0.0062  0.0722
14328W        W29945   7.731  12.904   1.777  0.1111 -0.0320  0.0168
14329W        W29946   0.620   3.325   0.597 -0.0213  0.0623 -0.0291
14330W        W29947   9.052   2.423  12.080 -0.1867  0.1943  0.2952
14331W        W29948  10.834   7.672  14.712 -0.2440 -0.0890  0.0769
14332W        W29949   8.013  18.792   5.298  0.1447  0.2189  0.2475
14333W        W29950   6.255   6.761  11.161  0.1317  0.1668  0.2239
14334W        W29951   0.003   1.519   0.293  0.0013 -0.1732 -0.0919
14335W        W29952   4.884  18.503  10.718  0.0147 -0.3273 -0.1744
14336W        W29953   1.188   2.536   2.918 -0.1788  0.3185 -0.2530
14337W        W29954   9.618   1.993   3.983  0.1137 -0.0925  0.1661
14338W        W29955   9.746  12.586  14.161 -0.1116  0.0147  0.0790
14339W        W29956  15.415   4.978  14.755  0.2230 -0.4484  0.1446
14340W        W29957  14.524  13.845   2.103 -0.1732  0.0528 -0.0708
14341W        W29958   3.019   3.779  15.279  0.0801  0.0412 -0.0353
14342W        W29959   5.243   7.649   1.650  0.0849  0.1681 -0.1512
14343W        W29960   7.046   6.845  14.284  0.0089  0.1234 -0.0198
14344W        W29961   6.369   2.898  13.875  0.1114  0.1295  0.0235
14345W        W29962   3.396  16.717   3.190 -0.1310  0.0225 -0.2240
14346W        W29963   3.321   4.681   2.378  0.0388  0.0904 -0.1287
14347W        W29964  11.489  13.709   1.411 -0.1101 -0.0764  0.2800
14348W        W29965   3.860  12.265  11.716 -0.0566 -0.2186  0.2165
14349W        W29966  17.975  15.315   0.231  0.0638  0.0278  0.0056
14350W        W29967   1.626  13.357   0.232  0.1582 -0.1039 -0.0826
14351W        W29968  10.132  12.108  15.232 -0.0440  0.2491  0.0767
14352W        W29969   0.384   7.895  14.384  0.1191  0.0022  0.3645
14353W        W29970   9.674   9.692   5.054  0.1971  0.0101 -0.0569
14354W        W29971   7.190   7.780  13.607 -0.1155  0.1690  0.0779
14355W        W29972  15.829  16.334   1.420  0.0873 -0.0568 -0.0526
14356W        W29973  13.254  18.569  12.153 -0.1658 -0.0009  0.1325
14357W        W29974  12.626   5.970   2.903 -0.0099  0.0553  0.1011
14358W        W29975  14.325  17.663   4.121  0.0753 -0.2688 -0.3446
14359W        W29976   1.966  17.349   1.499 -0.3937  0.2818  0.0071
14360W        W29977   2.110  14.934   3.645  0.1094 -0.1776 -0.1438
14361W        W29978  14.120  14.916   4.618 -0.0930 -0.3209 -0.3084
14362W        W29979   9.772  11.151   4.194 -0.1874 -0.0516 -0.0747
14363W        W29980   5.067  14.696   1.898 -0.0394 -0.0195  0.3861
14364W        W29981   6.545   4.218  11.461 -0.4958  0.4236  0.0692
14365W        W29982  13.974   4.706  10.536  0.2769  0.0590  0.0426
14366W        W29983  18.733   8.428  12.509  0.0868  0.0906  0.1322
14367W        W29984   1.166  11.073  14.055  0.2902  0.4853 -0.0808
14368W        W29985  12.095  10.315   5.257  0.1421  0.0440 -0.1948
14369W        W29986   5.427  16.249   4.145 -0.1257  0.1000  0.0387
14370W        W29987  16.294  15.786   2.228 -0.2438 -0.1630  0.0745
14371W        W29988  11.494  18.546   1.185 -0.1476  0.0080 -0.0220
14372W        W29989   6.223   5.717   2.779  0.3255  0.0707  0.1309
14373W        W29990   9.203  10.103  14.158  0.0115 -0.1264 -0.3366
14374W        W29991   8.540  16.175  13.636  0.1349  0.0603 -0.0570
14375W        W29992  13.359   2.583  11.866  0.0060  0.2037 -0.2723
14376W        W29993   2.780   7.225  11.374 -0.0870  0.2977  0.0286
14377W        W29994   8.442  14.718   1.593  0.0406 -0.0569 -0.2594
14378W        W29995  15.460   6.528   1.571 -0.0742 -0.1432 -0.3323
14379W        W29996   5.928  18.218   4.040 -0.3984  0.2218  0.0245
14380W        W29997   4.374   7.024  15.214  0.1012  0.0929  0.1322
14381W        W29998  13.081   8.974  13.444  0.1572 -0.2262 -0.4418
14382W        W29999   8.832   3.603  13.022  0.3160  0.0848 -0.0433
14383W        W30000   4.572  11.522  13.306 -0.2818  0.0350 -0.0500
14384W        W30001   0.534  17.436  10.289  0.3306 -0.1279  0.3382
14385W        W30002  18.814   2.645   1.201 -0.2659 -0.0406  0.0339
14386W        W30003   3.854   9.409   1.004  0.1165  0.3445 -0.1883
14387W        W30004   0.981  10.939   2.024 -0.2790 -0.0006  0.2379
14388W        W30005   2.274  16.023  12.739  0.3377 -0.0310  0.3250
14389W        W30006   3.974   1.654  14.719 -0.2004 -0.1123 -0.0354
14390W        W30007  13.439  18.207  13.125  0.0250  0.0773  0.1207
14391W        W30008  16.485   8.572  10.638 -0.2730 -0.4618  0.3553
14392W        W30009   9.137  18.955  11.004 -0.1025  0.2535 -0.1266
14393W        W30010   8.119  12.697  12.819  0.0319  0.2827 -0.0124
14394W        W30011  12.926   5.174   1.582  0.2069  0.2271 -0.0051
14395W        W30012  11.866   0.861  13.522  0.0278  0.2171 -0.0210
14396W        W30013  13.169   4.775  11.127 -0.1787 -0.0283 -0.0515
14397W        W30014   2.646   5.594   4.535  0.1430 -0.0857  0.1073
14398W        W30015   2.171   8.429  11.404  0.4206  0.1147  0.2926
14399W        W30016   1.154  11.289   0.229 -0.5363 -0.1178 -0.2156
14400W        W30017   4.633   7.271  13.836  0.0714  0.1854 -0.1318
14401W        W30018  10.224   9.191  11.384  0.0885 -0.2953 -0.0059
14402W        W30019   5.204   6.944  11.934  0.1687  0.0398  0.3409
14403W        W30020  17.713  17.363  14.826 -0.0402 -0.2718  0.1301
14404W        W30021  15.846   5.317   1.979 -0.1236 -0.1134  0.0654
14405W        W30022   1.527  16.733  13.494  0.1776  0.0515 -0.0437
14406W        W30023   5.854  13.912  11.183  0.0809  0.1130 -0.1123
14407W        W30024  12.834   6.744  14.299  0.0691 -0.0960  0.0452
14408W        W30025  18.770   2.030   2.467  0.0198 -0.1449 -0.4979
14409W        W30026  11.816  11.780  13.115 -0.1224  0.1278  0.3156
14410W        W30027   0.245  17.538  14.798 -0.0016 -0.0195 -0.4786
14411W        W30028   2.850  17.173   4.511 -0.1448 -0.0314  0.1256
14412W        W30029   0.746   9.470  14.301 -0.4241  0.2152 -0.1468
14413W        W30030  11.617   7.103   2.002 -0.3721  0.0568 -0.1037
14414W        W30031  18.356   9.119  10.664 -0.1358 -0.1294 -0.0180
14415W        W30032   1.373   6.438   5.384 -0.3061 -0.3031  0.0340
14416W        W30033   6.312   4.614   0.201  0.0287 -0.1935 -0.4142
14417W        W30034  17.643   9.102   1.504 -0.1072  0.0217  0.0925
14418W        W30035   1.319   5.785   3.188  0.1337 -0.0872  0.1203
14419W        W30036  14.141  11.596  10.874 -0.1576  0.1978  0.1372
14420W        W30037   2.589  11.490   0.027 -0.3494  0.1887 -0.1252
14421W        W30038  12.620  17.214   0.672 -0.1767 -0.0351  0.1768
14422W        W30039   7.052  17.519  13.356  0.2830 -0.0221  0.3935
14423W        W30040   5.914   8.641  13.250  0.1532 -0.2521  0.1517
14424W        W30041  16.270   4.788  11.558 -0.0343 -0.3394 -0.1102
14425W        W30042  12.448  16.818  11.283 -0.3174 -0.0986 -0.3012
14426W        W30043  17.098   5.137   5.011  0.1836 -0.3012 -0.2637
14427W        W30044  18.612  15.016   3.180  0.4185 -0.2825  0.1655
14428W        W30045   0.646  11.478  11.830 -0.1525 -0.1549 -0.1792
14429W        W30046  17.796  18.169  13.173 -0.1359 -0.3280 -0.0234
14430W        W30047   2.636   1.320  13.933 -0.1695 -0.0196  0.0661
14431W        W30048   0.161   7.433  15.178 -0.1553  0.2350  0.2945
14432W        W30049   3.335  16.713  13.983  0.3536  0.1348  0.1343
14433W        W30050  12.625   7.292  10.788  0.1297 -0.0775  0.4948
14434W        W30051   5.566   9.519   2.742 -0.0146  0.1584  0.2683
14435W        W30052  16.917   7.603   0.986  0.0856 -0.2847 -0.1670
14436W        W30053  11.268  11.338   1.421  0.1904  0.0439 -0.2036
14437W        W30054   1.611   1.017  13.066  0.3433 -0.0499  0.0662
14438W        W30055   7.715   2.156  11.241 -0.0929 -0.1477 -0.0036
14439W        W30056   2.868  17.298   3.764 -0.0334 -0.0652 -0.1122
14440W        W30057   8.569  15.159   3.677 -0.2233 -0.0924  0.0943
14441W        W30058   3.115   1.591   3.514  0.1515 -0.2637 -0.0570
14442W        W30059  17.075  14.798  13.872  0.3814  0.4205 -0.4696
14443W        W30060   3.685   4.370   2.612  0.2477  0.2577  0.0808
14444W        W30061   3.052  13.566  12.493  0.1372 -0.2158 -0.0239
14445W        W30062   2.366   8.984  14.870 -0.0225 -0.5564 -0.0185
14446W        W30063  14.181   7.896  14.061 -0.6891 -0.3358 -0.2279
14447W        W30064  18.750  13.155  14.784  0.0547  0.3876 -0.3474
14448W        W30065  10.575   7.870  15.175  0.1877  0.1677 -0.0511
14449W        W30066   0.134   9.767   0.030 -0.1639  0.2410 -0.2808
14450W        W30067   7.229   2.572   3.996 -0.3952 -0.3727 -0.1177
14451W        W30068   1.235  16.935   1.205  0.1152  0.3903  0.1907
14452W        W30069  16.668  17.836   4.922  0.2936  0.2679 -0.0128
14453W        W30070  14.708  15.433  13.173  0.0328  0.0365  0.0519
14454W        W30071   2.188  14.200  15.118  0.0379 -0.3787  0.3734
14455W        W30072   3.423   1.747  10.282  0.0470  0.0931 -0.2033
14456W        W30073   8.812  16.466   2.699  0.0579  0.0312  0.2324
14457W        W30074   8.794   9.172  14.410 -0.1441 -0.0967 -0.4774
14458W        W30075   1.998  14.442   3.553  0.4619  0.0880  0.1708
14459W        W30076  18.226  16.783   0.276  0.0434 -0.0581  0.0660
14460W        W30077  17.569   1.228  13.304 -0.0827 -0.1136  0.0021
14461W        W30078   6.576   4.122   0.738 -0.0348 -0.0104  0.1270
14462W        W30079  16.872   6.008  11.071 -0.0194  0.1758 -0.0652
14463W        W30080  10.418   8.029  11.828 -0.0186  0.0487  0.1046
14464W        W30081  14.430  10.732  14.662  0.0567 -0.0034 -0.0721
14465W        W30082   9.150  12.737   2.465 -0.0638 -0.2143  0.1505
14466W        W30083  11.969   0.613  11.417 -0.0164  0.6242  0.0912
14467W        W30084  11.888  14.983  13.111 -0.1698 -0.0758  0.1660
14468W        W30085   3.948  11.736  14.102  0.1241 -0.0089 -0.2168
14469W        W30086  13.882  14.206   0.196  0.0803  0.3029  0.0785
14470W        W30087  18.763   9.590   0.448  0.2031 -0.1519  0.0580
14471W        W30088  11.123  17.233   1.226 -0.1065  0.0031 -0.1372
14472W        W30089  13.253  12.735   0.168  0.2543 -0.0162 -0.1677
14473W        W30090  10.043  17.229   6.286  0.0767 -0.0024  0.0941
14474W        W30091   5.777  14.618   3.421  0.2634  0.0662  0.0361
14475W        W30092   4.540   1.894  11.199 -0.2370  0.2144 -0.1190
14476W        W30093   7.417   8.008  13.184 -0.5515 -0.2777  0.0460
14477W        W30094   5.869   0.788   4.375  0.0120  0.1929 -0.0743
14478W        W30095   2.582  12.214   1.724  0.0103  0.3596 -0.1803
14479W        W30096   9.318  11.141  11.763 -0.0403 -0.2656 -0.0108
14480W        W30097   5.791   7.645  14.785  0.0408  0.0065  0.0074
14481W        W30098  17.969  14.579  13.244  0.7081 -0.0605 -0.2538
14482W        W30099   0.454  15.679  12.685  0.1909 -0.1441  0.0100
14483W        W30100  11.334   2.772   1.061  0.1453 -0.3394 -0.3262
14484W        W30101  14.806   4.195   2.477  0.2899  0.1667  0.0295
14485W        W30102  18.866  11.693   1.565  0.1201 -0.2940  0.1338
14486W        W30103   4.632   5.662   4.727  0.1468  0.0125  0.0361
14487W        W30104  11.055  18.766  10.679 -0.1931 -0.0223 -0.0384
14488W        W30105  13.932  15.819  11.730 -0.1647 -0.4301  0.0539
14489W        W30106   2.160   1.951  13.911 -0.4318  0.2533  0.0148
14490W        W30107  18.068   6.397  14.431  0.1680 -0.2367 -0.2574
14491W        W30108  14.579   6.394   1.860  0.1850  0.1613 -0.2870
14492W        W30109  18.991  11.007  13.775 -0.0346 -0.0980 -0.1310
14493W        W30110  15.656  10.450  14.345 -0.1539 -0.0942 -0.2127
14494W        W30111   0.413  11.250   3.633  0.1501  0.2278  0.0939
14495W        W30112   2.959   7.917   2.584 -0.2715  0.0414 -0.1519
14496W        W30113   1.402   0.927  12.493 -0.1898 -0.2823  0.0679
14497W        W30114   0.198   5.902  11.144 -0.1755 -0.1329 -0.0581
14498W        W30115  13.305   1.273   4.469  0.1547 -0.0500 -0.1432
14499W        W30116  10.944  17.365  12.488 -0.0188 -0.0981  0.1354
14500W        W30117  10.533  13.527   0.617 -0.2735  0.1044  0.0660
14501W        W30118  15.803   9.362  13.763  0.4079  0.2311  0.0981
14502W        W30119   6.877  11.927  11.055  0.3153  0.1149  0.0284
14503W        W30120  10.437   3.880  10.265 -0.3168 -0.0384 -0.0055
14504W        W30121  18.289   3.948  11.178 -0.1159 -0.0308 -0.2114
14505W        W30122  18.684  18.422  12.779  0.2555 -0.1788  0.0308
14506W        W30123  17.420   0.803  11.556  0.2453 -0.2355  0.1881
14507W        W30124   6.317  17.046   3.657  0.2376 -0.1317 -0.1865
14508W        W30125  17.021   9.791  10.092 -0.1910 -0.0084  0.0159
14509W        W30126  10.128   2.209  12.177 -0.0322  0.0592  0.1026
14510W        W30127   9.313   0.896   0.301 -0.1922 -0.0984  0.0904
14511W        W30128  14.594   7.471   3.404 -0.0440  0.2647 -0.0419
14512W        W30129   0.951  12.255   0.587  0.3715 -0.1266 -0.0108
14513W        W30130  16.201   2.549  11.738  0.3032 -0.2167  0.0001
14514W        W30131   9.536  14.751  14.450 -0.0540  0.1523 -0.1112
14515W        W30132  14.825   3.688  12.038 -0.3423 -0.3146 -0.2598
14516W        W30133  10.711   6.307  14.884  0.3165 -0.1144 -0.0316
14517W        W30134  14.627  13.402  12.312  0.1110 -0.1047 -0.0120
14518W        W30135   2.702  18.142  11.832  0.1087  0.1551  0.0974
14519W        W30136  15.342  15.969   4.963  0.2251 -0.1419  0.2502
14520W        W30137   9.068   4.016  14.516 -0.3605 -0.0414  0.1044
14521W        W30138   4.013  11.311  10.604  0.3302 -0.2032  0.1220
14522W        W30139  10.365  18.582  12.932 -0.0899  0.3120  0.0190
14523W        W30140  18.813   1.980   0.260 -0.2081  0.2245  0.3009
14524W        W30141  14.582   5.601  14.838  0.3919  0.4546 -0.1944
14525W        W30142  13.252  13.729  13.329  0.1139  0.1265  0.5974
14526W        W30143   7.223  10.035  15.196 -0.0978  0.0689 -0.0632
14527W        W30144  11.332  14.482   4.019 -0.0007  0.0435  0.0645
14528W        W30145  14.353   3.406   5.239 -0.2692  0.1515 -0.0884
14529W        W30146   0.285   5.386   2.270  0.2791  0.1353  0.1289
14530W        W30147  16.586   9.607   0.395  0.2700 -0.1715 -0.0112
14531W        W30148   4.242  11.294  11.596  0.1337 -0.1387  0.1752
14532W        W30149  18.991   3.324   9.993 -0.0555 -0.2923 -0.1798
14533W        W30150  16.515  10.313  10.781  0.5044 -0.1605 -0.0438
14534W        W30151   9.878  15.665  15.008 -0.0066  0.2506 -0.3142
14535W        W30152  10.114   4.929  10.209  0.1616  0.2530 -0.2103
14536W        W30153   3.188   2.860   0.490 -0.4207  0.2141 -0.1865
14537W        W30154  11.014   3.660  14.114  0.1117 -0.0855 -0.2449
14538W        W30155  15.402   7.364   0.725 -0.1560  0.1418  0.1829
14539W        W30156   4.265  13.048   2.319 -0.0530  0.0307  0.1602
14540W        W30157  12.156   6.605  13.554 -0.0395 -0.4881 -0.0742
14541W        W30158  17.271  18.103   3.155 -0.1198 -0.0022  0.1895
14542W        W30159   6.448  11.864   2.669  0.0589  0.0179 -0.2375
14543W        W30160   5.305  10.497  13.000  0.1499 -0.0949 -0.1080
14544W        W30161   7.187   2.232   2.904 -0.0553 -0.0938  0.1519
14545W        W30162   8.248   7.613   0.710 -0.0095  0.0240  0.3463
14546W        W30163   8.920   6.065  12.339 -0.0080 -0.0153  0.2640
14547W        W30164   8.569   3.509  14.539 -0.0785  0.2781  0.0427
14548W        W30165  18.513   8.509  15.162  0.0238  0.2932  0.0454
14549W        W30166   9.710   9.539  14.208 -0.0006  0.1685 -0.3337
14550W        W30167  18.622   1.088   4.227 -0.0449  0.1993 -0.0985
14551W        W30168  18.783   2.094   4.175  0.1405  0.1519 -0.1099
14552W        W30169   7.355  17.813   0.500 -0.2765  0.1800 -0.1113
14553W        W30170  11.743  12.597  12.033 -0.3634 -0.3136  0.1160
14554W        W30171   4.815   8.546  13.171  0.0730  0.2195 -0.0642
14555W        W30172   9.481   7.922   0.668 -0.1942 -0.1812  0.0800
14556W        W30173   6.898   9.688   4.095 -0.1800 -0.1112  0.1366
14557W        W30174   6.488  10.950   0.732 -0.0941  0.0102  0.0846
14558W        W30175  15.475   7.906  10.995  0.3381  0.3259  0.1616
14559W        W30176   3.072  12.074  11.028  0.2203 -0.3396 -0.4052
14560W        W30177   8.105   6.797   3.683 -0.1127 -0.4135  0.0652
14561W        W30178   9.680   9.875   3.703  0.0086 -0.0310  0.1616
14562W        W30179  12.106   1.524   2.276 -0.0698  0.2013 -0.1317
14563W        W30180   9.188  12.912   4.115 -0.1007  0.2184 -0.3665
14564W        W30181   5.536  17.636   1.684  0.1059 -0.3979  0.2394
14565W        W30182  17.668  18.476   3.991  0.4529 -0.2226  0.4374
14566W        W30183   2.978  14.614  14.480 -0.0789  0.3473  0.2625
14567W        W30184  15.224   4.679   3.180  0.0358  0.0993  0.2617
14568W        W30185   8.204  15.408   3.878 -0.1150 -0.0849  0.3385
14569W        W30186  10.625   5.097  13.390 -0.1171  0.0644 -0.1203
14570W        W30187   9.840   9.630   3.291  0.3249 -0.1336  0.1215
14571W        W30188   5.043   8.715  14.593 -0.2181  0.2665  0.1373
14572W        W30189   1.582   8.580   1.820 -0.1855  0.2745 -0.1742
14573W        W30190  10.824  18.329  11.941  0.1342  0.0459  0.1417
14574W        W30191   1.239  11.155  11.291  0.3226 -0.1002 -0.2282
14575W        W30192   7.405   3.135  13.566 -0.3017  0.1116  0.0303
14576W        W30193   2.563   9.962   3.280 -0.2749  0.3374 -0.0313
14577W        W30194   0.062  10.786   4.867  0.1744 -0.3268  0.0252
14578W        W30195   8.655  18.894  10.561 -0.1867 -0.0843  0.0435
14579W        W30196   8.521  12.794   5.282 -0.1610  0.0177  0.1029
14580W        W30197   0.105   3.136  15.097 -0.2396 -0.0100  0.0898
14581W        W30198   4.716   6.732   0.399  0.0946 -0.0544 -0.2108
14582W        W30199  14.433  17.617  12.491 -0.2081  0.3357  0.1368
14583W        W30200   9.318  16.806   2.936 -0.0405  0.0701  0.1096
14584W        W30201   6.756  13.815   2.652 -0.0716 -0.0510  0.2005
14585W        W30202   1.434   3.491   0.530  0.0496  0.0198 -0.0197
14586W        W30203   5.964  18.790   0.959  0.2925  0.3252 -0.0804
14587W        W30204   1.377  14.151  13.873  0.0166  0.1210  0.3444
14588W        W30205   2.144   9.625   0.307 -0.0526 -0.2359  0.1400
14589W        W30206   2.934   1.810  14.370 -0.2729 -0.1006  0.0158
14590W        W30207   6.746   9.983   3.659  0.0479  0.2944 -0.1666
14591W        W30208  12.729   1.175   0.596 -0.0098 -0.0716  0.1068
14592W        W30209  14.759  14.721  11.181  0.1741 -0.2669 -0.2803
14593W        W30210   3.954   8.429   1.095  0.4702  0.3147 -0.0895
14594W        W30211  11.893   7.890  14.534  0.1704 -0.1700  0.0485
14595W        W30212   0.770  13.233  12.029 -0.0188 -0.2979  0.0309
14596W        W30213  17.337   5.835   5.554  0.1721 -0.1163 -0.1225
14597W        W30214  17.791   3.723  12.962  0.4359 -0.1952 -0.0598
14598W        W30215   9.959   6.726   2.205  0.0426 -0.2033 -0.2742
14599W        W30216  13.132   6.094   3.147  0.4139  0.0760  0.1878
14600W        W30217   7.562   2.351   4.750 -0.5510 -0.2703 -0.0292
14601W        W30218   4.582   5.982  13.449 -0.1482  0.1345  0.1680
14602W        W30219   6.168  13.027  13.726  0.5068 -0.0449  0.0234
14603W        W30220   0.153  17.082  11.022 -0.3444 -0.1888  0.3752
14604W        W30221   1.571  10.004   3.208  0.0844  0.3211  0.2044
14605W        W30222  16.536  10.643  11.848  0.3342  0.1150 -0.0942
14606W        W30223   1.886  17.047   3.583  0.2257 -0.0434 -0.1251
14607W        W30224  13.053  17.572   1.644 -0.2978  0.1174  0.2383
14608W        W30225  12.190  14.317  12.577 -0.2489  0.0800  0.1810
14609W        W30226  15.192   2.407   4.641 -0.1319 -0.1280  0.1046
14610W        W30227  17.952   4.063   5.221 -0.0761  0.4033 -0.0882
14611W        W30228  12.295  16.893   3.502  0.0106 -0.3167  0.1237
14612W        W30229   8.866   9.584   4.114 -0.0507 -0.2429 -0.2443
14613W        W30230  14.364   7.982   1.951 -0.0485  0.1238 -0.1269
14614W        W30231  17.043   8.196   2.172 -0.1577 -0.3138  0.1798
14615W        W30232  11.953  13.091  12.309 -0.1078 -0.0861 -0.0635
14616W        W30233  16.559  17.498  12.968  0.1658  0.1553  0.1073
14617W        W30234   4.653  11.304  14.418 -0.4180 -0.1105  0.1148
14618W        W30235  13.133  10.081   1.001 -0.0344  0.0489 -0.0580
14619W        W30236   1.727   9.703   0.107 -0.2154  0.2755  0.0097
14620W        W30237   1.967  15.877   9.737  0.0729 -0.0133 -0.0861
14621W        W30238  13.238   5.934   0.194  0.1437  0.1229 -0.0604
14622W        W30239   2.177  15.749   9.290  0.2149  0.1973  0.0254
14623W        W30240  15.269  11.361   3.618 -0.1224 -0.1947  0.2774
14624W        W30241  12.560   9.068  11.414 -0.1181 -0.5646 -0.2857
14625W        W30242  13.965  10.889  11.782 -0.0963 -0.1638  0.0922
14626W        W30243  17.728  10.690   5.131 -0.1574  0.0375  0.0653
14627W        W30244   7.075  12.724  11.441  0.0426  0.1373  0.0469
14628W        W30245  16.770   7.395  10.690  0.3981 -0.0821 -0.2312
14629W        W30246   1.661   8.414   2.620 -0.1253 -0.4339  0.2457
14630W        W30247   5.469   8.578   3.943  0.0283  0.1434 -0.1318
14631W        W30248  13.774   9.944   3.768  0.0188  0.3793 -0.1475
14632W        W30249   5.287   8.474  14.222 -0.0156  0.1396 -0.1540
14633W        W30250  12.206   1.534   1.327  0.1029  0.2382 -0.0745
14634W        W30251   6.628   9.380   0.788  0.4189 -0.2336  0.1160
14635W        W30252  10.283  11.982   2.294 -0.4588 -0.3019  0.0824
14636W        W30253  17.758  10.400  14.256 -0.0484 -0.1175  0.0817
14637W        W30254   9.437   4.632   4.355  0.1096 -0.5960  0.1190
14638W        W30255  11.788   6.379   1.634 -0.2370  0.1250 -0.0552
14639W        W30256   2.148  13.804  14.213 -0.0391 -0.2045 -0.2759
14640W        W30257   7.777   0.002   2.269 -0.0541  0.1103  0.0608
14641W        W30258   5.982   1.371  14.674 -0.2649 -0.1685  0.1250
14642W        W30259   7.276   9.009  10.255  0.0405  0.1464 -0.3657
14643W        W30260   5.164  12.078  14.388  0.1326 -0.1402  0.2267
14644W        W30261   8.095  17.579   3.864  0.0064  0.0095 -0.1373
14645W        W30262   4.978   4.836   4.043 -0.2324 -0.0908 -0.0552
14646W        W30263   5.091   6.758   3.530 -0.3983 -0.1492 -0.1629
14647W        W30264   8.073  17.213  14.837 -0.1177  0.1307 -0.2376
14648W        W30265   1.426  13.405  14.441  0.1701  0.0308  0.3107
14649W        W30266   9.141  13.458   5.631 -0.0051 -0.3424  0.0235
14650W        W30267   4.520  13.155   3.190 -0.3325 -0.0162  0.1903
14651W        W30268   6.795  10.366   0.016  0.0596  0.1746 -0.0486
14652W        W30269   4.854  18.131  14.358  0.0167  0.4696 -0.2357
14653W        W30270   9.359  17.073  10.655 -0.1438  0.0718  0.4068
14654W        W30271   2.065  10.061   3.432  0.0211 -0.2504  0.0808
14655W        W30272  17.923   8.025   3.801  0.0288 -0.0218 -0.0570
14656W        W30273   2.978  17.378  12.914  0.1374  0.0511  0.0613
14657W        W30274   7.052  11.668  10.639  0.0637 -0.2474  0.0667
14658W        W30275  10.967  16.402  12.164  0.1357 -0.2953 -0.0751
14659W        W30276  16.652  10.895  11.356 -0.0213 -0.3171 -0.2365
14660W        W30277   1.333   2.300  11.104  0.1381  0.0275  0.2667
14661W        W30278  14.994  13.237  14.206 -0.0640  0.1130  0.0268
14662W        W30279   8.586  10.969  14.188 -0.0921  0.0274  0.4070
14663W        W30280  13.886   4.517   2.603 -0.2943  0.0874  0.1919
14664W        W30281   8.970  14.833   4.964  0.1639  0.0771  0.0546
14665W        W30282  10.320  15.978   3.468 -0.0094  0.2714  0.0152
14666W        W30283   7.572  17.112   1.418  0.1266 -0.4798  0.2609
14667W        W30284  13.716  10.528  12.096 -0.1392  0.0748  0.1024
14668W        W30285   2.323   5.308  12.431 -0.1888 -0.3410  0.1892
14669W        W30286  10.808  12.251   3.190  0.4312  0.0567  0.0130
14670W        W30287  17.664   5.061  12.784  0.2202  0.0763 -0.0033
14671W        W30288   9.278  13.666   3.651  0.3330 -0.2442 -0.4045
14672W        W30289   1.812   4.574   0.364  0.0209 -0.0475 -0.0653
14673W        W30290   1.322  18.589   1.054 -0.1502  0.2791 -0.2487
14674W        W30291   2.177  15.720   0.144  0.2662  0.1942  0.2110
14675W        W30292   6.671   8.363   1.867 -0.0049 -0.0842  0.1517
14676W        W30293  12.968  10.668   3.116  0.1805 -0.1409 -0.1922
14677W        W30294  14.808  14.109   0.799 -0.0421 -0.1573  0.0741
14678W        W30295  13.697  16.347  12.601 -0.1857 -0.1554 -0.3517
14679W        W30296  17.487  13.492  13.984 -0.1794  0.2762  0.0187
14680W        W30297   9.330  16.960  13.753 -0.4390 -0.1936  0.1246
14681W        W30298  16.880   1.970  11.223  0.1229  0.1293  0.1742
14682W        W30299  15.448  10.212  13.542  0.1308 -0.3201  0.2048
14683W        W30300   7.859  14.584   3.856  0.4991  0.1754 -0.2026
14684W        W30301  16.351   9.205  12.731 -0.0996 -0.0358  0.2266
14685W        W30302  10.283  18.595  14.931  0.0288 -0.1840  0.0833
14686W        W30303   0.327  11.002   9.137 -0.0772  0.0560 -0.0342
14687W        W30304   0.994   8.298  12.286  0.0867  0.3170  0.2378
14688W        W30305   1.854   7.049   5.201  0.1983 -0.1391 -0.0516
14689W        W30306  12.601  11.375   2.521  0.2099 -0.3226 -0.1698
14690W        W30307   3.727   4.543  12.469  0.0962  0.0633  0.4919
14691W        W30308  16.234   3.932   1.297  0.0339  0.1179 -0.2137
14692W        W30309   9.655  11.709  13.647  0.0091  0.3830 -0.1346
14693W        W30310  18.809  12.260  14.751  0.0045  0.1011  0.2832
14694W        W30311   7.359  18.820  14.786 -0.0092 -0.2963 -0.2358
14695W        W30312   7.126  10.024   2.275 -0.3490 -0.0252  0.0801
14696W        W30313   0.657   4.379  12.456 -0.0463  0.3474 -0.2340
14697W        W30314  17.815   3.112  12.630  0.1992  0.2419  0.0400
14698W        W30315   1.908   6.592  12.485 -0.0165 -0.1351 -0.0549
14699W        W30316   2.789   6.754   5.305 -0.1540  0.2839 -0.1955
14700W        W30317   4.801   0.658   0.605 -0.1471  0.2589 -0.2360
14701W        W30318  14.255  13.952  14.745 -0.1736 -0.0683 -0.2178
14702W        W30319  14.076   8.032  13.420  0.1010 -0.0124 -0.1295
14703W        W30320   1.950  14.086   2.890 -0.0788  0.4936 -0.1385
14704W        W30321  13.933   1.168  13.154 -0.1119 -0.0348  0.1153
14705W        W30322   7.144   3.945   1.601 -0.0625 -0.3153  0.2635
14706W        W30323   7.136   2.503   0.227 -0.2307  0.0946 -0.1082
14707W        W30324  12.803  15.841  12.717 -0.1761  0.0102 -0.1294
14708W        W30325  12.376  14.046   0.573  0.2826  0.0426 -0.3425
14709W        W30326  15.262  12.739  12.580  0.1549 -0.0041  0.0525
14710W        W30327   4.597   4.521   3.016  0.2870  0.0400 -0.1407
14711W        W30328  10.130   8.112   1.794  0.1280  0.1601 -0.1674
14712W        W30329  16.970  16.776  14.725 -0.0676 -0.0465 -0.1508
14713W        W30330   3.001   3.389  10.611  0.0884  0.1803 -0.0966
14714W        W30331   1.062   5.061   1.023 -0.0291 -0.0382 -0.0899
14715W        W30332   0.120   4.726  11.651 -0.3532  0.4324 -0.1143
14716W        W30333  16.868   0.608   4.367  0.2295  0.3359 -0.1178
14717W        W30334   3.105   9.745   3.962  0.1056  0.0111 -0.1301
14718W        W30335  17.394   2.653  10.612  0.1607 -0.0041  0.1110
14719W        W30336  14.109   4.207  12.316  0.1935  0.2303 -0.0120
14720W        W30337   3.068  18.949  13.089 -0.0806 -0.0328 -0.1087
14721W        W30338   7.685   8.988   0.621 -0.0224 -0.0553  0.2960
14722W        W30339   2.456  15.846   4.880  0.0793  0.1781  0.2861
14723W        W30340   1.852   1.199   4.544 -0.4881 -0.2395  0.2103
14724W        W30341   2.545   5.456  10.555 -0.1561  0.1500  0.4112
14725W        W30342   2.133   3.586  12.373 -0.2294 -0.1474  0.0156
14726W        W30343  17.392  17.447   2.487  0.1249 -0.3790 -0.1660
14727W        W30344  18.467  12.550  11.628  0.3113  0.2497 -0.2499
14728W        W30345   0.085   2.775   2.360 -0.0216 -0.0221 -0.4056
14729W        W30346   3.391  17.059   0.981  0.1083 -0.2090 -0.1796
14730W        W30347  18.331   6.248  12.322 -0.0675  0.1310 -0.2969
14731W        W30348  10.754   0.216   3.126 -0.0024 -0.0902  0.1712
14732W        W30349  15.040  15.563   0.725  0.0024  0.4715 -0.0687
14733W        W30350   0.067  12.382   4.294 -0.0366  0.2215  0.0862
14734W        W30351  12.033   0.313  11.049 -0.1174  0.0481  0.1446
14735W        W30352  17.801   2.709   9.802  0.1225 -0.0165 -0.4306
14736W        W30353   9.828  18.446  13.328 -0.0266  0.0620 -0.4249
14737W        W30354  14.748  16.269  15.162  0.0218  0.2689 -0.2649
14738W        W30355   3.877  12.058   0.301 -0.2537  0.2055  0.0660
14739W        W30356   4.732  15.988   1.234  0.2228 -0.0873  0.1847
14740W        W30357   7.954   3.364   1.521  0.3899 -0.0939 -0.1104
14741W        W30358   2.024   6.875   4.238 -0.0544 -0.1858 -0.0512
14742W        W30359   8.987   1.916  12.788 -0.0490  0.0637 -0.0028
14743W        W30360   5.520   3.924   0.127 -0.0249 -0.0139 -0.1731
14744W        W30361  10.937   0.086  14.896  0.3860 -0.0662 -0.2613
14745W        W30362   8.840   1.668  10.827 -0.0929 -0.0619  0.3144
14746W        W30363  17.792   0.600   1.756  0.1378  0.0246  0.4124
14747W        W30364  17.450  15.530   0.835 -0.1471  0.0455  0.2929
14748W        W30365  10.532   9.123  12.332  0.2904  0.0226 -0.2217
14749W        W30366   8.193  17.715  14.775 -0.1677  0.2382 -0.0612
14750W        W30367  12.582   3.690  12.485  0.1584  0.1778 -0.2110
14751W        W30368   7.572   0.112   3.113 -0.0403  0.2700 -0.1012
14752W        W30369  18.104   6.034   1.792  0.0634 -0.0329 -0.1517
14753W        W30370   8.702   5.493   3.406  0.0065 -0.1602 -0.3080
14754W        W30371   3.467  15.687   2.369 -0.1994 -0.1185 -0.2203
14755W        W30372   4.251   6.737   2.362 -0.6092 -0.0585 -0.0610
14756W        W30373   6.286   7.436  14.672  0.1090  0.3277  0.0472
14757W        W30374   8.601   4.816   9.607 -0.1120  0.0762 -0.1088
14758W        W30375   7.713  12.786   2.695  0.0146 -0.2292  0.4625
14759W        W30376   4.794   8.883  12.000 -0.4564 -0.0237  0.0804
14760W        W30377  13.509   3.905   1.516 -0.3022 -0.0095 -0.2226
14761W        W30378   8.684  17.853  14.794  0.2378  0.4119 -0.2021
14762W        W30379   4.464   4.236  13.004 -0.1832  0.5332  0.1655
14763W        W30380   0.237  16.418  12.685  0.3306 -0.1784 -0.0619
14764W        W30381  17.925  12.483   3.049 -0.2079  0.6394 -0.2580
14765W        W30382   9.329  12.199  10.218 -0.0465  0.0769  0.4020
14766W        W30383   9.330   5.901  14.112  0.1840  0.1084 -0.3261
14767W        W30384   9.657   3.090  11.997 -0.1892 -0.3514  0.1719
14768W        W30385  10.134  10.805   1.964 -0.2315 -0.0768  0.0591
14769W        W30386  11.235  18.404   2.984  0.0831  0.1740 -0.2891
14770W        W30387  14.662   2.796   3.675 -0.0286 -0.2215 -0.2869
14771W        W30388  18.366  14.699   4.944 -0.0173  0.4282  0.3727
14772W        W30389   6.674   6.614   3.832  0.2064 -0.0805 -0.0071
14773W        W30390  15.115  13.687  14.850 -0.1677  0.0183 -0.0923
14774W        W30391   8.024   8.561   1.989  0.1717  0.1802 -0.0735
14775W        W30392  17.181  12.530  11.532  0.0925  0.3215  0.0454
14776W        W30393   3.790   6.771   6.024 -0.3166  0.2436  0.2452
14777W        W30394  12.091   1.381   3.226  0.0673 -0.2683  0.1995
14778W        W30395   6.687   2.372   4.186  0.0495  0.2710 -0.1633
14779W        W30396  11.285   4.518  13.276 -0.1122 -0.3631 -0.2498
14780W        W30397  13.002   1.310  12.614 -0.1510 -0.0124 -0.3208
14781W        W30398   5.257  15.721   3.132  0.1454  0.2906 -0.2254
14782W        W30399  12.182   2.890  12.117 -0.0158 -0.0895 -0.1919
14783W        W30400  16.772  16.232   2.364  0.3419 -0.1671  0.0913
14784W        W30401   2.146  12.779   0.040 -0.0513 -0.1409 -0.0303
14785W        W30402   5.655  13.665   1.408  0.0305  0.4446 -0.0133
14786W        W30403   4.876   6.269   5.530  0.2364  0.1023  0.0026
14787W        W30404   6.620   4.792  11.586 -0.0661 -0.0917 -0.0870
14788W        W30405  15.012  18.777   2.287 -0.2369  0.1259 -0.0962
14789W        W30406   8.707   1.409   1.383 -0.3717 -0.0866 -0.2073
14790W        W30407  16.987  16.333  13.825 -0.1380 -0.0064 -0.0032
14791W        W30408  15.480  15.474  11.290  0.1100 -0.1625  0.4160
14792W        W30409  11.497   3.887   2.860  0.2057  0.1159 -0.1855
14793W        W30410   2.652  10.967   1.218 -0.0919 -0.1904  0.0265
14794W        W30411   5.605  10.208  12.706 -0.3487 -0.1828  0.0138
14795W        W30412   8.205   1.363   5.586 -0.4207 -0.0069  0.0949
14796W        W30413  10.398   7.214   9.177  0.0236  0.1008  0.1841
14797W        W30414   3.957  11.014  12.739  0.1941 -0.1190  0.0789
14798W        W30415  18.736   4.353  11.624 -0.0577 -0.2140  0.2420
14799W        W30416   2.745  13.600  11.972  0.2522 -0.1330 -0.0445
14800W        W30417  13.791  18.486  12.878 -0.5245 -0.1573 -0.2769
14801W        W30418   4.550  16.664  14.172 -0.1097 -0.1546  0.0047
14802W        W30419   4.444  10.222   1.153 -0.2567 -0.1651  0.2221
14803W        W30420  15.442  12.242   5.532 -0.0594 -0.0898 -0.0832
14804W        W30421  14.500  12.516   0.628 -0.1224 -0.1284 -0.0298
14805W        W30422  18.208   8.174  10.039 -0.1539  0.0078 -0.3079
14806W        W30423   9.342  12.148   3.386 -0.6179 -0.0515  0.2682
14807W        W30424  16.093   9.632  12.696 -0.0105  0.1930  0.2730
14808W        W30425   6.050   2.318  13.639 -0.3073  0.2725  0.1858
14809W        W30426   3.397   6.177   1.167  0.4700 -0.1106 -0.2291
14810W        W30427  16.472  18.327  13.948 -0.0037  0.1943 -0.0031
14811W        W30428  10.665   1.031  11.736  0.6386  0.1784 -0.0040
14812W        W30429  15.380   0.795   2.326 -0.1145 -0.0132 -0.2392
14813W        W30430  15.017   9.646   2.909  0.1152 -0.1353 -0.1146
14814W        W30431   5.140   9.718  12.366  0.2392 -0.3066  0.3212
14815W        W30432  14.503  15.390  11.199  0.1235 -0.1066 -0.1628
14816W        W30433  13.504   7.536  11.552 -0.0680  0.1940 -0.1807
14817W        W30434  16.689  13.751   0.336 -0.0409  0.0885 -0.1645
14818W        W30435   6.427   2.126  13.331  0.1085 -0.3471  0.1488
14819W        W30436   1.115   1.267  11.406  0.0119  0.0172 -0.1320
14820W        W30437  13.781  13.363  12.247  0.3401  0.1270 -0.0209
14821W        W30438   7.532  11.709   0.317  0.2016 -0.1704  0.0149
14822W        W30439   1.718   4.773   5.231  0.1346 -0.2044 -0.1594
14823W        W30440   0.070   3.792  14.396  0.3765  0.0004 -0.1612
14824W        W30441  15.089   8.976   4.282  0.2991  0.0054 -0.1865
14825W        W30442   3.209   2.310  11.894 -0.0237  0.0086  0.2726
14826W        W30443  17.899  10.454  10.386 -0.3672  0.1014 -0.0150
14827W        W30444  13.446   4.930  11.531  0.1759  0.3552 -0.3650
14828W        W30445   7.097  18.453  14.994  0.0062 -0.1876  0.1368
14829W        W30446  14.372  15.838   3.569  0.0663  0.0281  0.1201
14830W        W30447   5.127   3.694   4.207 -0.1969 -0.1419 -0.2473
14831W        W30448  18.887  13.797  11.561  0.1327  0.0395 -0.3213
14832W        W30449   0.415   8.688  13.850 -0.4274 -0.0098 -0.1212
14833W        W30450  10.979   0.883   3.513 -0.0260 -0.0588 -0.1036
14834W        W30451   4.771  16.795   0.558 -0.2444  0.1085  0.0689
14835W        W30452  13.038  18.370  11.709  0.2293 -0.0485  0.3980
14836W        W30453  15.886   4.982  12.140 -0.1074  0.0489  0.1435
14837W        W30454   9.246   8.624  14.630  0.2199  0.1519  0.1967
14838W        W30455  10.539  11.607   4.194  0.1753  0.0898 -0.0703
14839W        W30456   5.152  18.031   2.305  0.3311 -0.1988  0.1014
14840W        W30457   4.216  11.870  10.231 -0.0293 -0.0366 -0.4684
14841W        W30458  10.652   6.238   4.935  0.2994  0.1545  0.0487
14842W        W30459  10.330   4.870  13.722 -0.3890 -0.0566  0.0256
14843W        W30460  12.145  17.176   3.875  0.0937 -0.0433 -0.0125
14844W        W30461  18.407  18.309  11.424  0.0457 -0.2447  0.0666
14845W        W30462   8.701  11.471  13.690 -0.0952  0.0467 -0.2043
14846W        W30463  15.037  17.021   1.143 -0.2867 -0.1762 -0.2416
14847W        W30464  17.486   7.379   1.034  0.0687 -0.3154 -0.0123
14848W        W30465  10.718  18.452   3.418  0.0391  0.1609 -0.3020
14849W        W30466  18.346  14.648  14.777 -0.1398 -0.2138  0.0754
14850W        W30467   0.236   6.059   5.846 -0.0825 -0.3479  0.0162
14851W        W30468   8.313   0.037   4.905  0.2137  0.2117 -0.3245
14852W        W30469   6.326   2.613   2.223  0.1487  0.0105 -0.0729
14853W        W30470   6.286   2.193  15.151 -0.0210  0.2356  0.1188
14854W        W30471   9.838  11.206   2.115 -0.0431  0.3173 -0.0980
14855W        W30472  15.907   1.689  10.937 -0.0992  0.0071  0.2015
14856W        W30473   5.441  14.175  13.695 -0.3803 -0.0981 -0.1591
14857W        W30474   4.549  10.009   3.652  0.2055 -0.1891 -0.1908
14858W        W30475   2.770   6.102  13.441 -0.1514 -0.1348 -0.4897
14859W        W30476   1.171  14.288  15.160 -0.0231 -0.1595 -0.3971
14860W        W30477  14.754  12.194   0.287 -0.1493  0.5492 -0.1429
14861W        W30478   4.149  15.924  12.089  0.0738  0.0169  0.1751
14862W        W30479   7.807  18.787  13.066  0.0074 -0.0558 -0.3170
14863W        W30480  12.767   2.699   0.852  0.4063  0.3926  0.0039
14864W        W30481  18.943   3.981   5.588 -0.3801 -0.1027  0.5535
14865W        W30482   3.541   5.982  11.895  0.1032 -0.0017  0.1502
14866W        W30483   1.194   0.516  10.409 -0.1361  0.2898 -0.1019
14867W        W30484   8.661   9.022  10.522  0.1496 -0.0908 -0.2592
14868W        W30485  14.079  14.481   4.825  0.3686  0.0520 -0.4009
14869W        W30486   5.730  17.227   0.125  0.0699 -0.2516 -0.0342
14870W        W30487   2.628  14.186   9.499 -0.0214 -0.0518  0.0578
14871W        W30488  17.446   1.088   3.508 -0.1271 -0.3207 -0.1472
14872W        W30489  13.781   9.988   2.326  0.2020  0.2675  0.1247
14873W        W30490  17.319  10.263   4.018  0.3055  0.2846  0.0581
14874W        W30491  13.130  17.904   3.318  0.0869 -0.0106 -0.0231
14875W        W30492  10.746   8.019   2.257  0.0087  0.0611 -0.1041
14876W        W30493   5.204   0.031  13.416  0.0715 -0.0596 -0.2698
14877W        W30494   1.124   7.231   5.340  0.2579 -0.0708  0.1673
14878W        W30495  14.950   2.344  15.013 -0.1326 -0.0439 -0.1067
14879W        W30496  12.928   4.871  14.938  0.1628 -0.3110  0.0070
14880W        W30497  19.020  18.051  13.578  0.1533 -0.2438 -0.1057
14881W        W30498  13.419  11.336   2.115 -0.1199 -0.2604  0.0035
14882W        W30499  17.614   3.081   0.324 -0.0413 -0.1631  0.2341
14883W        W30500  17.987  11.830  15.162  0.0016 -0.0200  0.2781
14884W        W30501   3.172   8.644   2.639 -0.2724  0.1866  0.2257
14885W        W30502  14.500   6.050   2.300  0.0434 -0.0323  0.1815
14886W        W30503   0.255   6.670  12.818 -0.0418 -0.2939 -0.1346
14887W        W30504  13.850  13.668   4.423  0.2641 -0.1256  0.0542
14888W        W30505  17.380   6.151  13.890  0.0117  0.0504  0.0311
14889W        W30506   7.458   3.801  12.825 -0.3301 -0.0356 -0.2056
14890W        W30507  11.683   8.428  11.729  0.0127  0.1534 -0.0611
14891W        W30508  13.486  17.038  14.848  0.1454  0.1937 -0.1551
14892W        W30509  18.720   3.368  14.217 -0.0059 -0.2101  0.3040
14893W        W30510  14.349   0.670   2.099 -0.1104 -0.0523  0.0337
14894W        W30511   8.622   8.369   3.109 -0.0322  0.2775  0.0249
14895W        W30512  14.885  11.893  12.329  0.0774  0.3881 -0.0712
14896W        W30513   0.665   3.677   1.621  0.0813 -0.1676 -0.1191
14897W        W30514  14.955   5.530   2.596  0.2611  0.0374 -0.1110
14898W        W30515  12.832  13.540   4.212  0.1068 -0.1810  0.0907
14899W        W30516  17.757  17.768  11.107  0.2230 -0.2225 -0.1241
14900W        W30517  18.954   5.694   2.235  0.1647 -0.0526  0.2767
14901W        W30518  12.118   0.139  11.490 -0.1455 -0.1160  0.0617
14902W        W30519   0.772  13.287   2.313  0.0077  0.0731  0.2020
14903W        W30520   0.109   2.155  15.232  0.0412 -0.1660  0.1624
14904W        W30521  10.002   1.707   0.207 -0.0660 -0.1177  0.2949
14905W        W30522   1.687   7.498   1.471 -0.1712  0.1643 -0.0082
14906W        W30523  15.865  13.480   5.193  0.1684 -0.0131 -0.0619
14907W        W30524  17.286  12.179  10.376 -0.0693 -0.3125  0.2080
14908W        W30525  17.209   1.391   5.458  0.0701  0.0251 -0.2548
14909W        W30526  13.231   3.016  15.171  0.0851 -0.1924 -0.2487
14910W        W30527  13.045   8.263   1.799 -0.1876 -0.1327 -0.3882
14911W        W30528   4.082   2.156   4.743 -0.2563  0.1466  0.0157
14912W        W30529  10.308  11.144  11.543 -0.0846  0.0971  0.4963
14913W        W30530   9.597   4.295   1.177  0.1461  0.0543 -0.1022
14914W        W30531   7.615  16.038  11.616 -0.0305 -0.1605 -0.2207
14915W        W30532   2.949   8.572   4.948 -0.1400  0.0450 -0.0010
14916W        W30533   0.260  13.933   0.123 -0.2312  0.1400 -0.2577
14917W        W30534   0.384   6.163   3.096 -0.0820 -0.0043 -0.2313
14918W        W30535  12.470  15.211  12.332 -0.1033  0.1556 -0.1328
14919W        W30536  10.006   4.575   5.055 -0.2427  0.1857  0.1082
14920W        W30537  12.711  10.718  13.567 -0.1951 -0.2317 -0.0491
14921W        W30538  16.891   3.511   4.102  0.2694 -0.2198 -0.1268
14922W        W30539   1.595  17.628   0.783 -0.1224  0.2153 -0.2994
14923W        W30540   1.476  12.042  13.124 -0.1276  0.1938 -0.1111
14924W        W30541   6.986  17.586  10.637 -0.2713 -0.2751 -0.1264
14925W        W30542  11.113   8.041   3.648 -0.1116 -0.2535  0.1813
14926W        W30543   6.149   3.294  13.012 -0.1251 -0.2321  0.1820
14927W        W30544  11.618  10.935   2.790 -0.1031  0.1735  0.4111
14928W        W30545   9.290   8.295  11.028  0.2944 -0.1971 -0.0472
14929W        W30546   3.190   4.954  13.786  0.3895  0.0199  0.1418
14930W        W30547  17.848   0.530  15.169  0.0674 -0.0571 -0.4427
14931W        W30548   0.755  18.719   3.952  0.1853 -0.1196  0.0277
14932W        W30549   0.034   9.260   0.238 -0.0732  0.2164 -0.0053
14933W        W30550  14.665  18.059  12.384 -0.3452  0.2195  0.0722
14934W        W30551  16.091  11.736  14.630  0.0996 -0.0277 -0.0760
14935W        W30552  11.786  10.518  12.617  0.1801  0.0160  0.0835
14936W        W30553   3.930   5.808   2.191 -0.0334 -0.1232  0.4208
14937W        W30554   2.022  12.412  11.972  0.1753  0.0132 -0.1563
14938W        W30555  17.068  13.671  12.718  0.1548 -0.1477  0.1404
14939W        W30556  18.677  10.041   2.428  0.0406 -0.2169 -0.2866
14940W        W30557   9.900  15.314  11.812  0.3276 -0.1112  0.0349
14941W        W30558  15.958  16.791  10.178 -0.2210 -0.0439 -0.1246
14942W        W30559  13.629   0.870   1.557  0.2877  0.0544 -0.0309
14943W        W30560   9.667   3.661   1.878 -0.2074  0.4075  0.1705
14944W        W30561  13.223   0.107  13.330  0.1501  0.3239 -0.0377
14945W        W30562   3.085  10.140  13.752 -0.1248  0.0315 -0.0419
14946W        W30563  16.690   5.201   2.355  0.0124  0.1022  0.2387
14947W        W30564  18.723  17.262  11.109  0.0817  0.1501  0.0275
14948W        W30565   8.715  17.505  12.706  0.0502  0.2002  0.0090
14949W        W30566  10.128  14.227  12.678 -0.2276  0.2900  0.0190
14950W        W30567  16.548  11.895   4.535  0.2049 -0.0452 -0.0271
14951W        W30568  16.128   5.026  14.061 -0.0218 -0.1349 -0.2867
14952W        W30569  11.677   9.435  14.827 -0.2731  0.3896 -0.2093
14953W        W30570   4.400   1.057   4.634  0.3092  0.2052  0.1004
14954W        W30571  18.628   8.255  14.086  0.1251 -0.0124 -0.0531
14955W        W30572   9.726  11.823   5.126 -0.1516 -0.4322  0.1021
14956W        W30573  15.361  11.202   1.783  0.1240  0.1730  0.2052
14957W        W30574   5.992   5.820   4.207 -0.4909 -0.0562 -0.0083
14958W        W30575  16.675  10.118   3.423  0.1889 -0.0425 -0.1199
14959W        W30576  14.716  10.678   2.993  0.0344  0.0141  0.0599
14960W        W30577   9.645   2.722   3.500  0.1568  0.2068  0.0818
14961W        W30578  14.517   2.294  10.619 -0.0201  0.1787 -0.2096
14962W        W30579  18.089  11.352  13.924  0.0199 -0.3754 -0.1420
14963W        W30580  13.266  11.478   0.801 -0.0690 -0.2009  0.0144
14964W        W30581  15.088   9.536  10.547  0.0881 -0.3957  0.0354
14965W        W30582   8.682   7.241  15.183  0.0350 -0.0116 -0.2848
14966W        W30583  14.601  16.596   4.768  0.1185 -0.1982  0.1714
14967W        W30584  10.822  11.629   0.210 -0.1289 -0.1087  0.1734
14968W        W30585   8.696   9.206   4.841 -0.0432 -0.2193  0.1280
14969W        W30586   4.214  11.716  13.016  0.0966  0.0862 -0.0644
14970W        W30587   4.917  15.339  11.500 -0.0348  0.0913  0.1662
14971W        W30588  10.195   8.203   4.067 -0.0354 -0.3213 -0.2057
14972W        W30589   5.614   4.085  13.033  0.0057 -0.1470  0.1469
14973W        W30590  15.699  15.793  11.655  0.2101 -0.1348 -0.1756
14974W        W30591   8.548   7.736  11.138 -0.0462 -0.1042 -0.0533
14975W        W30592  12.253   1.570  14.843 -0.1057  0.2507 -0.1980
14976W        W30593   9.261   2.686  13.414 -0.2415 -0.0947 -0.0639
14977W        W30594  11.606   9.443   2.740  0.3314 -0.1271  0.1318
14978W        W30595   5.177  10.021  12.762  0.3097  0.0483  0.1257
14979W        W30596  13.028  17.406   2.599 -0.2811  0.3643 -0.1267
14980W        W30597  14.842  17.449   1.145  0.0758 -0.0724  0.1344
14981W        W30598   2.877  12.731  13.925  0.0448  0.0472 -0.0217
14982W        W30599  11.571   1.113   2.196  0.1194  0.0755  0.2651
14983W        W30600   0.941   7.316   3.159 -0.1525  0.3052 -0.0152
14984W        W30601   2.590  15.702   5.385  0.0462  0.0648 -0.1545
14985W        W30602  18.178  13.389   4.335  0.3872 -0.1331 -0.0264
14986W        W30603  16.797  16.112   1.340 -0.0502  0.1469  0.2143
14987W        W30604  17.133   3.500  13.939 -0.1203  0.1178 -0.2643
14988W        W30605  15.050   5.979   3.695  0.2961 -0.2284  0.0866
14989W        W30606  13.710  18.779   4.637 -0.1154  0.0245 -0.1019
14990W        W30607  11.298   6.392  12.433  0.1460  0.2483  0.2135
14991W        W30608  17.088   2.457  13.530 -0.0334 -0.2964  0.1823
14992W        W30609  17.169   8.116   4.513  0.1819  0.1200  0.3059
14993W        W30610   8.851  11.658   4.622  0.0309 -0.3678 -0.0160
14994W        W30611   0.527   2.730  12.390 -0.0186 -0.0315  0.0401
14995W        W30612  16.883   9.822  11.588 -0.0396 -0.0025  0.0196
14996W        W30613   6.279   4.138   1.864  0.2608 -0.1571  0.3053
14997W        W30614  10.890   2.192  12.933  0.0358  0.0318 -0.0479
14998W        W30615   0.980   7.572   2.663 -0.1337  0.0844  0.0116
14999W        W30616  10.600  15.096   1.577 -0.0717  0.1150 -0.2182
15000W        W30617  15.351  12.281  14.623  0.3438  0.4629  0.1738
15001W        W30618   5.126   9.932   1.157  0.2370 -0.0156 -0.1213
15002W        W30619   1.062   3.228  12.943 -0.3336 -0.0228  0.0666
15003W        W30620   3.808   9.776   3.136  0.1528 -0.0052  0.4190
15004W        W30621  11.851   5.813  10.697  0.0687 -0.0879  0.4097
15005W        W30622   0.538   8.741  10.531 -0.1462 -0.0029  0.2128
15006W        W30623  10.921   1.003  14.963 -0.0584 -0.1255  0.0746
15007W        W30624   4.860  15.088  14.607 -0.2124 -0.3280  0.0287
15008W        W30625   8.003  18.421  14.686 -0.1082 -0.0765  0.0770
15009W        W30626   3.076  10.319   1.848 -0.0486  0.0573 -0.1956
15010W        W30627   4.597   2.779   1.027  0.2908  0.1854 -0.2370
15011W        W30628   0.724  13.085  14.516 -0.0700 -0.2255 -0.0665
15012W        W30629   4.291   8.539  11.116  0.2532 -0.2019  0.2770
15013W        W30630   4.432   9.790   5.376  0.0301 -0.0991 -0.0464
15014W        W30631   0.688   5.353   3.621 -0.0737  0.2082 -0.1783
15015W        W30632  15.039   9.728   1.720  0.2322  0.1760  0.1225
15016W        W30633  18.995   9.647  10.992  0.2992 -0.0248  0.2129
15017W        W30634   2.681  11.700  10.856 -0.2530  0.1675  0.2570
15018W        W30635   5.156  17.484   3.784  0.3103 -0.2224 -0.1095
15019W        W30636   3.829  16.240   1.459  0.5883 -0.1627 -0.4598
15020W        W30637  18.285   4.316  15.262  0.1197  0.0388 -0.2931
15021W        W30638  14.718   7.774   4.650 -0.0350 -0.1733  0.0277
15022W        W30639   9.858  16.669   4.594 -0.0961  0.0246 -0.0964
15023W        W30640  13.341   5.422  10.568  0.3187  0.0801 -0.3275
15024W        W30641   0.535  10.952   4.083  0.0109 -0.2036 -0.4400
15025W        W30642  18.217  18.444   0.339  0.0539  0.0973 -0.3088
15026W        W30643   5.240  13.772  13.426  0.1945 -0.2415  0.0879
15027W        W30644  12.701  14.831  12.614  0.1054  0.3058  0.2663
15028W        W30645   6.093   5.142  10.076 -0.2515  0.3237  0.1531
15029W        W30646   9.718  14.824  11.596 -0.1057 -0.0996 -0.1556
15030W        W30647  11.706  17.462  12.088 -0.0627 -0.0100 -0.1141
15031W        W30648  17.382   0.037   3.230 -0.1308 -0.1744 -0.2794
15032W        W30649  11.773   8.196   4.344 -0.2609  0.0823  0.0413
15033W        W30650   4.367   6.029   3.407  0.2986  0.3001 -0.2973
15034W        W30651  16.619  18.684   1.098 -0.2897 -0.2607  0.1690
15035W        W30652  15.866  16.170   5.403  0.2030 -0.0081 -0.2525
15036W        W30653  15.693   1.369   5.556  0.1375  0.2631 -0.0067
15037W        W30654  17.667   1.111  11.879 -0.1196 -0.2441 -0.1697
15038W        W30655  14.966   5.964  11.840  0.1508 -0.0843 -0.2982
15039W        W30656  12.614  11.886   2.474 -0.0452  0.0339 -0.0808
15040W        W30657  12.418   0.241   2.157 -0.0778 -0.3112 -0.0731
15041W        W30658   7.510  11.766   4.365  0.1882 -0.0931  0.0245
15042W        W30659   8.490  11.510  12.746  0.0424 -0.0895  0.1952
15043W        W30660   5.184  12.524  12.489 -0.0374 -0.1056  0.1822
15044W        W30661   0.382  12.462   1.627 -0.1169  0.0943  0.3995
15045W        W30662   1.786  16.078  15.088 -0.0350 -0.0873  0.1460
15046W        W30663  18.309  15.794  12.192 -0.1365  0.0847  0.1767
15047W        W30664  17.034  10.834   3.369  0.2535 -0.2347  0.4012
15048W        W30665   8.713   5.789   4.776  0.4191 -0.0965  0.2557
15049W        W30666  16.237  18.273  12.611 -0.5061 -0.1709 -0.0475
15050W        W30667   2.570   5.242  14.193 -0.3628  0.0473 -0.1875
15051W        W30668  13.110   5.483   4.660  0.1885  0.2612  0.1642
15052W        W30669  18.959  17.939   3.638 -0.0963  0.0976  0.0796
15053W        W30670  16.755   5.902   4.257 -0.1071  0.2562  0.0231
15054W        W30671   0.563   2.432   2.282  0.1518  0.0088 -0.2391
15055W        W30672   2.430   4.336   5.726 -0.0549  0.2364  0.0562
15056W        W30673  16.516  16.219   1.927 -0.0506 -0.2088 -0.1052
15057W        W30674   2.015   9.201  13.242  0.1255 -0.0244 -0.1945
15058W        W30675  19.022   2.073   3.747 -0.2444  0.4941 -0.1735
15059W        W30676  16.090  10.553  14.853 -0.0483  0.0389 -0.1423
15060W        W30677   9.914  11.707   9.590  0.2539 -0.1068 -0.0790
15061W        W30678  13.228  16.520   3.738  0.0054  0.0994  0.1212
15062W        W30679  18.477  17.883   2.561  0.1177  0.0728  0.0956
15063W        W30680   2.851  12.233  13.858 -0.3626 -0.0484  0.1123
15064W        W30681   4.049  16.710  13.368  0.1745  0.2519 -0.0713
15065W        W30682   5.795  15.494   1.781  0.3030  0.0094 -0.0510
15066W        W30683   8.686  17.547   0.909 -0.0037 -0.0792 -0.0196
15067W        W30684  17.348  14.768  10.958 -0.1530  0.1448  0.1978
15068W        W30685  10.459  16.469   5.853 -0.1044  0.3159  0.0938
15069W        W30686  14.683  13.196   4.226 -0.1469  0.3905 -0.0554
15070W        W30687   2.831  17.828  14.390  0.3615 -0.0343 -0.1569
15071W        W30688   0.089   3.632   2.447 -0.1081 -0.2165  0.0949
15072W        W30689  12.445   7.829  14.671  0.0564 -0.1293  0.0583
15073W        W30690   4.486  12.892  11.731 -0.0335  0.2789  0.1342
15074W        W30691  15.201  13.628  13.163 -0.3230 -0.0654  0.1004
15075W        W30692   5.205   8.959  10.495  0.1335 -0.1474 -0.0681
15076W        W30693   7.425   9.891   5.638  0.2920 -0.1392 -0.3057
15077W        W30694   1.195  17.195  12.658 -0.1923  0.1082 -0.4393
15078W        W30695   9.403   7.037   1.506 -0.3409 -0.1756  0.3170
15079W        W30696  12.868   4.679   1.277 -0.1615 -0.0545  0.2583
15080W        W30697   8.502   3.818   2.685 -0.2374  0.0909 -0.2593
15081W        W30698  12.186   9.974   0.181 -0.2762  0.1314 -0.1040
15082W        W30699   0.273  14.143   3.220 -0.1805  0.0499 -0.0420
15083W        W30700   9.059  14.229  13.144  0.3428 -0.0437  0.0383
15084W        W30701  13.755  15.201  14.562  0.0866 -0.0470  0.0721
15085W        W30702   0.894   7.316  13.660 -0.0929  0.0659  0.1252
15086W        W30703  13.239   8.687   5.034  0.0139  0.0912  0.0604
15087W        W30704   0.621   9.316   5.057  0.0190 -0.1022  0.1885
15088W        W30705   4.121  15.753  10.129  0.1701  0.1312  0.0977
15089W        W30706   7.886  10.630   0.211  0.4441  0.0284 -0.2262
15090W        W30707   3.770   9.918  11.740  0.0367  0.0392 -0.3153
15091W        W30708  19.029   7.484  11.639 -0.1318  0.2678 -0.2703
15092W        W30709   2.496  10.629   0.767 -0.3181  0.0311  0.0140
15093W        W30710   4.529  16.604  11.002  0.0997 -0.0101 -0.1860
15094W        W30711  17.301  17.211   4.574  0.2181  0.2038 -0.1666
15095W        W30712   1.550   3.068   4.594 -0.1837  0.0584 -0.0554
15096W        W30713  17.532  11.534  14.205 -0.2487 -0.0637 -0.0122
15097W        W30714   7.896  16.582   3.400  0.1918  0.0925 -0.0021
15098W        W30715   2.895   6.544  13.187  0.2782  0.1074 -0.1402
15099W        W30716   2.745   4.691   5.385  0.4765  0.2149  0.2841
15100W        W30717  17.238   7.405  11.627 -0.0981 -0.2099 -0.0013
15101W        W30718  10.580  17.485  13.991 -0.0910  0.1661  0.0765
15102W        W30719   3.397  17.607  13.914  0.2944 -0.0326 -0.0135
15103W        W30720   3.304   2.149  14.610  0.3531  0.0529 -0.1576
15104W        W30721   1.149   2.410   6.254 -0.1785 -0.1266 -0.0359
15105W        W30722  19.009   1.017   0.390 -0.0783 -0.0934  0.0562
15106W        W30723  12.444  17.427  11.529 -0.2837  0.1675 -0.0663
15107W        W30724  10.317   2.937   2.614 -0.2506  0.1688  0.3584
15108W        W30725  10.848   6.365  12.243  0.0774 -0.0001  0.1231
15109W        W30726  14.254   3.869   4.367  0.1439  0.2452 -0.0025
15110W        W30727   4.251   4.682   4.726 -0.0594 -0.1148  0.0750
15111W        W30728   2.171   9.913  11.597  0.0857 -0.1553  0.0695
15112W        W30729   5.696   1.138   0.862  0.2601  0.0537  0.0637
15113W        W30730  17.811  15.699  10.985 -0.1994 -0.2339 -0.3355
15114W        W30731  18.720  18.910  11.908  0.2916 -0.1354 -0.0271
15115W        W30732  17.112   1.761   5.073  0.1729 -0.0434 -0.3716
15116W        W30733   6.871  16.108  13.436 -0.5326  0.1427 -0.0354
15117W        W30734   4.301   8.820  12.857  0.3622  0.1526 -0.3073
15118W        W30735   9.681  14.094   3.453  0.3781  0.2955 -0.1305
15119W        W30736  19.043  16.735   0.697  0.0013 -0.1064 -0.1279
15120W        W30737   0.845  18.035   3.110  0.0902 -0.0216 -0.0873
15121W        W30738   2.725   8.705  14.976  0.1593  0.1541  0.3107
15122W        W30739   5.442  14.329  13.147  0.4245  0.4185  0.3965
15123W        W30740  14.845  10.604  10.405  0.0987 -0.3097  0.0794
15124W        W30741  18.916  13.002  13.803  0.0443  0.1079 -0.0343
15125W        W30742   8.092  12.317  12.459 -0.4113  0.0964  0.1507
15126W        W30743  11.630  13.700   5.172 -0.0734  0.0618  0.3102
15127W        W30744   4.420  17.971  14.600  0.0186  0.0740  0.0169
15128W        W30745  13.489  10.816  14.956 -0.1521  0.0313  0.0147
15129W        W30746  15.529  14.148  13.022  0.2046 -0.0666  0.0882
15130W        W30747   4.541   0.414   1.085 -0.0591  0.0090  0.1880
15131W        W30748   3.596  15.313  11.533  0.1859  0.0689 -0.2032
15132W        W30749   0.980  10.007  10.506 -0.2243  0.1662  0.0697
15133W        W30750  15.157   6.335  15.027  0.2076 -0.1281  0.0062
15134W        W30751  10.850  11.290   1.772 -0.2590  0.2017  0.1758
15135W        W30752  18.496   4.808   0.702 -0.2893  0.0212  0.3993
15136W        W30753  17.970   3.622  11.059  0.0047 -0.1240  0.1969
15137W        W30754   3.622   8.466  14.855  0.1228  0.2529 -0.2624
15138W        W30755   1.474  17.851   5.711 -0.1636  0.1687 -0.0003
15139W        W30756   4.740  14.426   1.546 -0.0779  0.1904  0.1921
15140W        W30757  12.180  18.130  15.151 -0.0899 -0.0444  0.0682
15141W        W30758   5.958   2.143   5.086  0.0917  0.1952  0.3578
15142W        W30759  17.769  13.782  12.191 -0.2102  0.1365  0.0486
15143W        W30760  14.358  15.308   4.307 -0.1115 -0.1972 -0.0374
15144W        W30761   4.058  17.676   4.590  0.3110  0.1245  0.4921
15145W        W30762   5.368   6.570  13.811 -0.1404 -0.2327  0.0523
15146W        W30763  18.714  15.429   1.386 -0.1193 -0.0928  0.1205
15147W        W30764  12.468   3.063   3.918 -0.4414  0.4808 -0.1478
15148W        W30765   4.857   2.824  13.603 -0.2375  0.1427  0.0783
15149W        W30766  15.469  14.614   1.760 -0.0138  0.0613  0.0418
15150W        W30767  12.780  12.586   5.228  0.1167 -0.1094  0.0508
15151W        W30768  15.677  14.380   9.896  0.2287 -0.2842  0.0706
15152W        W30769   5.514   1.787  14.701 -0.0716  0.2802  0.3714
15153W        W30770   2.824   1.844  11.148 -0.0332  0.1288 -0.1163
15154W        W30771   7.406   1.957   1.231 -0.1656 -0.1493  0.3596
15155W        W30772  14.979  15.856  13.833  0.2211  0.1712 -0.1513
15156W        W30773  16.302   0.359   0.203 -0.2846 -0.1526  0.0354
15157W        W30774   4.432  17.887  11.883  0.1288 -0.1813 -0.0471
15158W        W30775   2.485  15.615  13.523 -0.2198 -0.0200 -0.0495
15159W        W30776   8.115  18.687   4.227  0.0905 -0.1759 -0.2067
15160W        W30777   3.106   2.873   5.098  0.0572 -0.0122 -0.1464
15161W        W30778   5.762   2.804   2.854 -0.2476  0.0655  0.1566
15162W        W30779   5.486   0.762   1.096 -0.0305 -0.2936 -0.3072
15163W        W30780  19.048   4.651   4.919  0.0390 -0.4757  0.2600
15164W        W30781   2.672   3.536   2.734  0.0357 -0.2620  0.1374
15165W        W30782  15.941   4.827   0.972 -0.1549 -0.2100  0.2488
15166W        W30783  15.576  18.500  13.942 -0.2738  0.0153 -0.2822
15167W        W30784   6.544  10.955   3.591 -0.3473  0.1812 -0.0353
15168W        W30785   9.821  15.766   4.383  0.3385  0.3720  0.1793
15169W        W30786  18.008  11.726  14.302  0.1361 -0.0193 -0.3474
15170W        W30787   3.481  13.538   4.460  0.2586 -0.1897 -0.1607
15171W        W30788   2.124   1.410   1.823  0.0620 -0.1180 -0.1276
15172W        W30789  10.083   9.165   3.242  0.1572 -0.1167 -0.2702
15173W        W30790   3.971   4.333   1.245  0.0872  0.1687  0.0391
15174W        W30791   8.006  16.721   1.482  0.0736 -0.1499  0.2255
15175W        W30792  19.077   4.997   4.091  0.1550 -0.0847 -0.2686
15176W        W30793   4.717  12.010  13.162 -0.2972  0.0325  0.2501
15177W        W30794  18.768  12.295  10.909  0.0975  0.0623  0.2505
15178W        W30795   6.011  10.988   4.769 -0.0998 -0.0888 -0.0852
15179W        W30796   0.962   6.416  11.849  0.5475  0.0311  0.2524
15180W        W30797  10.441   0.988   2.406  0.3093  0.0568  0.3214
15181W        W30798  18.753   5.435   4.131  0.0373  0.1945  0.1655
15182W        W30799  16.524  18.943  14.295 -0.0001  0.1677 -0.0706
15183W        W30800   2.738   9.931  13.508  0.0457  0.0610 -0.0647
15184W        W30801   5.259   7.552  12.145  0.1905 -0.1926  0.1547
15185W        W30802   9.707   3.723   2.379 -0.2318  0.2375 -0.2004
15186W        W30803   2.456   3.826  14.307 -0.4656  0.2331 -0.4002
15187W        W30804   7.618  13.500   2.632  0.2003 -0.0786 -0.2679
15188W        W30805  11.808   3.197   0.197 -0.1000  0.1182 -0.1429
15189W        W30806  18.727  14.867   4.164 -0.0069 -0.0900  0.0138
15190W        W30807   5.761  17.430   2.863 -0.2250  0.2445  0.0188
15191W        W30808   1.695  18.305  14.001  0.2918  0.3942  0.2307
15192W        W30809   6.612   8.881   2.840 -0.0573 -0.0438  0.0874
15193W        W30810   7.141   0.130   1.210  0.1052 -0.3321 -0.1913
15194W        W30811  10.034   1.095   0.369 -0.1725  0.0600 -0.2573
15195W        W30812  14.787  16.276  12.750 -0.2916 -0.2611 -0.1242
15196W        W30813  10.668   3.523   0.632  0.0075  0.0173  0.0752
15197W        W30814  14.279   8.968   3.618  0.0529  0.0135  0.1441
15198W        W30815   8.700   3.520   4.762 -0.0667  0.2243 -0.2627
15199W        W30816  17.518  14.864  13.113  0.1007 -0.0185  0.1341
15200W        W30817  17.049   8.532   3.406  0.1062 -0.1173 -0.1618
15201W        W30818   6.869  13.209   4.998  0.1369 -0.0317  0.3462
15202W        W30819  18.734  13.939  13.665 -0.2190  0.4742 -0.2315
15203W        W30820  16.152  18.839  10.860  0.1480 -0.3085 -0.1338
15204W        W30821  14.634  11.036   4.426 -0.1540 -0.1141 -0.1968
15205W        W30822   0.739  13.163   4.162 -0.3169 -0.0444 -0.2941
15206W        W30823   4.284   9.053   4.922  0.0431  0.1190 -0.1963
15207W        W30824   3.445   9.414   1.316  0.1015 -0.1415 -0.3798
15208W        W30825  15.018   6.266   9.134 -0.0045 -0.1432 -0.0279
15209W        W30826   1.240  12.552   1.236  0.0079  0.2044  0.0764
15210W        W30827   0.172   8.580  13.427  0.2602 -0.1262 -0.0199
15211W        W30828   4.612   2.836  14.063  0.2321  0.1521 -0.0848
15212W        W30829   4.203  17.521  14.452 -0.0211  0.2063  0.0423
15213W        W30830  13.220   2.116   4.017  0.1769  0.0018  0.0661
15214W        W30831   0.995  11.762   5.338  0.0093 -0.0184  0.0361
15215W        W30832   4.860   5.293  14.497  0.1161  0.2442 -0.1404
15216W        W30833   1.672  16.601  10.561 -0.1771  0.0485 -0.0336
15217W        W30834   0.188   6.498  12.340  0.1187  0.1917  0.3116
15218W        W30835  11.392   0.593   3.759 -0.1060  0.1505  0.0150
15219W        W30836  17.971  13.310  13.667  0.0833  0.0575  0.5773
15220W        W30837  14.349  13.914   0.009  0.0747  0.1729 -0.0567
15221W        W30838   9.712   4.918   5.515 -0.0733 -0.1863 -0.2695
15222W        W30839   7.972   5.167  11.021  0.0541 -0.0651 -0.4249
15223W        W30840  16.042  10.230   3.435  0.1121  0.1382  0.1247
15224W        W30841   8.793   9.030  12.135 -0.2254  0.3898 -0.0205
15225W        W30842  17.569   4.149   4.770  0.0056  0.1294 -0.3321
15226W        W30843  11.858  14.668  14.363 -0.0507 -0.0423  0.1164
15227W        W30844  16.248  16.253   2.449  0.1469 -0.0118 -0.1238
15228W        W30845  13.747  11.475   4.545 -0.0765  0.0533 -0.3228
15229W        W30846   2.842  14.782   1.450  0.1854  0.0240 -0.0529
15230W        W30847   4.942   7.344  14.300  0.0086  0.2463  0.0202
15231W        W30848  14.939   0.506   0.709 -0.3607  0.1067 -0.1993
15232W        W30849  12.422  16.801   4.526 -0.0309  0.3369  0.5279
15233W        W30850  16.303   9.256   1.895 -0.1007  0.1097  0.2746
15234W        W30851  13.185   3.922   1.144  0.1030  0.0493  0.2481
15235W        W30852   7.533   3.950   3.396 -0.2992  0.0837 -0.0294
15236W        W30853   3.000   4.083   6.050 -0.2233 -0.1318  0.2484
15237W        W30854  18.712   0.278   2.374 -0.1802 -0.4094  0.2624
15238W        W30855  10.634   6.925   1.462 -0.0548 -0.1971 -0.1746
15239W        W30856  17.873  17.155   0.396  0.1729 -0.1500 -0.1790
15240W        W30857  15.542  18.812   2.861 -0.0570  0.2425  0.1032
15241W        W30858  16.846  15.740  11.354 -0.1537 -0.0069 -0.2346
15242W        W30859  14.530  15.609   0.763 -0.0042  0.1667  0.1419
15243W        W30860   7.627   1.145  11.007  0.0383 -0.1825 -0.0596
15244W        W30861  10.288  18.624   5.117  0.1043  0.1291 -0.2464
15245W        W30862   7.080   2.137   4.256 -0.2504  0.3109  0.0514
15246W        W30863  18.889  17.295  14.876 -0.0702 -0.1654 -0.2742
15247W        W30864  10.644   2.101  14.278  0.0820  0.3542 -0.0418
15248W        W30865   3.051  17.500  12.420 -0.0861 -0.0659 -0.3703
15249W        W30866   9.655   1.889   4.470 -0.0088  0.4259 -0.1173
15250W        W30867  13.221  15.191  14.352 -0.1263 -0.2908  0.0813
15251W        W30868  15.834   5.261  13.345  0.3369 -0.3628  0.0322
15252W        W30869  10.895  10.479  11.790 -0.0350  0.2195  0.0228
15253W        W30870   2.007   1.791   0.534  0.1853  0.1568 -0.3656
15254W        W30871   0.856   6.783  15.118 -0.1313  0.0459 -0.0815
15255W        W30872  15.391   8.531   3.682 -0.0798 -0.0834 -0.0578
15256W        W30873  11.008  11.766  12.380 -0.0511 -0.1229  0.1299
15257W        W30874   0.211   3.501   1.589 -0.2468  0.3532  0.0821
15258W        W30875  12.015  11.757   1.279  0.1845  0.1238 -0.0059
15259W        W30876  12.143   7.754   2.107  0.1393 -0.0967  0.2984
15260W        W30877  11.124   4.721   4.033 -0.0051  0.0733 -0.1456
15261W        W30878  18.659  13.462   1.251 -0.0610 -0.2322  0.0954
15262W        W30879   1.702   0.947   3.285  0.0916 -0.1917  0.5367
15263W        W30880   7.847  10.541   2.804  0.1601 -0.2594 -0.0672
15264W        W30881   3.584  10.485   2.611 -0.3483  0.2366 -0.0751
15265W        W30882   0.373   1.476  13.059  0.0381 -0.0752  0.2814
15266W        W30883   5.213  14.456   0.861 -0.0124 -0.1860 -0.0390
15267W        W30884   0.356   3.395  12.886 -0.1262 -0.0385 -0.0774
15268W        W30885  15.021   4.507  12.066  0.1630  0.1707  0.1066
15269W        W30886   2.095  13.273  15.008 -0.1809 -0.0394  0.4841
15270W        W30887  17.340   2.467  13.019 -0.1189  0.1095 -0.0616
15271W        W30888  14.738  10.512   1.289  0.0133  0.1218  0.0405
15272W        W30889  11.967  10.767   2.233 -0.0189 -0.0856 -0.1557
15273W        W30890  12.157   7.813   4.314  0.0270  0.2753 -0.0446
15274W        W30891   2.277  11.492  12.836 -0.0768  0.1269 -0.0388
15275W        W30892  11.386  13.664  10.964  0.1033 -0.0440 -0.2449
15276W        W30893  13.511   6.512  10.117  0.2483 -0.0618 -0.0256
15277W        W30894   1.986   2.808  12.745  0.1261 -0.1019  0.1397
15278W        W30895  14.674   5.816   4.018 -0.3498 -0.0243 -0.0518
15279W        W30896   4.749  13.497  13.622 -0.2382  0.0769 -0.2085
15280W        W30897   9.950   5.541  13.990 -0.0385  0.2439 -0.4505
15281W        W30898  15.231   4.014   3.369  0.1431 -0.0317  0.2801
15282W        W30899   2.448  12.820  11.183 -0.1131 -0.1204 -0.0123
15283W        W30900   1.888   4.701  12.499  0.1324 -0.0706  0.0449
15284W        W30901  14.305  15.421  14.776  0.0812 -0.2286 -0.2457
15285W        W30902  12.467  15.541   0.197  0.1333  0.1657 -0.2193
15286W        W30903  17.864  15.143   2.836 -0.1713 -0.1997 -0.1503
15287W        W30904   5.068  16.539   4.818  0.3615  0.3453 -0.1791
15288W        W30905  16.388  16.449  12.022  0.3888 -0.0050 -0.2793
15289W        W30906   0.978   4.549  13.633  0.3243 -0.1026 -0.0662
15290W        W30907   3.100  16.590   4.351  0.0607  0.4926  0.0688
15291W        W30908  16.528   0.059   2.356 -0.1205 -0.4591  0.0508
15292W        W30909  10.885  14.668  13.011  0.1051 -0.1868  0.0777
15293W        W30910   4.311   5.567   3.197  0.2063  0.0515  0.2426
15294W        W30911  16.195   7.272  13.032  0.2166  0.2463 -0.0104
15295W        W30912   7.417  18.187  11.688 -0.2485 -0.0065  0.0213
15296W        W30913  17.713  11.987   3.775  0.0171  0.0363 -0.0501
15297W        W30914   9.174   9.605   2.653  0.0693 -0.0200  0.0176
15298W        W30915   2.743  16.038  11.920  0.1775 -0.0260 -0.2332
15299W        W30916   9.092   4.865   4.676 -0.3035 -0.0352 -0.2879
15300W        W30917  17.208  16.764  13.728 -0.0069  0.1860 -0.3574
15301W        W30918  15.839  13.990  10.593  0.3455 -0.0460  0.2310
15302W        W30919  15.247   6.380   3.795  0.2331  0.0287 -0.0559
15303W        W30920  11.745   4.427   5.076  0.0642 -0.0532 -0.1756
15304W        W30921   7.624   6.102  11.016  0.3475 -0.0692  0.2942
15305W        W30922  10.317   0.715  14.337  0.2613  0.0146  0.0159
15306W        W30923  11.558   5.603   2.961  0.0787 -0.1180 -0.0160
15307W        W30924   5.253   0.150  13.957  0.1047  0.0672  0.1361
15308W        W30925   4.386   9.025  12.431 -0.0644  0.3602 -0.1264
15309W        W30926  18.534  12.273  12.706  0.2289  0.1084 -0.1318
15310W        W30927  13.821  16.241  11.475 -0.1963 -0.1137  0.2760
15311W        W30928  18.320   1.159  11.229  0.1681 -0.1338 -0.2331
15312W        W30929  16.272  16.859  12.408 -0.1072 -0.3307  0.0891
15313W        W30930   1.693   2.550  11.533 -0.0316  0.2802 -0.0815
15314W        W30931  16.912   9.406   0.070 -0.0952  0.3340 -0.0179
15315W        W30932  14.232  18.017  11.010  0.3451 -0.1031 -0.1492
15316W        W30933  15.659   9.994   0.643  0.1932  0.0238 -0.0359
15317W        W30934  12.832   5.722   3.705 -0.2378 -0.0229 -0.0886
15318W        W30935  12.901  12.964   3.612 -0.3519 -0.2625  0.1644
15319W        W30936  11.735   5.265  12.774 -0.0387 -0.3322  0.0203
15320W        W30937   4.567   2.071   1.596 -0.0625 -0.1449  0.0550
15321W        W30938  11.298  16.584  10.493 -0.2066  0.1278 -0.4091
15322W        W30939   0.181   3.818   3.912 -0.1897  0.3017 -0.0270
15323W        W30940   2.812  15.852   3.022  0.0925 -0.2797 -0.0522
15324W        W30941  17.559   6.076  13.007  0.0134 -0.0980 -0.2487
15325W        W30942   2.199   9.602  11.067  0.6240  0.2192  0.3121
15326W        W30943   1.479  13.916  11.866 -0.1881 -0.1271 -0.1604
15327W        W30944   5.067  13.062  13.592 -0.1939 -0.0799 -0.1591
15328W        W30945   7.363  17.527  14.322 -0.0803  0.0144 -0.0750
15329W        W30946  10.003   0.468   2.623 -0.1098 -0.1312 -0.5148
15330W        W30947  12.973   4.865   2.136 -0.1765  0.0622  0.1437
15331W        W30948  18.877   9.752   2.818 -0.0447 -0.3240  0.2275
15332W        W30949   1.713  15.296   9.202  0.1881 -0.1454 -0.2276
15333W        W30950  10.417  16.628   0.190 -0.2142  0.1430  0.0276
15334W        W30951   7.990  18.048   2.174  0.0685  0.1837  0.0674
15335W        W30952  13.555   1.467  13.529 -0.1243  0.0749 -0.1246
15336W        W30953   2.494   1.636   1.526 -0.0306 -0.2284 -0.0818
15337W        W30954  13.145   7.087  11.558  0.0415  0.0071 -0.1160
15338W        W30955  13.705   2.944  11.988 -0.1477  0.1047  0.0759
15339W        W30956  14.370   7.269   3.990  0.3585 -0.2027 -0.2817
15340W        W30957   7.839   6.774  13.062 -0.1418  0.1705  0.0355
15341W        W30958  12.593  11.719   1.515  0.0231 -0.0700 -0.1043
15342W        W30959  14.329  18.274   1.823  0.2248  0.3626  0.2488
15343W        W30960  14.070   3.886  10.821  0.0370 -0.2293  0.3145
15344W        W30961  11.652  13.550   4.627  0.1804 -0.1457 -0.1150
15345W        W30962  12.243   7.294   0.924 -0.5344  0.0097 -0.2120
15346W        W30963   2.476  10.152   0.974  0.1713  0.1252  0.3307
15347W        W30964   0.930   6.938  11.928 -0.0934  0.2342 -0.1553
15348W        W30965   3.162  12.650   4.644  0.3953  0.0662 -0.5585
15349W        W30966  10.882  10.501   4.471  0.2030  0.0051 -0.1519
15350W        W30967   7.522   9.341   2.809 -0.0930  0.1530 -0.1096
15351W        W30968   1.120   8.515  11.538  0.0980  0.0479 -0.1482
15352W        W30969   5.522  18.941   2.030 -0.0809  0.2463  0.3261
15353W        W30970   1.933   0.470   0.659  0.2462  0.1285  0.1175
15354W        W30971  14.198   2.655  12.082 -0.0770  0.1943 -0.0536
15355W        W30972  11.179  11.930   2.682  0.2813  0.3625  0.0881
15356W        W30973  17.220   9.102   2.453  0.2014  0.1003  0.0616
15357W        W30974  14.294   2.034  12.798  0.1395  0.0977  0.1874
15358W        W30975  16.740  14.597   0.133  0.0336  0.4097 -0.0743
15359W        W30976   3.192   5.864   0.182  0.1139  0.1441 -0.2611
15360W        W30977  15.590   9.564   2.359 -0.1567  0.0041 -0.0187
15361W        W30978   6.166   1.182   0.841 -0.3491  0.0765 -0.1643
15362W        W30979  14.551  17.746   3.382 -0.0182  0.1325 -0.1334
15363W        W30980  12.825   5.174   4.406  0.2630  0.0530  0.1642
15364W        W30981  10.349   9.027   1.944  0.4156 -0.1153 -0.0662
15365W        W30982   4.696   6.811  13.657  0.2680 -0.0497  0.0152
15366W        W30983  11.117  10.207  15.136  0.0019 -0.1373 -0.1246
15367W        W30984  10.610   4.283   0.106 -0.2041 -0.0206  0.2552
15368W        W30985  18.085   4.135   1.809 -0.3448 -0.3194  0.0128
15369W        W30986  10.938  13.408  11.280  0.1533 -0.0921 -0.1780
15370W        W30987   5.278   6.764  11.426  0.0432 -0.0287 -0.3550
15371W        W30988  13.777   5.234   0.592  0.0024 -0.3260  0.0638
15372W        W30989  12.651   4.549  14.585 -0.6023  0.0810  0.1576
15373W        W30990  13.352  18.443  11.295 -0.3285  0.2441  0.1547
15374W        W30991  15.365  12.722   3.419 -0.0622 -0.1434 -0.0316
15375W        W30992   7.317   4.914   1.368 -0.0137 -0.0117  0.0138
15376W        W30993  15.120   0.792  13.265  0.1869 -0.0352 -0.4230
15377W        W30994   8.589   2.288   3.785 -0.0343 -0.0887  0.2288
15378W        W30995   2.697  16.736   1.339 -0.1098 -0.0920  0.2058
15379W        W30996   4.225   1.685  13.681 -0.2148 -0.3461 -0.0697
15380W        W30997   7.359  15.417  11.726 -0.1268  0.1902 -0.1346
15381W        W30998   1.578  12.822  11.528  0.2004 -0.0253  0.0485
15382W        W30999   9.295   2.681  12.627 -0.0185  0.1947  0.1808
15383W        W31000  11.540   1.924  12.631  0.0635 -0.0073 -0.2144
15384W        W31001   0.799   2.526   5.518  0.1231  0.1687 -0.0463
15385W        W31002  16.006  14.985   1.431  0.0169  0.0936  0.1460
15386W        W31003   4.210  10.710  15.070  0.4519  0.0275  0.1961
15387W        W31004  16.728   9.842   4.784 -0.0414 -0.0213  0.2116
15388W        W31005   7.603   5.370  10.281 -0.1060 -0.1467  0.1064
15389W        W31006  11.981  10.020   4.059 -0.0298  0.2180 -0.1579
15390W        W31007   2.800  10.696   3.893 -0.0866  0.2096  0.1031
15391W        W31008  13.642   6.171  14.953 -0.2601 -0.3515  0.1539
15392W        W31009  10.938   6.898   2.684 -0.1294 -0.0687  0.2133
15393W        W31010  10.175   3.597   3.373 -0.0528  0.0193 -0.1353
15394W        W31011  16.917   3.105  14.189  0.6024 -0.1648 -0.0058
15395W        W31012  11.822   7.069  12.063 -0.0202  0.1635  0.2753
15396W        W31013  16.669   1.657   0.460  0.1146  0.1015  0.3775
15397W        W31014   8.486   4.774   2.553  0.2261 -0.2557  0.2401
15398W        W31015   6.584   1.409   4.762  0.1856  0.0887  0.3546
15399W        W31016   6.530   1.849   3.414  0.2778 -0.2850 -0.0833
15400W        W31017   8.716   6.831  12.240  0.2076 -0.2207  0.1945
15401W        W31018   0.941  14.637   1.578  0.3484  0.0104 -0.1652
15402W        W31019   7.342  15.303  11.232  0.1796 -0.2045 -0.0282
15403W        W31020  15.597  16.707  11.183  0.0078  0.1408  0.1175
15404W        W31021   0.176  11.410  11.547 -0.1733 -0.1613  0.1052
15405W        W31022   0.839   8.887   3.121  0.1833 -0.1797  0.0273
15406W        W31023   3.571  17.657  11.516 -0.0865 -0.1027 -0.0359
15407W        W31024  17.691   6.989  14.864  0.0016 -0.3905 -0.1259
15408W        W31025  15.735  15.652   2.906  0.1691  0.0223  0.0123
15409W        W31026   8.447   7.386  13.022  0.1644 -0.0458 -0.2966
15410W        W31027   9.086   8.289   0.504  0.1581 -0.0954  0.0807
15411W        W31028  14.138   6.344  11.401  0.0921  0.3564  0.3249
15412W        W31029   9.424   8.922  11.645 -0.1537 -0.1869 -0.1361
15413W        W31030   4.262   2.964  10.620 -0.1936  0.0990  0.3117
15414W        W31031  17.853  15.905  11.947 -0.1803  0.3070 -0.3865
15415W        W31032   7.703  17.833  14.670 -0.3347  0.2008 -0.0898
15416W        W31033  15.813  15.264  11.769  0.0074  0.0792 -0.0032
15417W        W31034   7.147   5.695  10.913 -0.3385  0.5439 -0.2563
15418W        W31035  10.565   0.519   3.527 -0.0588 -0.0312  0.3343
15419W        W31036  16.681   2.167   4.221 -0.0616  0.0627  0.0781
15420W        W31037   3.422  10.711  11.608  0.3472 -0.1595 -0.0264
15421W        W31038   6.854  17.581  12.904  0.0838  0.0146 -0.0441
15422W        W31039   5.588   8.780   2.567 -0.0258  0.0527 -0.3147
15423W        W31040   6.535   9.876  12.800 -0.2539  0.1283  0.2094
15424W        W31041   4.095   1.172  12.600 -0.1291  0.0639 -0.2681
15425W        W31042   9.591   1.733  12.393  0.1896 -0.1700 -0.0718
15426W        W31043   2.807   7.353   3.174  0.3045  0.1555 -0.0208
15427W        W31044   9.508  15.593  13.965  0.0806 -0.1955  0.3134
15428W        W31045  11.005  18.265  10.821 -0.1538 -0.2509 -0.1173
15429W        W31046  12.844  16.485  11.161 -0.1798 -0.1204 -0.3653
15430W        W31047   1.443  14.445  12.685 -0.2864 -0.0008  0.0198
15431W        W31048   3.359  15.408   3.763  0.0246  0.1750 -0.1719
15432W        W31049  10.968   6.591  11.737  0.0881  0.0772 -0.3137
15433W        W31050   3.421  16.639   3.996 -0.0107  0.0871 -0.0304
15434W        W31051   1.226  15.585   4.809  0.1324  0.2344  0.0133
15435W        W31052   9.427   2.009  12.006  0.4774 -0.1692  0.1449
15436W        W31053   3.291  12.533   3.721  0.2722  0.0757  0.1693
15437W        W31054   2.666   6.496  10.667  0.0562 -0.3841 -0.3388
15438W        W31055   0.812  12.809   3.815  0.0731 -0.0736 -0.0402
15439W        W31056   4.321   8.028   1.384  0.1850  0.0305  0.0610
15440W        W31057   6.714   2.770   0.420  0.0109 -0.1012  0.3433
15441W        W31058   1.624   1.844   0.923 -0.1458 -0.0994  0.0569
15442W        W31059  10.666   1.152   3.825  0.1530  0.1861 -0.0938
15443W        W31060  15.509   0.028   1.468  0.0495  0.5416  0.1262
15444W        W31061  18.123  18.752   2.183 -0.2218 -0.0956 -0.0041
15445W        W31062   7.798   7.942  13.908 -0.0517  0.1733 -0.2332
15446W        W31063   6.213   7.802  15.091 -0.1700  0.0126  0.2543
15447W        W31064  12.915   3.486  11.540 -0.1595  0.0973 -0.1870
15448W        W31065   9.190   9.097   4.404  0.1106  0.0093  0.0472
15449W        W31066   6.114  13.198  12.581 -0.0431  0.1526  0.1129
15450W        W31067   2.020   0.333  14.885 -0.1371  0.0591 -0.4027
15451W        W31068  18.831  14.665  13.454  0.3376 -0.0038 -0.1837
15452W        W31069   7.023   8.562   5.210 -0.0328  0.1991 -0.0348
15453W        W31070  16.564  13.231  11.201  0.0815  0.3363  0.0415
15454W        W31071   1.912  13.695   4.214 -0.1018  0.0662  0.0310
15455W        W31072  15.376   6.932   5.641 -0.0517 -0.2279 -0.0277
15456W        W31073   5.744  12.751  14.285  0.0261  0.1159 -0.1597
15457W        W31074  18.947  12.854   0.837  0.0121  0.1992  0.0204
15458W        W31075   1.040  18.749  11.396  0.2843  0.3824 -0.2693
15459W        W31076  11.900  14.517   4.683  0.4051 -0.0132  0.2445
15460W        W31077  11.429   6.804   9.586  0.2174  0.2852 -0.0063
15461W        W31078  18.638   6.922   2.873 -0.1830  0.0170  0.1892
15462W        W31079   6.047  16.100  10.627 -0.1629  0.0729  0.2271
15463W        W31080  16.726  17.183   0.318 -0.1496 -0.0648  0.1699
15464W        W31081  16.925  15.201  13.643  0.3206 -0.1392 -0.0606
15465W        W31082  12.758  18.259   4.205 -0.1902 -0.1098 -0.1596
15466W        W31083   5.620  12.263  14.042  0.0474 -0.1063  0.0357
15467W        W31084   7.278   7.820   4.571 -0.2828  0.0784 -0.1928
15468W        W31085   2.267  11.345  11.077 -0.0999 -0.1002  0.0424
15469W        W31086  17.849   1.242  13.833  0.0289 -0.0415 -0.0266
15470W        W31087  13.497  15.096   9.908 -0.0104 -0.2582  0.1673
15471W        W31088  17.649  18.791   1.437 -0.0841  0.0606  0.0912
15472W        W31089  12.698  11.919   4.384 -0.1396  0.0261 -0.2994
15473W        W31090  11.350   8.452  10.841 -0.0812 -0.1533  0.4084
15474W        W31091   6.676  10.679  12.177  0.1556 -0.1011 -0.3279
15475W        W31092   0.344  12.560  13.998 -0.3074  0.1717 -0.3704
15476W        W31093   8.976   3.569   0.471 -0.1034 -0.0951 -0.0732
15477W        W31094  17.310   3.297   4.669 -0.3229  0.1898 -0.0429
15478W        W31095  14.149   0.509  10.858 -0.1551 -0.1539  0.0314
15479W        W31096   6.844   5.743  11.335  0.2930  0.0014 -0.2825
15480W        W31097  17.556  11.511   9.796  0.0664 -0.2324  0.1890
15481W        W31098   8.065   5.439   2.693  0.1901 -0.0764  0.0519
15482W        W31099  12.707  14.110   3.268  0.1403  0.1434 -0.0382
15483W        W31100  18.703   1.071   9.209  0.1758 -0.2442  0.2392
15484W        W31101   8.204   1.741   0.254  0.1342  0.1243 -0.0143
15485W        W31102   4.645  14.948   1.713 -0.3026  0.2775 -0.1194
15486W        W31103   1.004  17.025   3.039  0.0232  0.1075 -0.0009
15487W        W31104   5.173  11.288   0.016  0.1707  0.0478 -0.2854
15488W        W31105   2.224  15.332  10.421 -0.1084 -0.1186 -0.1618
15489W        W31106   8.836  12.313  11.537  0.1043 -0.1648 -0.3185
15490W        W31107   6.098   8.095   0.205 -0.1297 -0.2419 -0.1196
15491W        W31108   6.291   2.779   4.421  0.0541 -0.1146 -0.1402
15492W        W31109  13.057  16.702  14.610 -0.1922 -0.1193 -0.2265
15493W        W31110  14.565   5.241   1.233  0.1017 -0.4615 -0.1230
15494W        W31111   4.821  14.396   3.740  0.0383  0.2510  0.5443
15495W        W31112  16.053  14.810  11.836 -0.1792 -0.3644  0.3572
15496W        W31113   1.832  10.465   4.382 -0.1272 -0.0274  0.2437
15497W        W31114   2.352   2.204  14.978 -0.2173  0.1251  0.1247
15498W        W31115  12.186  15.501  13.206  0.0158  0.0519  0.1594
15499W        W31116   4.374  10.742   3.883 -0.2939  0.0243  0.1952
15500W        W31117  14.264  16.638  13.505 -0.2631 -0.3509 -0.2281
15501W        W31118  10.112   5.438  10.328  0.1382 -0.0921 -0.0884
15502W        W31119   6.144   5.731   4.681 -0.2075 -0.1456 -0.0817
15503W        W31120   2.406  18.494  13.786  0.2715  0.4575  0.1450
15504W        W31121   2.166  10.015   2.901 -0.1278 -0.0683 -0.3921
15505W        W31122   4.526  11.195   2.544  0.0618 -0.3625 -0.0068
15506W        W31123   1.319  10.955   3.735 -0.0072 -0.4585  0.1375
15507W        W31124  18.440   9.251   0.624 -0.0315 -0.1412  0.0329
15508W        W31125  19.067  14.765   0.522 -0.0513 -0.1729  0.1140
15509W        W31126  15.761   0.995  12.273  0.0727  0.1642 -0.0789
15510W        W31127   2.776   7.030   4.824 -0.2558  0.3878  0.0901
15511W        W31128  16.469   3.272  10.753  0.1038 -0.0690 -0.2617
15512W        W31129   2.591   9.638  11.360  0.0838 -0.2271  0.0133
15513W        W31130  17.773   0.172   0.298 -0.4413 -0.0460 -0.1209
15514W        W31131   4.538   3.591  13.653 -0.1144 -0.4434  0.0193
15515W        W31132   4.222  12.304   3.267  0.4415 -0.3822  0.0159
15516W        W31133  10.146   7.555  14.300  0.3903 -0.0552  0.4060
15517W        W31134  16.504   2.262  11.023 -0.1172  0.1780 -0.0427
15518W        W31135   5.991  10.606  13.171 -0.2308  0.2480 -0.1495
15519W        W31136   7.334   0.762  14.783 -0.1076 -0.0173 -0.3014
15520W        W31137  17.985  15.029   1.555  0.0811 -0.1413  0.5345
15521W        W31138  16.850  13.836  14.641  0.0886  0.0672 -0.0656
15522W        W31139   8.220   9.782   2.306  0.0530  0.3162  0.1702
15523W        W31140  13.586  13.022   1.896  0.4339 -0.0191  0.1095
15524W        W31141   3.774   2.788   0.417  0.0878 -0.2282 -0.1878
15525W        W31142   0.520  16.400  10.266 -0.0346 -0.1770 -0.0140
15526W        W31143  13.263   2.406   0.187 -0.0719 -0.1759  0.0857
15527W        W31144   2.897   2.435  10.993  0.1595  0.0560  0.2767
15528W        W31145   2.654  16.736   4.613 -0.0805 -0.2102  0.0615
15529W        W31146  12.080  15.726   2.668  0.2012 -0.2642  0.2231
15530W        W31147  18.266  11.506  13.330 -0.1371 -0.1701  0.3343
15531W        W31148   2.857  13.141  12.257  0.0674 -0.1046 -0.1732
15532W        W31149   6.565  10.364   4.929 -0.1704 -0.2236 -0.0606
15533W        W31150   2.312   9.504  14.064 -0.2866  0.0646 -0.0259
15534W        W31151  15.416  11.774   1.059 -0.0294 -0.0699 -0.3221
15535W        W31152   9.137  15.263   2.273  0.0792  0.0875  0.0273
15536W        W31153   5.107  14.247   1.298  0.1864 -0.0437 -0.1853
15537W        W31154  17.707  14.630   3.732 -0.2424  0.0913  0.0417
15538W        W31155  16.053  13.208  14.961  0.1983 -0.0418 -0.0203
15539W        W31156  11.990   8.008  10.035 -0.0801  0.2405  0.1247
15540W        W31157  12.744  11.870  11.631  0.0663  0.1612  0.1532
15541W        W31158  16.628   2.417  14.781  0.2439  0.2027  0.2013
15542W        W31159   8.819   1.200   5.237  0.0459 -0.0644  0.2504
15543W        W31160  13.262   3.013   4.731 -0.1004 -0.0784 -0.0011
15544W        W31161   0.071  10.725   4.324 -0.3330 -0.0485  0.0186
15545W        W31162  12.800  10.357  12.577  0.2654 -0.0913  0.1281
15546W        W31163   7.496   6.990  10.398  0.1575 -0.2718  0.1007
15547W        W31164  11.183   2.905   2.816 -0.0419  0.1154 -0.1711
15548W        W31165  11.262  11.694  11.683 -0.0207  0.1516 -0.3721
15549W        W31166  18.796  15.197  11.022  0.0456  0.0403 -0.1054
15550W        W31167   7.569  17.333  14.850  0.0304 -0.2636  0.0030
15551W        W31168  10.414   8.471   2.473  0.0402 -0.1091  0.1051
15552W        W31169  19.002  16.289  14.599 -0.1832  0.1451  0.0482
15553W        W31170   0.083   5.865   5.155 -0.0148 -0.0645  0.0490
15554W        W31171  13.722  12.900   1.239  0.2779  0.1882 -0.0007
15555W        W31172  16.123  15.234   0.414 -0.1784 -0.1389 -0.2191
15556W        W31173   9.340   5.607   1.828 -0.2358  0.1240 -0.2082
15557W        W31174   8.425  13.668   0.173  0.1997 -0.1713  0.0836
15558W        W31175   4.866   7.480   2.016 -0.0628  0.0613 -0.3004
15559W        W31176   2.266   8.651   3.238  0.2667  0.0253  0.0461
15560W        W31177  11.774   4.439  13.704  0.0593  0.1964  0.1792
15561W        W31178   8.008  13.994   4.544  0.1151  0.1313 -0.0515
15562W        W31179  17.184   0.218   3.683 -0.4306  0.0898  0.1981
15563W        W31180   0.766  15.175   0.186  0.0069  0.4311  0.3107
15564W        W31181   7.888   8.179  10.580 -0.1173  0.2015  0.0695
15565W        W31182   6.265   0.812   3.486 -0.0346  0.1108  0.1166
15566W        W31183  15.736  16.248  11.283 -0.0540  0.1138 -0.1715
15567W        W31184  16.220  17.681  12.000 -0.1114  0.1564 -0.1374
15568W        W31185   7.485   3.176   3.869 -0.2227  0.1926  0.1437
15569W        W31186  10.408  17.399   4.336  0.1836  0.1735 -0.5985
15570W        W31187   2.594   0.099   2.014  0.2489  0.1928  0.0162
15571W        W31188   8.850  16.439  12.333  0.3739 -0.1359 -0.0690
15572W        W31189  12.470   0.517  11.387 -0.0255  0.1196 -0.0754
15573W        W31190   4.403  16.171   3.722 -0.2618 -0.0581  0.4932
15574W        W31191   1.925  16.818  13.764 -0.0524 -0.1627 -0.0062
15575W        W31192   2.075  15.813   1.525  0.4009 -0.0492  0.0594
15576W        W31193   6.432  11.134  12.253 -0.1271 -0.0042 -0.0602
15577W        W31194  18.136  19.044   0.541 -0.0997 -0.0464 -0.0180
15578W        W31195   9.181  16.818  12.581  0.0854 -0.2066  0.1179
15579W        W31196   9.880   0.126   0.125 -0.0538  0.0278  0.0587
15580W        W31197  14.937  12.243   4.028 -0.2518 -0.2570 -0.1043
15581W        W31198   4.570  13.728   0.830  0.0296  0.2511  0.2638
15582W        W31199   9.750  12.756  11.220 -0.3847 -0.2318 -0.0020
15583W        W31200   7.611  15.957   5.389  0.0340 -0.3481  0.1283
15584W        W31201  17.889   6.571  13.098  0.1142  0.0941  0.2508
15585W        W31202   8.725  18.771   2.117  0.1885  0.2306  0.0701
15586W        W31203  13.896  15.056  11.270  0.1891  0.4323 -0.1252
15587W        W31204  10.084  11.237  12.499 -0.1359  0.0425  0.0354
15588W        W31205   6.203   1.237  11.393 -0.0709 -0.0343  0.2091
15589W        W31206   8.212   4.022  12.109 -0.1098  0.1709 -0.3675
15590W        W31207   8.872  17.238   4.313 -0.0802 -0.2059  0.4215
15591W        W31208   1.549  18.487  11.522 -0.0552  0.0328  0.2723
15592W        W31209   1.715   2.757   4.152  0.0093  0.0251  0.1026
15593W        W31210  10.362   2.686   4.409  0.4847  0.0153  0.1931
15594W        W31211   1.852   0.442   2.133 -0.2875  0.3307 -0.2280
15595W        W31212  18.514  17.271   3.826 -0.3827 -0.0099 -0.1573
15596W        W31213   1.500   6.035  11.226 -0.1804 -0.1328  0.0636
15597W        W31214   0.852  12.594  14.502  0.2646  0.1471 -0.1596
15598W        W31215   6.994  16.402  14.793  0.3239  0.0935  0.0029
15599W        W31216  13.002  16.296  12.838  0.2623  0.0046 -0.3567
15600W        W31217  14.552   6.404  14.633  0.0263 -0.2045  0.3752
15601W        W31218  15.471   5.469   2.281  0.0031 -0.1416 -0.1538
15602W        W31219   2.786  17.650  11.189 -0.0621 -0.0502 -0.0494
15603W        W31220  11.276   9.113  14.392 -0.1258  0.1678 -0.3409
15604W        W31221  17.335  11.741   4.431 -0.1526 -0.0521 -0.0768
15605W        W31222  11.838   0.462   3.316 -0.1146  0.2235  0.0211
15606W        W31223   6.640  13.287  12.700 -0.1020 -0.0324  0.2630
15607W        W31224   2.340  14.771   1.732  0.0665  0.1022 -0.0630
15608W        W31225   5.213  15.173   5.167  0.2470  0.1673 -0.0402
15609W        W31226  18.237   3.443   0.285  0.0439 -0.1616  0.1320
15610W        W31227  18.183  10.781   4.337 -0.1411 -0.0954  0.3065
15611W        W31228   4.934  18.979  11.365 -0.1672  0.2789 -0.1148
15612W        W31229  16.813  17.420   4.620  0.0965  0.2169  0.1077
15613W        W31230   5.038   8.538   2.369  0.2145  0.2162 -0.2736
15614W        W31231  16.090   6.777  11.377  0.0261 -0.3312  0.1245
15615W        W31232  18.392   7.511   3.359 -0.0844  0.2311 -0.2576
15616W        W31233   7.722   7.071  12.431 -0.2321  0.1529 -0.0456
15617W        W31234  10.342   9.445   1.045  0.1192  0.3749  0.3233
15618W        W31235   8.830   7.447  13.919 -0.0296 -0.0394  0.1984
15619W        W31236   9.237  16.943   4.468  0.1737 -0.1263  0.0999
15620W        W31237   7.306  13.566   2.197 -0.5187  0.2029 -0.1718
15621W        W31238   3.859   4.890   3.324 -0.1601  0.0252 -0.0321
15622W        W31239  13.661   2.844   3.629 -0.0725  0.1327  0.0849
15623W        W31240  17.492  14.200  14.003 -0.0519 -0.0737  0.2485
15624W        W31241   3.950  16.547  14.186 -0.0230  0.0846  0.0166
15625W        W31242   9.230   6.589  13.515  0.1658  0.0118  0.3585
15626W        W31243   9.520  15.868  12.458 -0.3328 -0.3844  0.0913
15627W        W31244   5.100  12.196  15.115  0.4401 -0.1754 -0.0982
15628W        W31245  16.775   0.920   2.168 -0.0359 -0.0557 -0.0942
15629W        W31246   2.149  11.106  14.328 -0.2406 -0.2903 -0.1261
15630W        W31247   9.230   0.858   5.469 -0.1053 -0.1872  0.0333
15631W        W31248  15.840   9.548   2.789  0.1339  0.1678  0.1763
15632W        W31249  11.743  16.903  12.743 -0.2506  0.0390  0.0603
15633W        W31250   4.027   3.770   0.943 -0.2962 -0.0452 -0.2860
15634W        W31251   4.302  17.913  13.486  0.2273  0.2406 -0.2347
15635W        W31252  17.876  13.872  14.028 -0.1355 -0.1189  0.0009
15636W        W31253   1.338  13.932  13.335  0.0157  0.1489  0.0396
15637W        W31254   5.064  15.666   5.853 -0.0839  0.1768 -0.1291
15638W        W31255  12.970   5.583   2.955  0.1437 -0.0877 -0.0628
15639W        W31256  18.065  18.149  13.640 -0.1053 -0.0166  0.3339
15640W        W31257   2.649   7.435   0.580 -0.0656  0.3058  0.0891
15641W        W31258   1.338  14.643  10.690  0.2285 -0.2138  0.0321
15642W        W31259  16.586   9.353   0.945 -0.0507 -0.1858 -0.0050
15643W        W31260   9.491  17.471   0.729  0.2708 -0.0875  0.2927
15644W        W31261  17.009   6.379  11.652 -0.3656  0.0698  0.2672
15645W        W31262  13.942  18.674  11.873  0.1395  0.0545 -0.0786
15646W        W31263   6.100  13.194   3.557  0.1112 -0.1948 -0.0903
15647W        W31264  18.717   5.886   0.307  0.0898 -0.0888  0.0073
15648W        W31265  14.337  10.986  11.416  0.1486  0.1253 -0.2175
15649W        W31266  12.176   2.196  10.500 -0.2804  0.2473  0.1026
15650W        W31267   1.317   6.646  14.807  0.1622  0.1815 -0.3119
15651W        W31268   8.754  15.723  13.488 -0.0978  0.1236 -0.0940
15652W        W31269  10.790   1.613  13.711 -0.1183 -0.0201  0.2436
15653W        W31270   0.446   7.272   3.284  0.0413  0.3382  0.3131
15654W        W31271  12.735  12.852   0.896  0.2872 -0.0282  0.0915
15655W        W31272  18.171   6.310  13.980 -0.1720  0.0066 -0.0440
15656W        W31273  10.777  11.150   1.268 -0.1856  0.0350  0.1781
15657W        W31274   8.811  11.187   0.953  0.1870  0.0494  0.1857
15658W        W31275  16.962  14.906   0.825 -0.0052 -0.1423 -0.0631
15659W        W31276   5.590  11.694  11.992  0.1809 -0.0328  0.0072
15660W        W31277   8.712  12.571   3.707 -0.0243  0.1799  0.0468
15661W        W31278   2.022   9.181  10.660  0.1061 -0.0940  0.0271
15662W        W31279  11.746   1.809   5.039  0.0749  0.0367  0.0416
15663W        W31280  13.840   8.754   0.535 -0.1418  0.1704 -0.4795
15664W        W31281   0.804  11.809   0.824  0.0856  0.1311  0.1409
15665W        W31282   2.917  17.484  13.741  0.1236 -0.0293 -0.0922
15666W        W31283   0.160   1.749  14.847 -0.3256  0.0588  0.1483
15667W        W31284  14.966   5.285  14.637 -0.1016  0.0486 -0.0383
15668W        W31285  10.360   0.089   3.848  0.1750 -0.1447  0.1639
15669W        W31286  15.137  14.658   5.034  0.1843  0.1463 -0.2640
15670W        W31287  13.367   4.689   2.406  0.0527 -0.1044 -0.4101
15671W        W31288   8.234  15.988   3.572 -0.2386 -0.0887 -0.0560
15672W        W31289  12.809   3.132   2.732  0.1482 -0.0688 -0.0600
15673W        W31290  12.275   7.606   4.918  0.0485 -0.0106  0.0223
15674W        W31291   2.984   8.797  11.358  0.0068  0.2741 -0.0641
15675W        W31292   5.862   5.748   0.896 -0.1556  0.3445  0.0869
15676W        W31293  16.469  14.991  12.038 -0.2854 -0.4633 -0.2449
15677W        W31294  10.239  12.485  10.724 -0.0714 -0.0310  0.0859
15678W        W31295  13.411   3.294  11.761  0.0166  0.0912 -0.1817
15679W        W31296  11.956   2.166  12.339  0.3150  0.0764 -0.0278
15680W        W31297  12.609  13.843   0.007  0.0368 -0.3385  0.0224
15681W        W31298   1.300   8.448  11.088  0.1151 -0.2362 -0.0934
15682W        W31299  14.750   3.968  15.074 -0.3324 -0.3809 -0.0255
15683W        W31300  18.965   8.863   2.581 -0.1140 -0.1583  0.0499
15684W        W31301   3.336  13.610   0.205 -0.1722 -0.0638  0.2962
15685W        W31302   3.395   5.635  11.337 -0.5251  0.1731  0.1355
15686W        W31303   6.316  14.950   0.735  0.1211  0.1377 -0.1511
15687W        W31304  15.233  18.667  14.796 -0.2393  0.1901  0.2431
15688W        W31305   7.438   8.862  15.079 -0.0722  0.1446 -0.1010
15689W        W31306  15.387  13.275   0.749 -0.1619  0.2222  0.2948
15690W        W31307  13.759  15.169   0.203  0.2112  0.0311 -0.0466
15691W        W31308  13.848  10.289   0.380  0.2207 -0.8141 -0.0294
15692W        W31309  16.947  16.970   4.909  0.1223 -0.1353  0.3310
15693W        W31310   5.171  14.262   2.769  0.1076  0.0284  0.0742
15694W        W31311   6.690   4.123  14.587 -0.3088  0.1673  0.1838
15695W        W31312  10.467   4.857  14.696 -0.0388 -0.2255 -0.2084
15696W        W31313  18.057  14.853   9.873 -0.0056 -0.1066  0.2984
15697W        W31314  10.597   6.307  14.051  0.1588 -0.3148 -0.2070
15698W        W31315   7.438   9.193   2.367 -0.1474  0.0122  0.1104
15699W        W31316   9.254   0.782   4.454  0.1068 -0.1993  0.1713
15700W        W31317  15.372   2.866  13.888 -0.2401 -0.0150  0.3048
15701W        W31318  13.399   7.923  11.209 -0.0954  0.0043  0.0014
15702W        W31319  13.193   6.364  10.618 -0.1876  0.2829  0.1271
15703W        W31320  15.379  14.853  14.898 -0.0391 -0.1832  0.0860
15704W        W31321  12.180   0.356   1.166 -0.0357  0.0288  0.3293
15705W        W31322  15.831  17.125   0.378 -0.0392  0.2223 -0.0507
15706W        W31323   9.910   5.759   5.928  0.2363  0.2549 -0.4005
15707W        W31324   1.704   0.635  13.367 -0.0760  0.3417  0.2170
15708W        W31325  17.300   9.089   4.305  0.0552 -0.1623  0.0509
15709W        W31326   0.478  18.052   1.588  0.1522  0.2448 -0.5964
15710W        W31327  16.328  14.144  14.251  0.1163  0.1404 -0.0467
15711W        W31328   0.790  10.436   0.076 -0.0346  0.0304  0.4820
15712W        W31329   1.351   9.519   0.314  0.1321  0.1745 -0.0575
15713W        W31330  11.285  12.097  14.652 -0.1826  0.0055 -0.0936
15714W        W31331   4.061   2.378   3.949 -0.0739 -0.1777  0.0840
15715W        W31332  12.453   4.235   2.571  0.2981 -0.2894 -0.1327
15716W        W31333   2.936  14.431   3.719 -0.1350 -0.1858 -0.2160
15717W        W31334  17.724   3.455  15.232  0.2681 -0.3586 -0.1298
15718W        W31335   9.430   8.858   0.831 -0.3622 -0.2309  0.1856
15719W        W31336   2.857   4.935   1.726 -0.0126  0.0854  0.0872
15720W        W31337  14.017   3.082   5.080  0.0402  0.1574  0.1561
15721W        W31338   4.512   5.409   0.233 -0.1231 -0.2998  0.1083
15722W        W31339  10.842  19.066   4.916 -0.2276 -0.1149  0.0303
15723W        W31340   6.507   9.632  13.331 -0.0527 -0.0574  0.5593
15724W        W31341  11.594  12.223   5.242 -0.0413 -0.3144 -0.3949
15725W        W31342   4.329  11.835   5.273  0.4214 -0.0196  0.0369
15726W        W31343   8.306  18.158  13.859 -0.1277 -0.1497  0.3360
15727W        W31344   7.262  18.397   0.167 -0.3067 -0.1207 -0.0862
15728W        W31345   8.722   0.154   5.225 -0.0384  0.1559  0.2467
15729W        W31346  17.371   1.890   0.874 -0.0201 -0.4065  0.0822
15730W        W31347  12.595   2.581   2.022 -0.0463  0.0476  0.0578
15731W        W31348  11.289   9.160   2.443 -0.1301  0.3093 -0.2279
15732W        W31349   0.843  17.265   1.081  0.2060  0.0520  0.2660
15733W        W31350  17.575  13.838   3.720  0.1634  0.0355  0.4367
15734W        W31351   4.498  16.847  13.515  0.0985  0.0438  0.2676
15735W        W31352  13.312  16.317   9.745 -0.3191  0.0095  0.2938
15736W        W31353  13.286  13.629  13.941  0.0991  0.3204 -0.1239
15737W        W31354  17.855   6.494   1.844 -0.1379  0.0490 -0.3404
15738W        W31355   1.124   9.482   1.704  0.1631 -0.1547 -0.0433
15739W        W31356  18.150   3.134  12.259 -0.0373 -0.0413 -0.1503
15740W        W31357   3.117   2.871   2.009  0.0628 -0.2226  0.0465
15741W        W31358   0.610  11.656   3.956 -0.0883 -0.3188 -0.0687
15742W        W31359   3.267   7.543   3.429 -0.0535 -0.1051 -0.0862
15743W        W31360   2.908  15.535  14.299  0.1828  0.1227 -0.1486
15744W        W31361   6.880   7.957   3.633  0.0064  0.2555 -0.1822
15745W        W31362   8.194  15.005   2.130 -0.5096  0.2894 -0.4123
15746W        W31363  10.576   3.726   0.055 -0.0938 -0.0169  0.0122
15747W        W31364  18.018   9.387   4.401 -0.0859  0.3629  0.3032
15748W        W31365  18.275   7.380   0.446 -0.0234  0.2360 -0.0541
15749W        W31366   3.810   0.676  12.604 -0.0146  0.0729 -0.1655
15750W        W31367   6.019  18.323   0.291 -0.0705  0.1026 -0.3495
15751W        W31368  11.328   0.657   2.118 -0.2588  0.1802  0.3417
15752W        W31369  12.182   2.181   4.226  0.0084  0.0502 -0.5549
15753W        W31370   5.845   4.218  12.191 -0.0244  0.2696 -0.2158
15754W        W31371   5.118  16.112   3.447 -0.0337 -0.0523  0.0175
15755W        W31372  13.788   0.622   4.618  0.0545  0.0535 -0.2991
15756W        W31373   2.526  15.843   2.318  0.2771 -0.1415  0.1791
15757W        W31374   4.512  16.351   5.724 -0.1153 -0.1755  0.0223
15758W        W31375  16.785   8.030  14.949  0.1546  0.1720  0.0482
15759W        W31376  14.315  18.380   4.941  0.2284  0.2127  0.1092
15760W        W31377  14.083   0.771   3.591  0.0530  0.1835 -0.0383
15761W        W31378  17.186   5.167  14.600 -0.2246 -0.0037  0.0990
15762W        W31379   7.125   4.992   3.130 -0.1695 -0.0499 -0.1227
15763W        W31380   9.181  12.683  11.622 -0.0865 -0.3437  0.0026
15764W        W31381   6.389   5.032   2.104  0.1562  0.0210 -0.0208
15765W        W31382  12.545  16.728  13.861 -0.1258  0.2174 -0.0718
15766W        W31383   2.785   7.831  10.365 -0.2248 -0.0685 -0.0241
15767W        W31384  17.951   4.071   0.291  0.0066  0.1090 -0.1172
15768W        W31385  16.452   0.013   4.622  0.2038 -0.0037  0.0561
15769W        W31386   6.107   0.749  14.982 -0.0520 -0.2400 -0.1882
15770W        W31387  15.482  12.684   4.156  0.2079  0.1968 -0.3137
15771W        W31388   1.955   8.992  14.609  0.1667  0.3392  0.3527
15772W        W31389   6.765   6.540   1.872 -0.0441  0.0552  0.0949
15773W        W31390   4.314  13.410  11.161 -0.0048 -0.1468 -0.0207
15774W        W31391   1.979   6.810  10.988  0.1345  0.0386 -0.0349
15775W        W31392   0.454  15.900   2.872  0.1064  0.0911  0.0393
15776W        W31393  13.218  14.892   0.073 -0.0790 -0.2039  0.0973
15777W        W31394   2.722   3.107  12.874  0.1024 -0.2877  0.0636
15778W        W31395  16.813   2.523  11.350  0.2827  0.0516 -0.0635
15779W        W31396  11.627   1.669   3.078  0.0344 -0.2391 -0.3125
15780W        W31397  18.136  10.140   0.831  0.0397  0.0803 -0.1596
15781W        W31398   6.722   3.089   1.400  0.3978 -0.0314 -0.3243
15782W        W31399  18.596   7.662   5.611  0.0126  0.1276  0.0267
15783W        W31400  14.531   5.567  10.574 -0.3908  0.3367 -0.1253
15784W        W31401  14.880  13.443   1.902 -0.0443 -0.0968  0.0638
15785W        W31402   7.477   3.251  10.090 -0.1798  0.2188  0.0651
15786W        W31403  11.480   3.340   0.619  0.0749 -0.0912  0.2846
15787W        W31404   9.713  13.240  11.035 -0.0151 -0.0880  0.1247
15788W        W31405  16.059  15.352   2.558  0.0891  0.1102  0.1798
15789W        W31406   1.740  15.210   1.120  0.0443 -0.0947  0.1151
15790W        W31407   6.151  12.713   3.791 -0.1633  0.1860  0.1412
15791W        W31408   4.549   9.291  14.249 -0.2527  0.0905 -0.2782
15792W        W31409  13.810  18.732   5.581  0.2488 -0.0760  0.3259
15793W        W31410  14.924   0.807  15.002 -0.2231  0.3035  0.1593
15794W        W31411   1.200  12.459   3.746  0.2212 -0.3705 -0.3492
15795W        W31412   9.651  12.412   3.905  0.0349  0.2230 -0.0113
15796W        W31413  13.422  18.032   1.327 -0.2058 -0.0913 -0.2603
15797W        W31414   7.325  12.696  13.503 -0.0838 -0.0484  0.0001
15798W        W31415  13.648   3.799  14.871 -0.0846 -0.1143 -0.1841
15799W        W31416  12.974   9.131   2.066  0.0676  0.0071  0.1143
15800W        W31417  10.563   0.423  12.438  0.3581  0.0243  0.0283
15801W        W31418   9.396   4.385  11.804  0.0994 -0.2823  0.3851
15802W        W31419  11.638  17.884  14.706  0.0060 -0.1468 -0.1236
15803W        W31420   2.347  10.543   1.275 -0.0256 -0.0297  0.1509
15804W        W31421   6.276   0.283  10.076 -0.1275  0.1413 -0.0944
15805W        W31422   4.812   6.047  14.447 -0.0747  0.0807 -0.0040
15806W        W31423   4.649   6.448   2.550 -0.0317  0.1016 -0.1380
15807W        W31424   7.688  15.014   3.047 -0.1659 -0.0482  0.0546
15808W        W31425  19.071   5.037  14.588  0.1361 -0.2243  0.2533
15809W        W31426   5.568   7.877  13.574 -0.0675  0.1404 -0.1355
15810W        W31427  14.088  12.371  11.457  0.0848  0.0547  0.0230
15811W        W31428   7.527   9.238  14.248  0.3584 -0.3037  0.1636
15812W        W31429   1.746   3.388  14.111 -0.2845  0.0648  0.0776
15813W        W31430  18.931  10.901   1.769 -0.0040  0.2198 -0.1386
15814W        W31431  18.627   7.285   0.135 -0.2147 -0.0426 -0.0914
15815W        W31432  10.312   5.172  14.179  0.2000 -0.0265 -0.1141
15816W        W31433  12.261   8.761  14.875 -0.5143 -0.1252  0.1270
15817W        W31434  10.537  12.081   4.100 -0.4206  0.0225  0.0919
15818W        W31435   4.751   8.126  13.501 -0.1561 -0.1757  0.0472
15819W        W31436   9.959   6.500  12.324 -0.0622  0.2328 -0.0913
15820W        W31437  18.323  13.668   3.468 -0.1718 -0.3005 -0.1029
15821W        W31438   7.914  10.788  14.615  0.0589 -0.0489  0.0946
15822W        W31439  15.262  17.445  14.509 -0.1586  0.2403  0.1194
15823W        W31440   9.771  16.881   5.291  0.0943  0.1485 -0.0013
15824W        W31441   8.734   5.741  13.514 -0.0753 -0.2778  0.1947
15825W        W31442  17.435   6.331   3.182 -0.3470 -0.1551  0.0962
15826W        W31443   0.976   2.253  10.631  0.1927 -0.1046  0.1012
15827W        W31444  18.362   1.820  12.414  0.0329 -0.0023  0.2695
15828W        W31445   2.288  17.773  14.400  0.0281  0.2155 -0.3028
15829W        W31446   7.314   3.431  10.762  0.1255 -0.2557 -0.0563
15830W        W31447   2.070   4.960  11.661  0.3058 -0.0413  0.1692
15831W        W31448  18.548   8.530   9.914  0.1207 -0.1898  0.0507
15832W        W31449   5.246  18.752   2.915  0.4281 -0.2433 -0.1374
15833W        W31450  17.745  15.309  15.090  0.1923  0.1980 -0.3207
15834W        W31451  18.058   0.772  10.421 -0.0876  0.1235  0.0062
15835W        W31452   0.525  12.020   1.315  0.0139  0.2181  0.0560
15836W        W31453   7.511  11.062  12.403 -0.1056 -0.0384  0.2060
15837W        W31454  15.946  11.285   1.780  0.0955 -0.1618  0.1545
15838W        W31455  15.167   8.258  11.808  0.0658  0.0684  0.1418
15839W        W31456   0.478  13.590   0.451 -0.0414 -0.3765 -0.1577
15840W        W31457   7.407  10.466   5.327 -0.3022 -0.1718 -0.0084
15841W        W31458  12.636   1.437  10.523  0.0773 -0.0863 -0.0504
15842W        W31459   3.242  14.485  10.800 -0.0923 -0.0995 -0.3060
15843W        W31460  12.320  15.124  11.515  0.1452 -0.1702 -0.0903
15844W        W31461   5.668   6.941   4.518  0.0378  0.0956 -0.0992
15845W        W31462   2.772  16.176  12.842  0.2087  0.0645  0.1749
15846W        W31463  17.306   6.543  12.358 -0.0186 -0.1623  0.2784
15847W        W31464   7.774  18.979  15.088 -0.0883  0.2982 -0.0991
15848W        W31465   8.558   4.414   4.352  0.1079  0.1450 -0.1299
15849W        W31466  12.071  17.405   2.754  0.2087 -0.2827 -0.2701
15850W        W31467   7.396  10.625  14.565 -0.0176 -0.3044 -0.1770
15851W        W31468   8.385   9.257  12.435 -0.0284  0.1149  0.2689
15852W        W31469   9.098  15.175   5.273 -0.0967 -0.2106  0.0016
15853W        W31470   0.873  16.699   1.410 -0.0612 -0.0770  0.0731
15854W        W31471  11.623  13.631   2.427  0.0044 -0.0349  0.1723
15855W        W31472   3.575   0.849  13.426  0.2693  0.2331  0.1422
15856W        W31473   9.339  15.406   5.743  0.0251 -0.3273  0.5491
15857W        W31474  18.652   6.193  13.877 -0.1567  0.4808  0.0226
15858W        W31475   3.487  14.668  14.411  0.1578 -0.0042  0.0612
15859W        W31476   4.579  14.346  11.469 -0.0516 -0.1571  0.0342
15860W        W31477  10.598   9.232  11.006  0.3920  0.0021  0.1640
15861W        W31478  14.118  12.855  11.310  0.1707  0.1447 -0.1684
15862W        W31479   9.851  18.910   1.057 -0.2948  0.0387  0.0051
15863W        W31480  13.441   1.615   3.196  0.1858 -0.0202  0.0073
15864W        W31481  17.537   2.258  14.836 -0.0737  0.3945  0.2456
15865W        W31482  13.828   5.616  10.800  0.3743 -0.0415  0.4493
15866W        W31483   2.824   0.674  12.717  0.2257 -0.0866  0.1909
15867W        W31484  15.439  17.151  13.343  0.0602 -0.1126  0.1387
15868W        W31485  10.153  17.719   3.432 -0.2415 -0.1036  0.1061
15869W        W31486   5.782   8.139  14.012  0.3680  0.0054  0.2626
15870W        W31487  13.002   5.998   0.796 -0.0066 -0.0056  0.2489
15871W        W31488  12.249   2.041   1.347  0.4964  0.2292 -0.2319
15872W        W31489  13.496   0.839   4.290 -0.2586 -0.1166  0.1304
15873W        W31490   7.205   6.807  15.276  0.2102  0.3497 -0.0211
15874W        W31491   4.294   2.521  13.936  0.3720 -0.1977  0.0441
15875W        W31492   9.519  15.601   4.826  0.3189 -0.0492  0.2919
15876W        W31493   9.498  14.408  14.818 -0.1439 -0.1223  0.0472
15877W        W31494  15.533   3.492  14.724  0.3188  0.0985 -0.3790
15878W        W31495  11.624  12.352   0.488  0.2207  0.1833  0.0621
15879W        W31496   1.134  17.143  11.271 -0.0906  0.1531 -0.3658
15880W        W31497   3.956  16.817   1.703  0.2958 -0.2787  0.2115
15881W        W31498  17.458   4.708  12.515  0.0867 -0.1075  0.1307
15882W        W31499  11.464   5.903  14.666  0.0623 -0.0224  0.0852
15883W        W31500  13.941   8.226   4.894  0.0931 -0.1131  0.2075
15884W        W31501   6.664   0.597  14.510 -0.0675 -0.0805  0.1349
15885W        W31502  14.137   3.070  11.758  0.2375 -0.0153  0.0072
15886W        W31503   1.948   4.633   4.014  0.2056 -0.2005 -0.3162
15887W        W31504   0.002   7.676   2.625 -0.3468  0.1769 -0.5310
15888W        W31505  18.001  13.440  15.190  0.0341 -0.1293 -0.1849
15889W        W31506   9.492   4.111   1.646 -0.1583 -0.3152  0.0632
15890W        W31507  16.326   6.493  11.100  0.3452  0.2509  0.2701
15891W        W31508  12.306   3.418  12.849  0.0200 -0.3730  0.0092
15892W        W31509  13.063   6.597  13.696  0.2588 -0.1729  0.0840
15893W        W31510   0.148   2.203   2.163 -0.0119  0.2690  0.0087
15894W        W31511   0.084   1.560   5.802 -0.2493 -0.3529  0.1104
15895W        W31512  12.973   3.190  11.046 -0.0841  0.1746 -0.0221
15896W        W31513  18.338   7.252   4.944  0.0067 -0.1523  0.0052
15897W        W31514  12.524  11.450   9.751 -0.0920 -0.3464 -0.1076
15898W        W31515  16.392  12.044   5.712 -0.0547 -0.1266 -0.0522
15899W        W31516   0.840  16.416   2.196 -0.0546 -0.1802  0.0076
15900W        W31517   9.964   6.155   2.317 -0.0230  0.2216  0.1256
15901W        W31518   8.227   1.440  14.791  0.3026 -0.2036  0.1313
15902W        W31519  16.181   4.395  13.869 -0.0740  0.2109  0.0801
15903W        W31520   1.343   5.208   2.973  0.0605  0.1237  0.2756
15904W        W31521  12.948  15.897  13.208 -0.0101  0.0109 -0.0141
15905W        W31522   5.609   6.270  12.345 -0.1163  0.2004  0.0528
15906W        W31523  16.156   8.846  12.371 -0.0051 -0.0996 -0.5068
15907W        W31524   3.359  15.815  14.127 -0.2212 -0.2792 -0.4134
15908W        W31525   6.874  10.750   2.613 -0.3042  0.1855  0.0392
15909W        W31526   2.757  11.644  12.130  0.3098  0.1890  0.1467
15910W        W31527   9.254  13.849   3.139  0.1857 -0.0570 -0.0015
15911W        W31528   9.518   0.402  13.574 -0.2261  0.1392  0.1244
15912W        W31529  17.733   0.340  14.291 -0.0380 -0.0578 -0.1869
15913W        W31530   9.817  10.326   2.636  0.3499 -0.4949  0.1350
15914W        W31531   2.946  17.565   2.819  0.0932  0.6222  0.1421
15915W        W31532   5.952  14.062  13.881 -0.0608  0.2799  0.1066
15916W        W31533   9.204  12.456   0.346 -0.0415  0.3165 -0.0338
15917W        W31534   1.886   0.602  11.334 -0.3068 -0.1561  0.2356
15918W        W31535  14.420   4.466   0.183  0.1006  0.0222 -0.0314
15919W        W31536  18.102   3.811  15.158  0.2367  0.2238  0.2395
15920W        W31537   9.292   9.995  13.647 -0.0261  0.1040  0.3262
15921W        W31538   2.574  18.714  13.377  0.0303 -0.2376  0.1548
15922W        W31539   4.474  18.654   4.408 -0.4010 -0.1332 -0.0276
15923W        W31540   0.701  16.985  10.939 -0.0330  0.2155  0.1917
15924W        W31541   6.246   6.959   3.758 -0.0378 -0.0344 -0.1048
15925W        W31542  16.167  18.079  10.337  0.0005  0.0801 -0.0832
15926W        W31543  10.988  13.485  13.259  0.2478 -0.0995  0.1957
15927W        W31544   1.437  10.639  12.230  0.1838  0.3917  0.0589
15928W        W31545   4.672  16.949  14.974 -0.2158 -0.1995  0.1464
15929W        W31546   4.975   2.311  15.144 -0.1956 -0.1338  0.1164
15930W        W31547  16.075   4.442  11.224  0.0477 -0.0760  0.4062
15931W        W31548  13.949  15.888  12.598 -0.3136  0.2623 -0.0867
15932W        W31549   9.064   7.514   9.878 -0.4815 -0.1216  0.0657
15933W        W31550  13.716  12.742  14.080  0.1020 -0.1306 -0.0925
15934W        W31551   1.938  17.892   2.680 -0.0853 -0.2832 -0.1498
15935W        W31552   0.097   2.552  12.946 -0.1606 -0.5153 -0.1150
15936W        W31553  10.672   6.015   3.158 -0.0580  0.2384  0.4580
15937W        W31554  17.881  11.039  10.681  0.1131  0.1615 -0.0911
15938W        W31555   6.127  14.145   4.015  0.4157 -0.3176 -0.3388
15939W        W31556   5.711  16.724   0.066  0.0139 -0.0906  0.0209
15940W        W31557   1.927   1.661  11.873  0.1167  0.2231  0.2655
15941W        W31558  15.017  13.291  15.192  0.3732 -0.2218 -0.2055
15942W        W31559   6.476   0.106  14.441 -0.1055  0.0079  0.0126
15943W        W31560  15.085   2.991   3.572  0.2661 -0.1830  0.1193
15944W        W31561  14.763  19.010   4.032 -0.2031 -0.1815 -0.4190
15945W        W31562   5.431  10.749   2.900  0.0220  0.1706 -0.2141
15946W        W31563   9.545   1.011  12.629 -0.0124 -0.0748  0.0098
15947W        W31564  15.990   0.747  13.033 -0.4081  0.1537 -0.2008
15948W        W31565  17.389   5.454   3.993 -0.0409  0.0783  0.2885
15949W        W31566   5.455  18.132   3.258 -0.5171  0.0619 -0.2300
15950W        W31567   0.423   7.880  15.028 -0.2645 -0.1310  0.1040
15951W        W31568   6.412  11.394  14.523 -0.0120 -0.0091  0.0641
15952W        W31569   9.067   8.171  12.085  0.1862 -0.3302 -0.2604
15953W        W31570   1.585   0.926   2.664  0.0038  0.2615  0.2534
15954W        W31571  15.045   9.334   3.327  0.2122  0.2182 -0.0728
15955W        W31572   2.746   5.584   0.549  0.0187 -0.2361 -0.1302
15956W        W31573  17.136  13.324  12.149 -0.0596  0.1760 -0.4686
15957W        W31574   5.592   4.013   2.567 -0.3210 -0.0205 -0.1026
15958W        W31575   4.692  18.554  15.246 -0.1323 -0.1718 -0.0286
15959W        W31576  17.340   2.154  10.983 -0.1482 -0.0234 -0.1369
15960W        W31577  11.665  16.396  11.470 -0.1198  0.0682 -0.0205
15961W        W31578   4.311   4.321   5.720 -0.1713  0.0629  0.4584
15962W        W31579  11.616   7.899   3.814 -0.2232 -0.2060  0.1213
15963W        W31580   4.465  13.607  10.708  0.1729  0.4723  0.0319
15964W        W31581   4.367   7.182   0.459  0.0232  0.0760  0.0727
15965W        W31582   6.586   7.705  10.002 -0.1096 -0.0224 -0.5047
15966W        W31583  14.874  13.187   0.477 -0.1278 -0.1655  0.0725
15967W        W31584   1.090  12.553  14.047  0.2252 -0.0359  0.2331
15968W        W31585   1.062   4.312  13.193 -0.2267 -0.0258 -0.4635
15969W        W31586   8.204  12.308   2.701  0.2615 -0.2055  0.2861
15970W        W31587   8.300   9.473   3.488  0.0325 -0.0707  0.2149
15971W        W31588  12.205   7.003   5.722  0.1698 -0.1197  0.1745
15972W        W31589  11.166  13.195   1.611 -0.1054 -0.1110  0.0900
15973W        W31590   7.472   5.300  10.738 -0.2421 -0.1311  0.0535
15974W        W31591   8.469  13.661  14.893 -0.4842  0.0845 -0.0648
15975W        W31592  12.784  12.948   2.415 -0.1204 -0.1005 -0.3550
15976W        W31593   3.679  15.456   0.864 -0.2535  0.1787  0.0841
15977W        W31594  18.866  13.868  10.181 -0.2623  0.0148  0.0067
15978W        W31595  18.059  12.995   1.403  0.0797  0.0221 -0.0767
15979W        W31596  15.410  17.591  13.102  0.5134  0.0159 -0.0582
15980W        W31597   6.063   1.056   2.911  0.2375  0.4154 -0.2260
15981W        W31598   3.539  18.877   3.653 -0.1602  0.0415  0.1308
15982W        W31599   4.848   7.941  11.957 -0.0646 -0.3033  0.0723
15983W        W31600   6.713   4.257   1.559 -0.0707  0.0710  0.1543
15984W        W31601   8.665   6.933  11.309  0.2012 -0.2529 -0.0611
15985W        W31602  17.307   7.775   1.267  0.2381 -0.1556  0.1102
15986W        W31603  13.634  14.998  14.970  0.0077  0.0217 -0.0446
15987W        W31604   6.697  15.994   0.926  0.1058  0.2613 -0.2068
15988W        W31605   8.692  13.279   2.632 -0.1100 -0.0912  0.0176
15989W        W31606   9.473  16.532  12.979 -0.1300  0.0677  0.3903
15990W        W31607   8.812   3.029  13.182 -0.0037 -0.2133  0.2449
15991W        W31608  16.050   7.758  12.840  0.6036  0.4240  0.0530
15992W        W31609   4.689  15.510  14.761 -0.1349 -0.2244 -0.3704
15993W        W31610   6.670   2.851   6.456  0.2007  0.0830 -0.1849
15994W        W31611   6.557  13.756   3.545  0.0900 -0.2384 -0.0258
15995W        W31612  17.558  15.926   1.174 -0.1340  0.2043 -0.3843
15996W        W31613   7.575  13.290   4.030 -0.0391  0.0109 -0.2206
15997W        W31614  18.763  16.644  12.262  0.2236  0.1874 -0.0767
15998W        W31615   9.475  10.128  15.025  0.0455  0.0593 -0.0353
15999W        W31616   6.991   3.713  13.073  0.2778  0.1101  0.0391
16000W        W31617  12.679   7.988  12.622 -0.4258  0.1679 -0.1111
16001W        W31618  10.527   1.139   3.307  0.0943  0.0348  0.3373
16002W        W31619  14.798   8.144   1.298  0.0487 -0.4315 -0.1285
16003W        W31620  15.012  13.366  11.451  0.1937 -0.0653 -0.2885
16004W        W31621   3.089   6.626  12.320  0.0715  0.2268 -0.0245
16005W        W31622   3.681  12.707  14.361 -0.1932 -0.6130  0.2004
16006W        W31623   5.004   4.622  15.206  0.0260  0.1202 -0.1916
16007W        W31624   2.980   6.346  11.882  0.1840 -0.1814 -0.3254
16008W        W31625  16.981   4.597   4.340  0.0243  0.1818 -0.0463
16009W        W31626   1.137  15.414  12.354  0.2807 -0.1913 -0.0749
16010W        W31627   2.797  13.487  13.791 -0.1490  0.2739 -0.0152
16011W        W31628  14.546   6.221   5.208  0.0015 -0.0652  0.0219
16012W        W31629  12.678  11.853  14.944 -0.0385  0.0628  0.0108
16013W        W31630   0.331  14.336   2.112 -0.0315 -0.1704  0.1851
16014W        W31631   4.943  18.592   4.731 -0.0127 -0.0266 -0.0854
16015W        W31632  15.199   2.024   3.285 -0.1991 -0.1419  0.1519
16016W        W31633  16.253  13.504   1.169 -0.1945  0.0671  0.1928
16017W        W31634  10.826  12.714   5.130  0.0553  0.1820 -0.1260
16018W        W31635   1.082   5.868   4.490 -0.0397  0.0152  0.2677
16019W        W31636   5.027  16.900  12.807 -0.1488  0.2456  0.1866
16020W        W31637   4.955  18.869   3.361  0.1635 -0.2222  0.2074
16021W        W31638   8.817  18.132  13.890  0.0204  0.0643  0.0396
16022W        W31639   1.224   8.107  12.813  0.2155  0.0524  0.0738
16023W        W31640  12.850   4.962  14.478  0.0088  0.1484  0.0377
16024W        W31641  13.918  14.670   0.103  0.0075 -0.4415 -0.0203
16025W        W31642   9.359  13.993   4.820 -0.0239 -0.0521  0.4536
16026W        W31643  16.466   3.225   0.954 -0.1807 -0.1403 -0.0732
16027W        W31644  11.792   5.687   3.793 -0.1701  0.0235 -0.2595
16028W        W31645  16.421   9.772  11.757  0.1975  0.1370  0.2214
16029W        W31646  13.117  12.228  14.301 -0.0766  0.5725  0.2748
16030W        W31647  16.152  10.313  13.749 -0.3312 -0.1630 -0.1753
16031W        W31648  12.696   4.203  10.181  0.0948  0.2501  0.1414
16032W        W31649   7.307  15.809  14.365 -0.0472  0.0016  0.1532
16033W        W31650  14.650   5.936   3.416  0.2412  0.0858  0.0704
16034W        W31651   1.632  14.319   0.613  0.1414 -0.1406 -0.2675
16035W        W31652   2.918  10.892  11.256 -0.0435  0.0099 -0.2393
16036W        W31653   4.110   7.280   0.871 -0.0958 -0.0902  0.2234
16037W        W31654  17.622  18.728   1.937  0.3635  0.0550 -0.0781
16038W        W31655  12.860   4.169   2.843 -0.1192 -0.0019 -0.2074
16039W        W31656  10.830  15.690   4.279 -0.2070 -0.1932 -0.1473
16040W        W31657   0.931  10.260   5.891  0.0115 -0.1138 -0.1417
16041W        W31658  13.952  13.966  10.666  0.2998 -0.0053 -0.0545
16042W        W31659  10.643   3.822   9.383 -0.2067 -0.0401 -0.4734
16043W        W31660   2.807   6.899  10.957  0.1161 -0.0092  0.2142
16044W        W31661   1.371   7.305   3.445  0.1961  0.0216 -0.1558
16045W        W31662   2.968   4.375  11.625  0.0442  0.0188  0.2260
16046W        W31663   2.897  18.356   1.522  0.2301 -0.1676  0.0353
16047W        W31664  14.624   1.314   1.029 -0.2209 -0.0772  0.4974
16048W        W31665  15.993  16.323   0.918 -0.1446 -0.1635 -0.0925
16049W        W31666  15.482   1.730   1.149 -0.3178  0.0451  0.0278
16050W        W31667   0.857  14.874  12.191 -0.1240  0.1989 -0.1828
16051W        W31668  15.397   3.736   0.174 -0.0261  0.2555 -0.0028
16052W        W31669   6.290   1.675   5.301  0.2129 -0.2862  0.1348
16053W        W31670   9.843  13.076  14.285  0.1395 -0.1048 -0.1490
16054W        W31671  14.692  16.213  13.664  0.2470 -0.0641  0.4467
16055W        W31672  18.548  14.758  11.519 -0.1547  0.0368 -0.0088
16056W        W31673  12.205  15.850   1.182  0.0710 -0.0729  0.1617
16057W        W31674  16.340  12.949   2.247 -0.0441  0.2409 -0.0777
16058W        W31675  17.938   5.415   2.311  0.0876 -0.0623  0.2907
16059W        W31676  16.430   7.206   3.584  0.2653  0.2215  0.0709
16060W        W31677  17.651   7.343   3.001 -0.0841  0.2720 -0.0230
16061W        W31678  18.027  16.210  13.603 -0.1400 -0.0186 -0.0957
16062W        W31679  17.210   4.782   0.277  0.0367  0.1233  0.1079
16063W        W31680  17.474   2.457   1.403  0.1289 -0.4037 -0.2925
16064W        W31681   6.806  10.062  14.562 -0.0546  0.2003  0.1445
16065W        W31682  10.059  18.776  10.860  0.1337  0.1631  0.0698
16066W        W31683   2.888   3.882  13.411 -0.0609  0.0783 -0.0365
16067W        W31684  15.180  16.924   4.276  0.2935 -0.0549 -0.0231
16068W        W31685   9.789  18.093   4.679 -0.0279 -0.2331  0.2464
16069W        W31686   1.271   5.346  10.595  0.0154 -0.1187 -0.2391
16070W        W31687  15.076  13.950  13.585  0.0878  0.1177  0.0681
16071W        W31688  17.619  17.192  12.204 -0.3930 -0.1706 -0.0178
16072W        W31689   8.824  18.291  15.029  0.1399  0.0495  0.1507
16073W        W31690   4.905   7.132   0.256 -0.1280  0.2420 -0.0680
16074W        W31691   7.351   5.522   3.296  0.2444  0.1281 -0.1436
16075W        W31692   2.120  12.033  14.299  0.0412 -0.0242  0.0059
16076W        W31693   4.496   3.207   1.928 -0.2377  0.1630  0.1637
16077W        W31694   2.888   6.765   3.386  0.2497  0.0111  0.0521
16078W        W31695   4.523  17.205   3.901 -0.2951 -0.0933 -0.0375
16079W        W31696   8.913   7.520  12.700  0.0899 -0.0078 -0.0506
16080W        W31697   6.218  16.150   1.154  0.0083 -0.0339 -0.2087
16081W        W31698   0.627   0.693  13.532  0.0340  0.0216 -0.1487
16082W        W31699  13.590  17.942   2.992  0.2156 -0.3383 -0.0665
16083W        W31700  17.759  13.440   4.070  0.0593 -0.1563  0.3444
16084W        W31701   0.816  10.218  11.711 -0.0172  0.3167  0.4446
16085W        W31702  14.790  11.668   0.920  0.5035  0.2220  0.0564
16086W        W31703  13.869   2.621  13.346 -0.0951 -0.1687  0.2096
16087W        W31704   3.909  15.769   1.774 -0.0229  0.1194  0.3797
16088W        W31705  12.523   7.174  14.067  0.0528  0.2179  0.0113
16089W        W31706   2.371   1.130   4.668  0.0435 -0.2081 -0.0507
16090W        W31707   8.599   0.944  11.842 -0.0925 -0.1429  0.2741
16091W        W31708   5.182  10.385   4.735  0.1286  0.3853 -0.0994
16092W        W31709  12.910   5.275   3.392 -0.0414  0.1296 -0.2479
16093W        W31710  12.820   8.244   3.554  0.3203  0.0602  0.0802
16094W        W31711   7.005  10.035  12.609 -0.2269  0.0629  0.1803
16095W        W31712  18.379  13.925   1.508 -0.1564 -0.0499  0.1256
16096W        W31713   5.952  12.250  12.951  0.1239  0.0426  0.0723
16097W        W31714  15.622  10.282   1.035  0.4179 -0.2073  0.2601
16098W        W31715  11.154  13.578  14.854  0.1419  0.0603  0.1940
16099W        W31716   2.495   0.091   1.533 -0.2661 -0.0412  0.2242
16100W        W31717   7.426  18.481   2.376  0.2032 -0.1096 -0.1269
16101W        W31718   7.518  13.044   2.220  0.0731 -0.1302  0.3084
16102W        W31719  17.157   1.488  13.372 -0.1371 -0.1006  0.3278
16103W        W31720   5.131   5.871   4.549  0.1847  0.0987 -0.4236
16104W        W31721  15.845   3.435   2.719 -0.1391 -0.2822  0.2679
16105W        W31722   2.007   2.154   1.590  0.0438 -0.3123 -0.0262
16106W        W31723   7.366   3.839   2.090 -0.3202 -0.1057  0.2159
16107W        W31724  15.640   0.323  14.980  0.1278  0.1297  0.1822
16108W        W31725   8.025   3.518   0.241  0.0428 -0.0134 -0.0823
16109W        W31726  16.627  10.170  14.098  0.2514 -0.1550  0.2713
16110W        W31727   1.721  15.662   4.380 -0.2740 -0.3685 -0.1283
16111W        W31728   3.475  12.192   0.639  0.0948  0.0951 -0.0230
16112W        W31729   5.381   8.941   2.112  0.0745  0.0293  0.1845
16113W        W31730  18.191  14.597  13.659  0.0546 -0.0921  0.1468
16114W        W31731   1.350   2.647   1.985  0.0183 -0.1248  0.0187
16115W        W31732  11.656  11.437   4.411 -0.0868 -0.1960 -0.1970
16116W        W31733  10.466  11.986  13.166  0.0745 -0.2320  0.0941
16117W        W31734   8.659  10.096  14.347 -0.3238 -0.1460 -0.2484
16118W        W31735   1.383   1.375   2.292 -0.4030 -0.2856  0.1372
16119W        W31736  17.436  13.779   4.160 -0.0735 -0.1900 -0.1852
16120W        W31737   7.188   2.911   1.099  0.0596 -0.0393 -0.3233
16121W        W31738  14.754   8.370  14.023 -0.1183 -0.2177  0.6124
16122W        W31739   5.939   7.352   3.712 -0.0061 -0.0623  0.1658
16123W        W31740  10.111  11.089   5.416 -0.1426 -0.0431 -0.5127
16124W        W31741  10.453   7.112  13.989  0.0087 -0.0195 -0.1020
16125W        W31742   0.425  14.266   1.591  0.1273 -0.0972  0.2078
16126W        W31743   8.010  11.327  15.023  0.3074  0.5929 -0.2563
16127W        W31744  12.184  10.916  15.283 -0.1425  0.2071 -0.2234
16128W        W31745   9.791  18.414  11.113  0.2019  0.4993 -0.4615
16129W        W31746   2.668  13.911  11.021 -0.1451 -0.1721  0.0257
16130W        W31747  11.810  15.954  10.334 -0.0887 -0.2110 -0.1164
16131W        W31748  17.947  18.356   0.791 -0.1540  0.2390  0.1497
16132W        W31749   3.358  15.049  13.569 -0.2595  0.3959  0.0049
16133W        W31750  13.110  13.089  12.468  0.1382  0.0868  0.3385
16134W        W31751   6.998   2.487  11.079  0.0410 -0.4630  0.2202
16135W        W31752  15.447  10.898  12.439 -0.3257 -0.0867 -0.2510
16136W        W31753   6.457  16.330  12.492 -0.1317  0.3604 -0.3821
16137W        W31754   5.944   4.109   0.347 -0.1196 -0.1245 -0.3778
16138W        W31755   0.520   1.998  14.499 -0.1702 -0.0971  0.1180
16139W        W31756  12.748   8.853  12.423 -0.0608 -0.2637  0.1547
16140W        W31757   7.002   2.866   5.271  0.1344 -0.1324 -0.0407
16141W        W31758   0.312   2.314  11.002 -0.0791  0.0393 -0.5331
16142W        W31759   0.589  14.089  14.539 -0.0938 -0.0968 -0.3338
16143W        W31760  15.889   1.207  13.579 -0.1450  0.0006  0.2457
16144W        W31761   8.904   7.285   3.599  0.0830  0.0399 -0.3591
16145W        W31762   4.998  11.563  11.928  0.2596 -0.0343  0.0394
16146W        W31763  14.730  15.372  12.646  0.2344 -0.1657  0.3172
16147W        W31764  13.194   8.356  14.987 -0.1360  0.0226 -0.0689
16148W        W31765  10.319  14.524   4.016 -0.2633  0.1745  0.0670
16149W        W31766   9.229   3.840   5.309  0.0201  0.0208 -0.3003
16150W        W31767  11.154   1.404   5.254  0.0857  0.1539 -0.0657
16151W        W31768  16.736   5.146   0.359 -0.0590 -0.1598  0.0192
16152W        W31769   1.752  13.030  14.221  0.0958 -0.3694 -0.2405
16153W        W31770  15.046   0.904   3.431  0.1224 -0.0009 -0.0271
16154W        W31771  16.112  13.774   3.828 -0.1002  0.2276 -0.0444
16155W        W31772  16.746   5.411   0.859 -0.0488 -0.2054 -0.3015
16156W        W31773   1.642   5.475   3.702 -0.0522 -0.1627  0.4159
16157W        W31774   8.911   6.559   9.505 -0.2769 -0.1964 -0.0780
16158W        W31775   6.205   2.130   1.907 -0.2489  0.1608  0.1685
16159W        W31776  18.775   7.471   1.786  0.0541  0.0832 -0.1882
16160W        W31777   3.262   3.333  13.588  0.0783  0.2699  0.1477
16161W        W31778   2.579  19.030   3.080 -0.0097  0.2143  0.0827
16162W        W31779  16.321   2.928  13.628  0.0600 -0.0561  0.0962
16163W        W31780   6.498  12.753   0.755  0.0825 -0.0659  0.0941
16164W        W31781  17.540  16.397  12.345  0.1651  0.0082  0.1194
16165W        W31782   7.861   1.508  14.443 -0.1294  0.0316  0.0228
16166W        W31783   1.610   3.885   5.463 -0.1872  0.1231  0.0265
16167W        W31784  14.241   7.060  14.455 -0.0772 -0.2080  0.2117
16168W        W31785  17.627   4.752   2.470  0.1298  0.1696 -0.2510
16169W        W31786   5.282   0.815  10.783 -0.0655  0.0929 -0.4444
16170W        W31787   5.834  16.695  11.221  0.1414 -0.0912 -0.1337
16171W        W31788   8.219  12.735  10.467 -0.2624  0.1253  0.1183
16172W        W31789   5.962   4.080   2.269 -0.0280  0.0170 -0.2444
16173W        W31790  12.423   0.558  12.384  0.2281 -0.1528 -0.1252
16174W        W31791  15.879  16.321   4.168  0.0904  0.0689  0.1470
16175W        W31792   4.403   6.104   4.047  0.0403 -0.0079 -0.0050
16176W        W31793   2.227   7.958  11.637 -0.0328  0.1562  0.1719
16177W        W31794   7.285   3.821  13.730 -0.0789  0.0492  0.0376
16178W        W31795  14.609   6.124   2.793  0.0973  0.2072  0.3848
16179W        W31796   7.811   0.112   4.949 -0.1351 -0.0898 -0.1051
16180W        W31797   8.606  12.634   0.002 -0.0304 -0.1635 -0.1606
16181W        W31798  10.382   6.520  11.534 -0.2014 -0.0763  0.2256
16182W        W31799   5.906   5.027  11.309 -0.1750  0.0488 -0.0827
16183W        W31800   8.208   5.490  14.248 -0.0466 -0.1442  0.0291
16184W        W31801   1.877   8.436   1.398  0.1967 -0.1505  0.1127
16185W        W31802   4.378   9.218  11.889  0.1691  0.0477 -0.3027
16186W        W31803  11.167  18.168  14.060 -0.1552 -0.1632  0.0683
16187W        W31804   0.138  13.195   3.415 -0.2732 -0.4279  0.4036
16188W        W31805   1.504   9.651  13.721 -0.2245  0.0149 -0.0829
16189W        W31806  16.606  17.651   2.978 -0.2384 -0.1731  0.0916
16190W        W31807  17.852  18.426  15.263  0.0660  0.1957 -0.1498
16191W        W31808  12.039   6.618  11.908 -0.0038 -0.2028  0.2773
16192W        W31809  14.505  15.045   9.850 -0.3421  0.0340  0.1659
16193W        W31810  14.602  11.266   0.639  0.0414  0.0385 -0.1452
16194W        W31811   2.557  13.215  14.850  0.1375 -0.0979 -0.1610
16195W        W31812  13.680   9.408  12.174  0.0722 -0.2296  0.3361
16196W        W31813  10.461   0.585   1.333  0.1648 -0.4880  0.0986
16197W        W31814  11.689   6.721  10.453  0.1667  0.5461  0.1620
16198W        W31815  16.619   8.445   2.030 -0.0334  0.2990 -0.0627
16199W        W31816   5.849   2.986  11.930 -0.0942 -0.0319 -0.1737
16200W        W31817  10.006   0.565   5.037  0.4337  0.2367 -0.0346
16201W        W31818  18.991  10.410   0.545  0.0684  0.4289  0.0843
16202W        W31819   9.889  16.518   0.169 -0.2234  0.0734 -0.3933
16203W        W31820  15.214  10.634   3.366  0.2574 -0.4015  0.2827
16204W        W31821  15.278   4.094  13.319  0.1938  0.0026 -0.1479
16205W        W31822  14.203  13.217  13.621 -0.2628  0.0327 -0.0073
16206W        W31823   6.448  10.983   4.989  0.1469 -0.0120 -0.1485
16207W        W31824  18.722  14.316  10.463 -0.4681 -0.1961 -0.0041
16208W        W31825  13.284   3.252  14.757  0.0730  0.2319  0.0261
16209W        W31826   6.961   9.861  11.584  0.0764  0.2382  0.0183
16210W        W31827   0.352  15.900  14.763 -0.0700  0.0033  0.4195
16211W        W31828   5.509  17.527   2.170  0.1745 -0.1873 -0.0432
16212W        W31829  13.502   4.175   0.586 -0.1197 -0.0020  0.0328
16213W        W31830   6.842   5.869  14.991  0.1268  0.1806 -0.0193
16214W        W31831  14.263  13.376   3.642 -0.0316  0.0207 -0.0316
16215W        W31832   2.646  12.271   3.198 -0.1339 -0.4065  0.1401
16216W        W31833  13.291  18.647   1.307 -0.1223 -0.1582  0.0180
16217W        W31834   9.880  18.279   5.221 -0.1729 -0.2547  0.1637
16218W        W31835  14.474   7.796   0.008 -0.0487 -0.3437  0.1457
16219W        W31836   8.978   1.853  12.241  0.0100 -0.1053 -0.0114
16220W        W31837   4.102   8.809  14.982 -0.0247 -0.1542 -0.5921
16221W        W31838  11.646  14.396  12.688 -0.2618  0.1873  0.5045
16222W        W31839  13.722  19.012  13.019  0.0488 -0.0518  0.2075
16223W        W31840  12.120  16.314  14.589 -0.1947  0.0439 -0.2134
16224W        W31841  18.539   0.371  13.171 -0.2582  0.0987  0.0664
16225W        W31842   7.277  15.773  11.353  0.2940  0.0883  0.1521
16226W        W31843  12.915  14.549   0.240  0.1048  0.0301  0.0405
16227W        W31844   6.193   9.955  15.025  0.0227 -0.0279 -0.1064
16228W        W31845  17.975  18.639   2.809  0.2083  0.1246  0.1771
16229W        W31846   8.372  18.783   2.552  0.0349 -0.0347 -0.1704
16230W        W31847   7.454  11.269  14.724  0.0093  0.1474  0.0325
16231W        W31848  13.999  11.943  14.047  0.1856  0.0791  0.2066
16232W        W31849   7.128   2.245   1.844  0.1430 -0.1624  0.0183
16233W        W31850   7.425  12.107  15.165 -0.1429 -0.1257  0.2753
16234W        W31851  12.039  14.796   2.717  0.0370 -0.4821 -0.0620
16235W        W31852   5.759   7.727   1.566  0.2655  0.6148  0.2337
16236W        W31853  17.889  10.975   5.536 -0.0486 -0.0097  0.1366
16237W        W31854   9.567   6.245   1.452 -0.1872 -0.1767 -0.1676
16238W        W31855   6.913   9.077  11.991 -0.1988  0.1114  0.0191
16239W        W31856  13.956  11.009   1.190  0.0605 -0.4507 -0.0943
16240W        W31857   6.373   0.426   4.308  0.0341 -0.0618  0.2018
16241W        W31858   9.884   2.009   4.991  0.0130 -0.0089  0.0080
16242W        W31859  11.241  15.208  12.356  0.0672 -0.2312 -0.1195
16243W        W31860   5.961   2.153   3.731 -0.1809 -0.1537  0.3021
16244W        W31861   0.099  10.612  14.665  0.3590  0.1890 -0.1269
16245W        W31862  14.010  17.600   0.421 -0.1753  0.0162  0.3179
16246W        W31863  16.693  10.354  15.108  0.2272  0.1784 -0.6335
16247W        W31864  16.014   3.087   2.452 -0.0932 -0.1374 -0.0012
16248W        W31865   7.438  13.306   5.018  0.1838 -0.1845 -0.2175
16249W        W31866   0.038  16.763  10.274 -0.0357 -0.0635 -0.1570
16250W        W31867   4.482   9.298  12.833  0.0875  0.2022  0.0618
16251W        W31868  11.968  18.635   0.972 -0.1653 -0.1240 -0.1800
16252W        W31869   1.435  13.914  14.772  0.0046 -0.1926 -0.2023
16253W        W31870   6.236  14.734  11.641 -0.0717 -0.1900 -0.0624
16254W        W31871  13.309   5.864  10.880  0.4694  0.0181  0.3265
16255W        W31872   5.420  14.232  10.943  0.0090  0.0066  0.1804
16256W        W31873  12.887   8.498  12.899  0.0270  0.0366 -0.3804
16257W        W31874  14.978   1.754   4.391  0.2048 -0.2166  0.1662
16258W        W31875   2.277  10.844  11.169 -0.0029 -0.0701 -0.1264
16259W        W31876   0.472   1.297  12.586  0.2757  0.0214  0.0105
16260W        W31877   6.478   4.241   3.155 -0.0089 -0.0363 -0.2358
16261W        W31878  11.863   2.703  10.556 -0.0611 -0.1117 -0.0832
16262W        W31879  14.629  13.094   3.656 -0.0241  0.1866 -0.2623
16263W        W31880  13.001   7.226  13.793  0.1329  0.0007  0.0360
16264W        W31881  13.325  17.077   1.335 -0.0393 -0.1893 -0.2577
16265W        W31882   1.119   0.854  11.747  0.1262 -0.3746  0.0772
16266W        W31883   1.016  10.478   5.046  0.0240 -0.3667 -0.2761
16267W        W31884  10.866  15.586   5.407 -0.0893 -0.2365 -0.3962
16268W        W31885   7.181  15.235   4.694 -0.0000 -0.1920  0.0434
16269W        W31886   1.420   9.932   3.907  0.3644  0.2719 -0.0342
16270W        W31887  15.994  12.804   3.999 -0.0232  0.0142  0.0971
16271W        W31888  13.236   8.883   0.522  0.2890  0.0878 -0.0276
16272W        W31889   0.135  17.828   9.959  0.0001  0.0283  0.0331
16273W        W31890  10.026   9.499   3.722  0.1288 -0.3062 -0.0772
16274W        W31891  16.910   1.680   2.026 -0.3304 -0.1964  0.0831
16275W        W31892  12.728   0.940   4.088 -0.2302 -0.0240 -0.0762
16276W        W31893  12.445   5.507  11.295  0.0776  0.2993  0.1741
16277W        W31894   9.708  13.277   3.505  0.1754  0.1079  0.3575
16278W        W31895  14.813   6.707  10.241 -0.3163 -0.2204  0.2428
16279W        W31896   5.684   9.078   1.156  0.0123 -0.3973  0.1160
16280W        W31897  11.918   1.797   1.693 -0.1579  0.0098  0.3184
16281W        W31898   0.554  15.839  13.177 -0.0115  0.1746 -0.2584
16282W        W31899   5.450  11.759   0.585 -0.0404  0.3562 -0.1894
16283W        W31900   3.581   4.390   0.273 -0.1777 -0.1836 -0.1298
16284W        W31901  17.557  14.199   1.157 -0.1604  0.0760 -0.2045
16285W        W31902   2.562  17.721  12.879  0.0633  0.0510 -0.3789
16286W        W31903   9.546  13.292   0.569  0.1621 -0.1190 -0.0449
16287W        W31904  12.088  12.530   0.798  0.0267  0.0940  0.1641
16288W        W31905   1.534  14.367   2.999 -0.0063  0.2036  0.2148
16289W        W31906   8.242  18.866  14.908  0.2934 -0.1785 -0.1100
16290W        W31907  10.440   9.137  15.113 -0.5103 -0.2407 -0.0866
16291W        W31908   2.955   6.672  11.440 -0.1959  0.0734 -0.2422
16292W        W31909   0.198   9.105  10.787 -0.2204 -0.2565  0.1742
16293W        W31910   0.902   4.938   2.140  0.1426 -0.1526 -0.0335
16294W        W31911   1.066   5.902  14.413  0.0545  0.0006 -0.0055
16295W        W31912  14.113   8.311   3.214 -0.1388  0.2949  0.2271
16296W        W31913   3.422   9.493   2.861  0.2493  0.2447  0.1871
16297W        W31914  15.302   0.084  14.617 -0.0898 -0.2334 -0.1333
16298W        W31915   2.768  17.938   1.189 -0.1852 -0.0625  0.2106
16299W        W31916   7.969   9.339   2.240 -0.2885 -0.2423  0.2308
16300W        W31917   2.481  12.162   1.106  0.1060 -0.0899 -0.0825
16301W        W31918   0.853  10.523   2.858 -0.1788 -0.2319 -0.1563
16302W        W31919  12.028   1.223  11.230  0.2392 -0.2861  0.1655
16303W        W31920  13.224   2.615  14.888 -0.3038  0.0141  0.1758
16304W        W31921  14.534   4.749   1.446 -0.1758  0.0496 -0.1406
16305W        W31922   1.124   8.188   4.455  0.4228 -0.0349 -0.1168
16306W        W31923  13.697   4.420   2.100  0.1077 -0.3305  0.1732
16307W        W31924   0.733  11.238  15.206 -0.2191  0.1870 -0.0093
16308W        W31925   8.762  17.786  11.898  0.1190  0.3582  0.2543
16309W        W31926  18.810  17.616   4.424  0.1117 -0.0822  0.4384
16310W        W31927  18.437  11.934  13.120 -0.1627 -0.1796 -0.1721
16311W        W31928   6.239   3.389  14.109 -0.1396 -0.1941 -0.1531
16312W        W31929  11.121  12.160  11.447 -0.0517 -0.3399  0.3097
16313W        W31930   1.655   5.370   2.636  0.2501  0.0463 -0.3170
16314W        W31931   9.313   1.616   0.577 -0.3127 -0.0074  0.0330
16315W        W31932  14.944  10.511  11.766  0.0502 -0.2460  0.2674
16316W        W31933   8.735   9.005  13.299  0.0233  0.3141  0.1424
16317W        W31934   0.766   7.868  12.431 -0.2118  0.1953  0.1210
16318W        W31935   2.646   8.826   4.225 -0.3061  0.1655  0.1477
16319W        W31936   6.925   1.632  10.860 -0.5919  0.0008 -0.1699
16320W        W31937   9.736   7.241   4.494 -0.1044  0.5200 -0.4264
16321W        W31938   6.468  13.785   0.850  0.0101 -0.2413  0.1969
16322W        W31939  15.673   9.232  14.551  0.0031 -0.4129 -0.1039
16323W        W31940  18.749   7.447   2.955  0.1975 -0.1920  0.0838
16324W        W31941  14.053  16.958  11.965  0.4354  0.1268  0.3549
16325W        W31942   2.854  17.808   3.739  0.0678 -0.2746 -0.2667
16326W        W31943   3.382  13.570  12.941  0.4774  0.1852  0.2937
16327W        W31944  14.151   2.696  14.869 -0.1847  0.3476  0.1308
16328W        W31945   7.005   4.266   5.227 -0.0935 -0.2323 -0.0013
16329W        W31946  17.427  17.629   1.895 -0.1716 -0.0081  0.1127
16330W        W31947  15.524   3.479   1.553  0.0703 -0.0525 -0.0548
16331W        W31948  14.687  13.212  10.682  0.1770 -0.1849 -0.0676
16332W        W31949  11.626   4.928   3.781  0.3008  0.0707  0.1826
16333W        W31950   2.344  11.516  12.328  0.4367  0.3259  0.4093
16334W        W31951   7.095   8.285   0.911  0.3244 -0.0988 -0.3075
16335W        W31952   4.202   3.211  12.016  0.1237  0.2273 -0.3126
16336W        W31953   3.520   7.171   0.769 -0.2402 -0.1577 -0.2080
16337W        W31954  12.630   6.514  13.310 -0.4256  0.1910 -0.0259
16338W        W31955  12.473  13.484  14.441  0.1047 -0.3257  0.0090
16339W        W31956   4.706  17.039   2.585  0.0348  0.0819 -0.1301
16340W        W31957  17.872  12.537  14.666  0.1753  0.2945 -0.0665
16341W        W31958  11.293  10.643  15.017 -0.2300 -0.0873  0.2206
16342W        W31959   0.819  10.151   1.754  0.3111  0.2064  0.1258
16343W        W31960   9.150   4.310  13.518  0.5249 -0.2146  0.0790
16344W        W31961   4.771   6.901   6.328  0.0426 -0.3485 -0.2468
16345W        W31962   4.726  10.755   4.289 -0.2761 -0.0111  0.2552
16346W        W31963   1.146  13.215   3.604 -0.3502 -0.0541 -0.2042
16347W        W31964  17.488   3.663  10.959  0.0427 -0.2594  0.1875
16348W        W31965  10.630  18.256   4.424  0.0047 -0.3653 -0.4821
16349W        W31966  18.718  12.389   3.644 -0.0824  0.0318  0.1339
16350W        W31967  16.698  11.333  10.921  0.1218 -0.0479 -0.0667
16351W        W31968  16.398   5.415  14.002 -0.1620 -0.1429  0.0341
16352W        W31969   1.866   1.745   4.420 -0.2468  0.0723 -0.0204
16353W        W31970  18.043  12.867  10.854 -0.0901  0.4725  0.0079
16354W        W31971   3.973   9.474  12.013  0.3466  0.4559  0.1520
16355W        W31972  10.965   2.530  10.264 -0.1138 -0.2921  0.3030
16356W        W31973  15.933   8.686  11.625  0.0473 -0.0576  0.1554
16357W        W31974  17.018   5.113   2.790  0.0930  0.3191  0.3602
16358W        W31975  12.132   2.969  12.864  0.1873  0.2144 -0.0385
16359W        W31976  17.102  15.939  13.400  0.1112  0.2640  0.0610
16360W        W31977  15.727  12.102  11.849  0.0281  0.1086  0.1035
16361W        W31978   9.720  12.807   0.446 -0.1157  0.0822 -0.2863
16362W        W31979  12.376  13.394  12.198  0.0294 -0.1336  0.2981
16363W        W31980   2.766  12.753   3.293 -0.0843 -0.0365 -0.0905
16364W        W31981   5.150  14.610  10.914 -0.0560 -0.0587 -0.2807
16365W        W31982   1.890  12.162  13.388  0.0185 -0.0391  0.1885
16366W        W31983   1.033  15.545   0.555  0.0430 -0.0201 -0.2330
16367W        W31984   7.461  16.955   3.490 -0.0022  0.2834  0.2711
16368W        W31985   2.297  13.975   3.931 -0.3774 -0.0634 -0.0928
16369W        W31986   1.204  13.214   1.710  0.0085  0.1689  0.2759
16370W        W31987  11.578   4.765  11.994 -0.1464  0.1585 -0.0042
16371W        W31988   9.530  11.225  14.168  0.0107  0.1469 -0.5156
16372W        W31989  10.349  17.587   1.692  0.4685  0.1361  0.0314
16373W        W31990   8.500  13.863  13.546 -0.1952  0.0402  0.0926
16374W        W31991   6.314   1.708  15.004 -0.0447  0.1923  0.0382
16375W        W31992   0.145   3.351  13.354  0.1635  0.0575  0.0679
16376W        W31993  11.498   0.014   3.736 -0.0603  0.2653  0.3324
16377W        W31994   1.446  15.569  12.019  0.2647  0.4056 -0.0988
16378W        W31995  13.499  11.443  11.979  0.0280  0.0390 -0.4003
16379W        W31996  13.708   9.950  13.936  0.0957 -0.1205  0.3886
16380W        W31997  15.166   2.662   9.922  0.3115  0.2650  0.1202
16381W        W31998  11.425  17.325  10.543  0.0052 -0.0359 -0.0450
16382W        W31999  12.369  11.324   1.286  0.0340  0.0231  0.0177
16383W        W32000  15.382   2.021  12.694  0.3463 -0.1427  0.4326
16384W        W32001  16.120  17.169   2.906  0.0316 -0.3189 -0.2828
16385W        W32002   3.284   7.080  12.162  0.0602  0.2597 -0.1904
16386W        W32003  16.361  10.080  12.770  0.0905  0.0264 -0.2191
16387W        W32004  14.019  10.457   5.034  0.1329 -0.2592 -0.2963
16388W        W32005  11.612   7.975   3.336  0.0584  0.1659 -0.0072
16389W        W32006   7.175  12.155  12.445  0.0102  0.0077 -0.1525
16390W        W32007   2.398  19.063  13.709  0.0676 -0.0086 -0.1631
16391W        W32008  15.089  11.569  14.578  0.2488 -0.0123 -0.0402
16392W        W32009   3.146   6.441   5.989 -0.0046 -0.2298  0.0722
16393W        W32010  10.828  13.309   3.512 -0.0311 -0.0584 -0.2176
16394W        W32011  14.222   0.947  11.213 -0.2498  0.4863 -0.2647
16395W        W32012   8.329  15.939  13.144  0.2864  0.0386 -0.2457
16396W        W32013  10.643  11.325   3.330  0.1065  0.1565 -0.4464
16397W        W32014  15.803   7.653   0.822 -0.0886  0.2525 -0.0820
16398W        W32015   6.488   8.966   0.112 -0.0410  0.5297 -0.3650
16399W        W32016   8.462  13.158   1.240  0.0937 -0.1977 -0.1374
16400W        W32017  13.197   1.961   0.971  0.0745 -0.3261  0.2058
16401W        W32018   7.154  19.007   4.154 -0.1511  0.0158 -0.1207
16402W        W32019  18.965   7.961  11.535 -0.0028  0.1262  0.1395
16403W        W32020  10.624  11.851  13.831 -0.3617  0.2854 -0.2207
16404W        W32021  11.908  18.027   3.654 -0.3126 -0.0355 -0.0657
16405W        W32022  14.561  11.951   2.253  0.3186  0.1707 -0.0563
16406W        W32023   1.937  11.073  12.045 -0.2645  0.0797 -0.3662
16407W        W32024  15.184  12.794  12.061  0.0525 -0.0844  0.3681
16408W        W32025   1.939   8.776  15.066 -0.2875 -0.2837  0.0111
16409W        W32026  18.413   3.749  14.717  0.3956 -0.0616 -0.3496
16410W        W32027  15.139  12.270  12.429 -0.3806 -0.0366 -0.3297
16411W        W32028  14.439  14.489   0.064 -0.1167  0.0078 -0.1968
16412W        W32029  17.623   9.059   0.021  0.2417  0.1380 -0.0987
16413W        W32030  16.246   6.174  13.020  0.1695 -0.1714 -0.1366
16414W        W32031  16.314  15.699   0.221  0.2824 -0.1394 -0.2918
16415W        W32032   0.710   8.349   2.184 -0.0173 -0.1223  0.3134
16416W        W32033  12.339   9.728  14.149 -0.1919 -0.0832 -0.1438
16417W        W32034  10.927   1.283   2.844  0.1231  0.3056 -0.1989
16418W        W32035  14.053   9.235   2.988  0.1172  0.0316  0.0114
16419W        W32036   4.235   0.868  11.244 -0.2215 -0.1080  0.1157
16420W        W32037   1.591   7.753  14.116  0.0366 -0.1482  0.0616
16421W        W32038  17.257   8.166  13.073  0.0257  0.0583 -0.3364
16422W        W32039   3.711  18.163   0.630 -0.0049 -0.1442  0.0141
16423W        W32040   5.735   5.208  13.594  0.1594 -0.1805  0.1251
16424W        W32041   6.161   6.731   2.526 -0.3707 -0.2525  0.1027
16425W        W32042  16.064   7.412  10.491  0.3975  0.1427 -0.2199
16426W        W32043   5.714  18.417  14.351  0.2313 -0.0581 -0.0864
16427W        W32044   9.343  18.066   3.727 -0.2218  0.2311 -0.0499
16428W        W32045  12.377  10.611  13.865 -0.1675 -0.2758  0.1785
16429W        W32046  18.275  16.675  15.012 -0.1465 -0.0310 -0.2700
16430W        W32047  14.607   7.132  13.442 -0.1541 -0.1688 -0.0475
16431W        W32048  14.042  18.891   3.623 -0.0000  0.2967  0.0996
16432W        W32049   3.140  17.738   5.190 -0.0786 -0.0284 -0.4640
16433W        W32050   2.846   7.703  11.477  0.0153 -0.0831 -0.0241
16434W        W32051   7.121   2.743   2.700 -0.1580 -0.2022 -0.0804
16435W        W32052  12.935  18.210   1.404  0.1343 -0.0266 -0.5163
16436W        W32053  14.129  17.704  12.938 -0.1868  0.2141  0.2060
16437W        W32054  19.023   8.971  12.760  0.0061 -0.0087 -0.0224
16438W        W32055  13.099  15.219  14.884 -0.0922  0.1197 -0.1292
16439W        W32056   0.140   1.354  11.345  0.0411 -0.0224  0.0930
16440W        W32057  11.284  10.704   0.667  0.0672  0.2158 -0.0306
16441W        W32058  12.452   3.262  11.343 -0.4463 -0.2794  0.3572
16442W        W32059   3.459  10.958  11.077  0.3392  0.0744 -0.0944
16443W        W32060   9.874   1.298  15.146 -0.2712  0.0668  0.2315
16444W        W32061  12.002  10.096  12.327  0.1293 -0.0053 -0.0963
16445W        W32062   7.247   5.725   0.661  0.0862 -0.0491  0.0322
16446W        W32063  16.738  18.751   1.643  0.4084  0.0126  0.0676
16447W        W32064  15.569   1.070  15.210 -0.0382 -0.1601  0.0351
16448W        W32065  13.737  16.811   0.664  0.0442  0.1983 -0.0181
16449W        W32066   6.493   1.673  11.117  0.0335  0.2172  0.0259
16450W        W32067  12.399   1.153   4.899 -0.2371 -0.3908  0.0340
16451W        W32068   0.031  14.531   1.535 -0.3213 -0.3960  0.4693
16452W        W32069   7.309  15.735  12.776  0.1054  0.0036  0.0003
16453W        W32070  14.614  16.686   1.923  0.2976  0.0684  0.1599
16454W        W32071  10.515  10.474  13.760  0.1205 -0.2144  0.0316
16455W        W32072  18.240   0.406   0.934 -0.0394  0.1134 -0.1036
16456W        W32073  10.428   8.049   2.660 -0.1060  0.0590  0.1727
16457W        W32074   6.455   3.109   0.179  0.2245  0.0161 -0.6284
16458W        W32075   1.926  12.293  12.871 -0.0053 -0.4820 -0.0548
16459W        W32076  11.674  15.029   5.396 -0.1893 -0.2550  0.0852
16460W        W32077  13.299  17.223  13.668 -0.1488  0.0248  0.2327
16461W        W32078   9.482  12.252   4.761  0.1226 -0.1459  0.3425
16462W        W32079   4.803   7.982   2.322  0.2378 -0.3037  0.0695
16463W        W32080  16.967  13.680   4.207  0.3658  0.0799  0.0540
16464W        W32081  12.568   7.345   2.103 -0.1185  0.0765  0.3152
16465W        W32082   4.097  11.579   4.413 -0.0793  0.0822 -0.0026
16466W        W32083   9.457  17.130   1.596  0.0440 -0.0504  0.3062
16467W        W32084   5.611  16.175   1.746 -0.2695  0.3367  0.2895
16468W        W32085   6.540  15.293  14.975  0.0100 -0.0030 -0.0436
16469W        W32086   3.727  16.902   3.611  0.1049 -0.0821  0.5222
16470W        W32087   4.679  11.032   2.130 -0.2335  0.0473  0.2537
16471W        W32088   7.714   1.934   4.513  0.2088 -0.1606  0.1061
16472W        W32089   5.693   4.790  14.281 -0.2709  0.4985  0.1973
16473W        W32090  11.940   7.360   1.309  0.0002 -0.2766 -0.0410
16474W        W32091   1.279  17.641  12.914  0.3656  0.0600 -0.1112
16475W        W32092   7.195   3.273  13.991  0.2369 -0.0297 -0.1787
16476W        W32093  14.155  13.168  12.640  0.0276 -0.2028  0.2654
16477W        W32094   1.030   5.892  12.724  0.2317 -0.0274  0.1559
16478W        W32095   9.322   7.559  11.723 -0.0905 -0.0852 -0.0034
16479W        W32096  14.266   0.177   2.284 -0.1476  0.1753 -0.0338
16480W        W32097   2.604  18.296  10.556  0.2874  0.5755  0.1718
16481W        W32098   3.406   4.222  12.686 -0.2221 -0.2747 -0.1548
16482W        W32099   4.267   9.307  10.449 -0.1540 -0.1525 -0.2032
16483W        W32100   7.942   7.637   3.109 -0.2031 -0.1921  0.6077
16484W        W32101  17.470  10.768  10.511 -0.0715  0.0286 -0.0279
16485W        W32102  16.119  14.333   2.302 -0.1757  0.1673 -0.2769
16486W        W32103   3.828  13.147   2.678 -0.2519 -0.1280 -0.3492
16487W        W32104   3.247  17.488  13.360  0.3322  0.3745  0.2609
16488W        W32105  15.724   8.594   2.606  0.2412  0.0643  0.4713
16489W        W32106  18.095   4.889  12.626 -0.0845 -0.1155 -0.3870
16490W        W32107  12.651  15.121   2.184  0.1295 -0.1036 -0.2524
16491W        W32108   6.475   3.601  11.754  0.4428  0.1757  0.0996
16492W        W32109  10.745  13.796   0.246 -0.1121 -0.1844 -0.2691
16493W        W32110   6.511   9.718   3.231 -0.1305  0.1539  0.1205
16494W        W32111  10.061   4.890   1.645  0.1267  0.0316 -0.2205
16495W        W32112  16.963   0.073   2.710  0.3960  0.1552 -0.1534
16496W        W32113   0.901  17.833   2.470 -0.1443  0.1888 -0.0773
16497W        W32114  18.993   4.414   3.152 -0.1118  0.1065 -0.0020
16498W        W32115   4.724  13.978  15.022  0.0015 -0.3762 -0.0143
16499W        W32116   1.443  17.738   5.194 -0.2871 -0.1261  0.1367
16500W        W32117   4.034  12.692   3.546 -0.3179  0.4352 -0.2714
16501W        W32118  11.068  15.798   2.464 -0.1713  0.1173  0.1139
16502W        W32119   8.543  18.831   0.480  0.1295 -0.0456  0.3086
16503W        W32120  11.020   1.953  14.598  0.2346 -0.1352  0.1713
16504W        W32121   9.886   2.937  10.911 -0.1198 -0.5473 -0.2092
16505W        W32122   6.433  17.675  11.126  0.0324 -0.2664  0.0373
16506W        W32123   3.172  10.614   0.447 -0.1883  0.3183  0.0569
16507W        W32124  11.127  12.930   4.639  0.0733 -0.1651  0.0479
16508W        W32125   5.199  16.222  11.001 -0.2030 -0.0119  0.0611
16509W        W32126  14.964   6.442   2.157  0.2059 -0.1155  0.0006
16510W        W32127  10.349   6.281  12.120  0.3006 -0.2032  0.2946
16511W        W32128  17.096  12.191  13.098  0.1127 -0.0799 -0.1644
16512W        W32129  18.586   5.241   1.569 -0.2183  0.1994  0.0706
16513W        W32130  10.882  10.021  14.709 -0.1932 -0.0270  0.1870
16514W        W32131   3.681   4.410   3.375  0.0382 -0.4269 -0.2300
16515W        W32132   2.454  11.961  13.714  0.3462  0.2203 -0.2917
16516W        W32133  10.434  14.805  14.115 -0.0748 -0.1231 -0.2936
16517W        W32134  11.541   8.643   2.116 -0.2424  0.3523  0.0155
16518W        W32135   8.708   0.674   1.950  0.1245 -0.0528 -0.0360
16519W        W32136  15.997  16.224   3.544 -0.1852 -0.1939  0.1047
16520W        W32137  13.283   5.481   2.457 -0.0866  0.2380 -0.0437
16521W        W32138  18.053   5.627   2.859 -0.0917  0.0270  0.0935
16522W        W32139  18.006  12.934  12.293 -0.1197 -0.1417 -0.0891
16523W        W32140  13.475  11.170  11.566  0.0940  0.0089 -0.1373
16524W        W32141  16.376   4.075   2.439  0.5179  0.0573  0.0065
16525W        W32142   3.143   5.722   1.154  0.2240  0.0485  0.1905
16526W        W32143  18.886   0.855  13.731 -0.2191  0.2222 -0.1196
16527W        W32144   5.411  12.517   2.744  0.0461  0.1132  0.0956
16528W        W32145  16.055   3.690  11.143  0.1826  0.0388 -0.0494
16529W        W32146   8.433  14.898   1.122 -0.0772 -0.4723  0.0709
16530W        W32147  15.298   0.820  12.191  0.1674  0.0153  0.0762
16531W        W32148  16.673   6.428  15.033 -0.2467  0.1059  0.4558
16532W        W32149   5.154   5.697  14.415 -0.3046 -0.3527  0.0368
16533W        W32150   3.944  14.939  14.375  0.1665 -0.0938  0.0662
16534W        W32151  15.771  18.152  11.263 -0.3383 -0.1230 -0.2780
16535W        W32152  14.160  13.633  12.399  0.5432  0.1327  0.2567
16536W        W32153   5.126  12.266  10.936  0.0193 -0.5264  0.2938
16537W        W32154   0.382  13.141  14.198  0.1003  0.1266  0.3670
16538W        W32155   6.444   8.979   3.842  0.1795  0.2460  0.2404
16539W        W32156   9.212   1.941   5.459  0.0384  0.1911 -0.3942
16540W        W32157   0.288   9.272  12.952 -0.0982  0.1192  0.1447
16541W        W32158   2.691  16.245   4.666 -0.2153  0.2345 -0.1750
16542W        W32159   9.296   4.866  12.654  0.0602 -0.1699  0.1262
16543W        W32160  12.743  16.368   4.131  0.1180 -0.0859 -0.1360
16544W        W32161   4.503   2.286  11.842  0.2131 -0.2236  0.3443
16545W        W32162  15.213   9.065  10.254  0.3601 -0.1165  0.1858
16546W        W32163  10.278   3.488  12.531 -0.0302  0.1829 -0.0801
16547W        W32164  10.445   1.472   0.282 -0.1478  0.0623 -0.0033
16548W        W32165  15.430   0.998  12.679 -0.2372 -0.0149 -0.1470
16549W        W32166   0.414   3.097  12.070 -0.0735 -0.3598 -0.1159
16550W        W32167  10.541  12.652   4.073 -0.0173 -0.0363  0.1264
16551W        W32168   9.196  10.674   1.968 -0.0162  0.2102  0.0884
16552W        W32169   1.437  11.874  12.589  0.2613  0.1791 -0.1269
16553W        W32170  10.587  12.590   0.978 -0.0469  0.0660  0.3471
16554W        W32171  16.131  12.405  14.549 -0.0326  0.4233 -0.1040
16555W        W32172   4.028  18.124   4.869 -0.0137 -0.0260  0.1851
16556W        W32173   8.454   8.175   1.751  0.1827 -0.1040  0.0563
16557W        W32174   6.477  17.708   4.547 -0.1517 -0.4003  0.0487
16558W        W32175  19.036   5.895  13.708  0.4478  0.0514  0.0607
16559W        W32176   0.921  14.297  10.762  0.1561 -0.0402  0.0853
16560W        W32177  12.657   8.363   4.985  0.0376 -0.1962 -0.2255
16561W        W32178   7.033   4.353   4.648 -0.0708 -0.1442  0.1716
16562W        W32179   1.939  16.751   2.464 -0.2204  0.2730 -0.1484
16563W        W32180  18.819   3.083   3.954  0.1345  0.2955  0.4659
16564W        W32181  13.411  17.917   0.824 -0.2076 -0.2480 -0.3086
16565W        W32182  15.000   8.045  10.779 -0.2196  0.0451 -0.2771
16566W        W32183  13.291   1.154   3.947  0.0949 -0.0718 -0.0716
16567W        W32184   2.275   3.252   1.503  0.1187 -0.0728  0.2199
16568W        W32185   3.449   1.168   1.682  0.0010  0.2756 -0.0769
16569W        W32186  15.423   1.388   3.671  0.1664  0.0919  0.0755
16570W        W32187  18.208  13.733   2.884  0.0012  0.0232 -0.1625
16571W        W32188   0.966   7.843   0.864  0.0416 -0.0521  0.4002
16572W        W32189  18.944   1.134   4.772 -0.1397  0.2988  0.1146
16573W        W32190   0.094  17.919   2.343 -0.1030  0.0255 -0.0975
16574W        W32191  12.203  16.758   2.993  0.3009  0.1208  0.0406
16575W        W32192  10.138   1.035   3.681 -0.0354  0.1209 -0.1006
16576W        W32193   0.610   2.913   2.338 -0.0112 -0.0924 -0.0330
16577W        W32194  10.457  12.974   3.270  0.2876 -0.1437 -0.2150
16578W        W32195  18.791  12.014   9.960  0.1047 -0.0299  0.0462
16579W        W32196   9.503   1.114  13.199 -0.2459 -0.1364  0.0611
16580W        W32197   1.372   1.940   1.386  0.1101  0.2084  0.1840
16581W        W32198  16.908   0.568  12.894 -0.1768  0.0557 -0.0094
16582W        W32199  12.110   5.876   0.361 -0.1306 -0.2948 -0.4511
16583W        W32200  18.309   4.052  12.268 -0.1738 -0.2419  0.1517
16584W        W32201   0.347  14.373  13.477 -0.0223  0.1191 -0.2289
16585W        W32202  17.200   7.548   4.966 -0.0408  0.3697 -0.2367
16586W        W32203  11.046   9.620  10.229  0.1330 -0.1175  0.1635
16587W        W32204   1.005  15.453  10.383  0.0365 -0.0799  0.0413
16588W        W32205   1.808   8.447   5.011 -0.0721 -0.0659 -0.0647
16589W        W32206   3.133  12.189   4.053  0.2195  0.0388  0.1332
16590W        W32207  15.552   3.130   1.201 -0.0740 -0.0532  0.0080
16591W        W32208   1.500  15.290   2.204 -0.0622 -0.1068 -0.0508
16592W        W32209  17.723  12.467   3.522  0.0299 -0.3013 -0.2757
16593W        W32210  16.054   6.374  14.717 -0.1482 -0.1284  0.1937
16594W        W32211   6.357  10.206   1.980 -0.0861  0.2505 -0.1639
16595W        W32212  10.406   0.524  12.915 -0.0632 -0.4282  0.1720
16596W        W32213  15.650   2.707   1.386  0.1452 -0.0219  0.1746
16597W        W32214  13.881   6.875  14.022 -0.2824  0.1971  0.1475
16598W        W32215   1.070   4.573   9.943  0.2568 -0.2578  0.0777
16599W        W32216   8.776   9.647  12.601  0.0247  0.2372  0.1788
16600W        W32217  16.139  15.939   4.417  0.2128 -0.0756 -0.2815
16601W        W32218   3.466  13.396  13.534  0.1342  0.1145  0.2055
16602W        W32219   9.642  14.074   1.714 -0.2291  0.0259  0.1545
16603W        W32220   4.456   1.291  14.472  0.2732 -0.0889 -0.2749
16604W        W32221  10.309  13.415   2.260  0.0099  0.2812  0.1451
16605W        W32222   7.906   7.039  11.255 -0.1368 -0.1040 -0.0318
16606W        W32223   2.987  17.480  15.214 -0.0101 -0.0699 -0.0867
16607W        W32224  14.289  18.289   2.355  0.0467 -0.1943 -0.1391
16608W        W32225   8.970   7.872  11.669 -0.1666 -0.2366 -0.1318
16609W        W32226   1.669  16.933  12.536 -0.0634  0.4253  0.3338
16610W        W32227  14.986  10.064   2.534  0.1624  0.0141  0.2691
16611W        W32228   3.193   2.065  12.385 -0.0368 -0.2190  0.0893
16612W        W32229   1.961   2.894   1.667  0.1783  0.0074 -0.0260
16613W        W32230   0.375  10.163   2.192 -0.1027 -0.2479  0.2020
16614W        W32231  17.277  14.570  10.010 -0.0385  0.0277  0.2453
16615W        W32232  12.273  13.573   1.780  0.2980 -0.0843  0.0138
16616W        W32233  18.124  18.866  14.757  0.0886 -0.2515  0.0673
16617W        W32234  10.198   1.003   2.895  0.1087  0.0167  0.1872
16618W        W32235  18.154  10.451  12.379 -0.1731 -0.0515  0.1571
16619W        W32236   1.709   8.536  14.661 -0.1107 -0.2533 -0.0135
16620W        W32237  10.738   2.760  11.114  0.0708  0.0241  0.1610
16621W        W32238   9.003  13.010  14.426 -0.0141  0.1881 -0.0445
16622W        W32239  12.554   6.963  13.538 -0.0574  0.0121 -0.2549
16623W        W32240  10.250   5.882  10.879  0.0275  0.3370 -0.0116
16624W        W32241   1.467   7.492   4.490  0.0566 -0.1816 -0.2709
16625W        W32242  14.320   8.791  14.707  0.0106  0.2627  0.0245
16626W        W32243   7.059   3.781  14.172  0.0970 -0.1640  0.0963
16627W        W32244  12.173  13.600   4.832 -0.0364 -0.0525  0.0589
16628W        W32245   2.033   2.794   0.347 -0.1839  0.1195 -0.1012
16629W        W32246  16.548  15.892   3.417 -0.1388  0.2783  0.3665
16630W        W32247  14.047  15.663  11.294  0.0582 -0.0073 -0.0406
16631W        W32248   6.565   5.221  14.558 -0.1863  0.0615 -0.1163
16632W        W32249   7.201   5.748   2.802  0.1753  0.0955  0.1417
16633W        W32250   9.582  16.766  14.155 -0.0464 -0.0666  0.1070
16634W        W32251   1.600  14.602  13.833 -0.2198 -0.0232 -0.1000
16635W        W32252  18.136  12.147   0.675 -0.0889  0.1775 -0.0508
16636W        W32253  18.855  13.866   0.177  0.0246 -0.0509 -0.0796
16637W        W32254  13.639  13.038   0.666  0.1912  0.0442  0.1310
16638W        W32255   3.325   8.169  13.945 -0.4527  0.1086  0.0743
16639W        W32256   1.040  17.437   0.253  0.1148  0.1232 -0.0107
16640W        W32257   5.909  15.534   1.247 -0.0002  0.1733 -0.0101
16641W        W32258   8.309   9.323  10.542  0.1133 -0.0549  0.4007
16642W        W32259  18.247   7.827   1.662  0.0395 -0.0686  0.3329
16643W        W32260   0.260  13.787  11.397 -0.0895  0.2468 -0.1298
16644W        W32261   6.259   0.223   2.522 -0.1364 -0.1082 -0.2849
16645W        W32262   8.194   0.341  11.845 -0.1214 -0.1293  0.1704
16646W        W32263   1.024   2.947  13.723 -0.2499  0.0925 -0.2784
16647W        W32264  14.070   6.006   3.459  0.0695 -0.3575  0.2094
16648W        W32265  16.494   9.408   3.487 -0.0481 -0.1016  0.1561
16649W        W32266   2.024   6.694   3.209  0.1155  0.1843  0.2831
16650W        W32267  12.929   4.750  11.681  0.1139 -0.3971 -0.0609
16651W        W32268  16.756   5.064  14.827 -0.0570 -0.2559 -0.1667
16652W        W32269  17.244  15.204   3.190  0.1280 -0.0910  0.3472
16653W        W32270   5.005   4.620   1.853 -0.0874 -0.2735  0.1173
16654W        W32271  17.574   0.980   4.662 -0.0646 -0.0694 -0.6339
16655W        W32272   1.149   5.274  11.122 -0.3066 -0.0114 -0.1254
16656W        W32273  11.749  15.373   1.979  0.0048  0.0907  0.1074
16657W        W32274  10.242   7.700   4.121  0.1901 -0.0626  0.1785
16658W        W32275  10.719   6.344   0.957 -0.0324  0.0751  0.1180
16659W        W32276   1.663  17.093  12.026 -0.3209 -0.1549 -0.0487
16660W        W32277  10.195   7.410  11.681 -0.0602 -0.2187 -0.0137
16661W        W32278  10.297   7.249  13.004 -0.1188  0.0868 -0.1406
16662W        W32279   8.998  13.158  11.873  0.1282 -0.4507 -0.0835
16663W        W32280   2.647  10.578  10.969 -0.0372 -0.1187  0.0470
16664W        W32281   2.021  14.701  13.631  0.2355  0.3083  0.0297
16665W        W32282  10.943  18.785   1.244  0.2202  0.1613  0.0224
16666W        W32283  10.561   2.841   3.093 -0.2308  0.0480 -0.0827
16667W        W32284  12.291  14.904  14.503 -0.1824 -0.1020  0.0244
16668W        W32285   7.348  15.372   3.585 -0.1085  0.1175  0.1159
16669W        W32286  16.140   9.257   3.796 -0.3438 -0.0179 -0.0045
16670W        W32287   3.452  14.802   0.012 -0.3162 -0.0687 -0.2134
16671W        W32288   6.782  16.543  15.197 -0.4864 -0.0646 -0.0611
16672W        W32289   1.719  13.786   0.460  0.0221  0.0358 -0.1390
16673W        W32290   0.948   8.096  13.348 -0.1436 -0.0399  0.0341
16674W        W32291  10.489  10.816   3.385  0.1173 -0.0717  0.1282
16675W        W32292   6.286   3.308   1.637  0.0343 -0.0780 -0.0446
16676W        W32293   3.622  11.458  15.182  0.1234 -0.2763  0.0125
16677W        W32294   4.411  12.214  12.882 -0.0822  0.0926 -0.4194
16678W        W32295   2.667  16.539  13.315 -0.0179  0.0956 -0.1898
16679W        W32296  18.198  12.205  14.015 -0.0925  0.6171  0.0131
16680W        W32297  16.808   0.416  10.306 -0.1695 -0.3997 -0.0646
16681W        W32298  14.074  11.886   0.965  0.0397 -0.0275 -0.2776
16682W        W32299   7.121   7.938   4.112  0.2481 -0.3051 -0.0122
16683W        W32300  17.305  12.263  13.651 -0.2952  0.1571  0.4670
16684W        W32301  11.232   2.939  11.013  0.0755  0.2413  0.1948
16685W        W32302  10.197  17.249   2.085 -0.2400 -0.2002  0.0730
16686W        W32303  12.384  15.157  10.898 -0.0518  0.2886  0.1544
16687W        W32304  15.885   4.057  10.804  0.0972 -0.2264  0.1125
16688W        W32305  14.659  10.168   1.700  0.1343 -0.1820  0.1944
16689W        W32306   2.319  14.607   0.219 -0.0917  0.0042 -0.2486
16690W        W32307   1.869   6.223   1.490 -0.0169  0.0516 -0.3042
16691W        W32308   1.347   4.799   0.261  0.1119  0.0142  0.0519
16692W        W32309   9.647  17.763  12.074  0.2697 -0.2098  0.1009
16693W        W32310   8.328   3.144  14.038 -0.1246 -0.1550  0.1160
16694W        W32311  14.723   3.243  10.882  0.2022 -0.0034  0.0985
16695W        W32312   4.322  13.652  10.219 -0.2804  0.0474 -0.1670
16696W        W32313  14.966  10.740  11.223 -0.1205  0.4550 -0.1425
16697W        W32314  11.400  12.507  13.646 -0.0519  0.0636  0.2766
16698W        W32315  12.620   6.243  14.208  0.1938  0.2121  0.0559
16699W        W32316   8.326  11.791   0.470  0.0991 -0.0908 -0.2489
16700W        W32317   7.017   5.535  14.366 -0.1399 -0.0527 -0.0149
16701W        W32318  10.680   8.501   1.503 -0.2098 -0.0890 -0.0549
16702W        W32319  14.533   1.720   3.584  0.3047 -0.1182  0.3768
16703W        W32320   1.178   1.596  12.534 -0.4836 -0.1753 -0.2555
16704W        W32321  11.564  17.844  11.734  0.0063  0.2998 -0.3058
16705W        W32322   2.366   7.968   4.529  0.2446  0.4186 -0.0573
16706W        W32323  15.176   2.164   0.909 -0.3681  0.0924  0.1887
16707W        W32324  12.619   9.454  14.523 -0.5347  0.0781 -0.4606
16708W        W32325  18.430   1.110   0.376 -0.1374  0.1375 -0.0001
16709W        W32326  10.779  17.851  11.305  0.1006 -0.3514 -0.2605
16710W        W32327   2.625  15.060  13.038  0.4355  0.3200 -0.1650
16711W        W32328  10.500   6.360   5.353  0.0940  0.0943 -0.3685
16712W        W32329  11.311  15.881  12.957  0.0422 -0.0030 -0.1097
16713W        W32330   0.442  10.527  11.672  0.1352  0.1476  0.0016
16714W        W32331  18.781  12.693   2.077 -0.3026  0.2158 -0.1298
16715W        W32332  15.079  16.422  13.929  0.1847 -0.0821 -0.2559
16716W        W32333  17.084  15.397   2.105 -0.2245  0.0473 -0.2374
16717W        W32334  18.651  13.335   4.101 -0.1552 -0.1022 -0.0426
16718W        W32335   5.676  18.999  10.985 -0.1560 -0.0407  0.4466
16719W        W32336   4.635   0.142   4.170  0.2046  0.0219  0.2450
16720W        W32337   3.718   1.376  11.133  0.1092 -0.2069  0.0175
16721W        W32338  18.182   5.744  10.582  0.1712 -0.1252  0.4207
16722W        W32339   9.934  16.415  13.347 -0.1984  0.2798 -0.0590
16723W        W32340   1.712  10.751   3.483  0.4372 -0.2222  0.0973
16724W        W32341   6.581  10.899  11.247 -0.0628 -0.2531  0.1787
16725W        W32342   7.624   5.984   1.853  0.0290 -0.1953  0.5495
16726W        W32343   9.443   3.867  10.845  0.0004  0.2979 -0.1081
16727W        W32344   4.803  18.334   4.125 -0.0391 -0.0512  0.0702
16728W        W32345   0.288   5.190  11.796  0.2275  0.1510  0.2664
16729W        W32346  18.069   8.948  12.266  0.0609 -0.4083  0.0367
16730W        W32347   6.894  18.156   0.532  0.1751  0.0645 -0.0180
16731W        W32348   4.360   5.497  10.132 -0.0539  0.2901  0.0774
16732W        W32349  17.667   4.991  13.891 -0.0602 -0.0660  0.2727
16733W        W32350   1.300   5.818  13.675  0.2424  0.1395 -0.0535
16734W        W32351  11.871   8.319  11.218  0.0220 -0.0845 -0.1518
16735W        W32352   7.182  18.064  12.130  0.1902 -0.0326 -0.2439
16736W        W32353  11.925   7.169  15.048  0.2106  0.0462 -0.2676
16737W        W32354  11.653   9.342  11.134  0.2387  0.0400 -0.1711
16738W        W32355   9.132  11.162  10.804  0.0613 -0.2351  0.0582
16739W        W32356  18.442  10.681   3.907  0.0114  0.1076  0.2579
16740W        W32357   1.543  16.138  12.027 -0.0331 -0.0901 -0.1003
16741W        W32358  15.120   3.160   0.257  0.3450 -0.0986 -0.2762
16742W        W32359   2.643  16.245   2.010  0.3151  0.2852 -0.0780
16743W        W32360   2.254   4.314   3.729 -0.0323 -0.6058 -0.0714
16744W        W32361   0.585  17.790   2.026  0.1474 -0.0808  0.4474
16745W        W32362   9.900  15.183   5.165 -0.0919 -0.1825 -0.0518
16746W        W32363   2.260   6.751   1.090 -0.1287  0.3729  0.0009
16747W        W32364   1.090   0.960   2.848  0.3363 -0.2634  0.0159
16748W        W32365   5.062  11.057  14.182  0.1943 -0.1595 -0.0761
16749W        W32366  10.589   9.882   1.156 -0.1494 -0.2076 -0.2054
16750W        W32367   5.175  17.494  14.768  0.1479 -0.0189  0.1107
16751W        W32368  14.794   7.368  15.127  0.0912  0.0658  0.0082
16752W        W32369  13.383  15.376   5.673  0.0324 -0.3941 -0.0573
16753W        W32370  15.034  14.273   4.733  0.3361  0.1888 -0.3124
16754W        W32371   6.087   9.756   3.878  0.0220 -0.1105 -0.5092
16755W        W32372   5.051   0.248   1.454 -0.0607 -0.0938  0.0379
16756W        W32373   3.738  13.549   0.518  0.0887  0.2259 -0.1479
16757W        W32374  18.158  14.208   1.150 -0.0361 -0.1978  0.0079
16758W        W32375  10.277  17.000   1.300 -0.0541 -0.0558  0.0117
16759W        W32376   3.517   6.888   3.747  0.1958  0.2566  0.1672
16760W        W32377  18.797  18.192  14.406  0.0957 -0.1514  0.2008
16761W        W32378  17.862  17.942   9.338 -0.0921  0.0140 -0.1310
16762W        W32379  17.399   0.323  15.286 -0.1826 -0.0647 -0.0159
16763W        W32380  12.081  10.060   1.562  0.0434  0.2209 -0.0290
16764W        W32381  14.668   2.448   0.844  0.1374  0.0193 -0.0765
16765W        W32382  12.315   3.849   3.988  0.1013 -0.2205 -0.1766
16766W        W32383   3.987  14.038   0.474  0.1478  0.1718  0.0505
16767W        W32384   0.623  14.214  13.900 -0.5152  0.0443 -0.2586
16768W        W32385   1.847   8.426   3.993  0.0289 -0.0427 -0.2141
16769W        W32386   8.702  16.163  15.200 -0.6403 -0.0416  0.1928
16770W        W32387   5.496  18.734  10.626  0.2365  0.0555 -0.0050
16771W        W32388  18.190   2.163  13.158 -0.1029  0.2611  0.4119
16772W        W32389   0.033   6.534   5.238 -0.0495  0.0594 -0.1394
16773W        W32390  17.013  18.751   3.016  0.1954 -0.0573 -0.2741
16774W        W32391   3.576  16.283   4.591  0.0612  0.2776  0.0844
16775W        W32392   8.849  15.206  11.559  0.0316  0.0702 -0.0001
16776W        W32393  18.512  13.444   0.071  0.1993  0.0048  0.0095
16777W        W32394  17.201   0.180   2.313 -0.1021 -0.2113 -0.0533
16778W        W32395  18.029  10.568   0.910 -0.0846 -0.1851 -0.2149
16779W        W32396   3.606  14.109   4.424 -0.0147 -0.0872  0.1696
16780W        W32397   6.611   5.941  14.001  0.0826  0.2119 -0.5003
16781W        W32398   8.591  17.028   0.337 -0.2267 -0.3330  0.1167
16782W        W32399  16.594  16.421   2.777 -0.0138 -0.1087  0.2665
16783W        W32400   7.386  11.321   2.387 -0.0986 -0.2290 -0.2241
16784W        W32401  18.241  15.339   3.245 -0.0636 -0.3322 -0.3372
16785W        W32402   4.108  11.391   2.763 -0.0225  0.1203  0.0002
16786W        W32403   0.696   4.377  14.672 -0.1827  0.1573 -0.5371
16787W        W32404   9.240  17.713  10.749 -0.1971 -0.2417  0.1533
16788W        W32405   9.055  14.969   0.233 -0.2187  0.0612 -0.0489
16789W        W32406  18.719  13.292  12.928 -0.0411  0.2721 -0.4770
16790W        W32407  15.996  13.974   3.242  0.0475 -0.0557 -0.1255
16791W        W32408  15.636  15.346  13.040 -0.0705 -0.0304 -0.1239
16792W        W32409   8.935  14.770   0.761 -0.1639 -0.0135  0.1413
16793W        W32410   0.024  13.377   0.925 -0.1030  0.0810 -0.5036
16794W        W32411   0.150  13.248   4.309 -0.0361 -0.2187 -0.3688
16795W        W32412  16.083   9.010   4.631  0.0146  0.0044 -0.3059
16796W        W32413  17.214  16.451   2.597 -0.1837 -0.0493 -0.1713
16797W        W32414   7.709   2.621   4.009  0.2152  0.0128 -0.1588
16798W        W32415   9.830   1.961  11.260 -0.0799  0.0880 -0.2893
16799W        W32416  16.499   7.100  10.432  0.0340  0.0296  0.0392
16800W        W32417   9.732  13.847   3.895  0.2830  0.0803 -0.2674
16801W        W32418  18.060  11.435   5.559 -0.1480 -0.4046  0.1631
16802W        W32419  16.496   8.100  10.953 -0.0174 -0.0997 -0.1684
16803W        W32420  13.416  15.844  13.489 -0.1405 -0.0832  0.3864
16804W        W32421  11.769   2.687  11.717 -0.1308  0.0639  0.0125
16805W        W32422  14.609  15.060   5.552  0.0119  0.0314 -0.2473
16806W        W32423  14.904   3.099   2.365  0.2278 -0.4026 -0.4292
16807W        W32424  10.806  15.154  10.715 -0.0847  0.3339 -0.1693
16808W        W32425  15.001   2.673   4.103 -0.0377 -0.1697  0.1811
16809W        W32426  12.373   8.377   3.358  0.1146  0.3248  0.0988
16810W        W32427  17.828  18.015   0.370  0.1423 -0.4411 -0.0020
16811W        W32428  14.611   1.805   4.053 -0.0800  0.2465  0.0520
16812W        W32429  18.007   2.714   5.228  0.0268 -0.0568  0.0586
16813W        W32430   2.906   6.913  11.934 -0.0020  0.1787 -0.0656
16814W        W32431  16.210  16.149   3.075  0.1349 -0.0508 -0.0389
16815W        W32432  12.726   1.708  13.511 -0.1932  0.3785 -0.0437
16816W        W32433  14.155   5.517  12.841  0.0780 -0.2957  0.0114
16817W        W32434  13.145  11.878  13.646  0.1834  0.0202 -0.0463
16818W        W32435   9.375   5.082   5.017  0.1183  0.2445 -0.2468
16819W        W32436  15.282   8.572  13.961  0.0746 -0.3513  0.0854
16820W        W32437   8.046  12.563   3.830  0.1253 -0.0499 -0.2532
16821W        W32438  15.395   8.950  10.752  0.1907 -0.0403  0.2571
16822W        W32439  15.499  16.815  12.928 -0.0835  0.1505 -0.0090
16823W        W32440   9.449  17.048   2.511 -0.1048  0.0645 -0.0491
16824W        W32441   9.788   3.699  13.848 -0.0597  0.0168 -0.1757
16825W        W32442   5.098  14.865   3.369  0.0033  0.2547 -0.2527
16826W        W32443   8.678  14.104  11.876  0.1676  0.1760  0.1947
16827W        W32444   1.475   1.222   9.987  0.0488  0.1472 -0.1379
16828W        W32445  15.582  14.973  11.447 -0.0326  0.1368 -0.1559
16829W        W32446   1.341  16.461  14.124 -0.0628 -0.0453 -0.1361
16830W        W32447  12.786  14.290   2.746 -0.0620 -0.0040 -0.0027
16831W        W32448   9.264  18.044   4.867 -0.0123  0.1421 -0.3864
16832W        W32449  15.908   8.079  11.256 -0.1854  0.2015 -0.0150
16833W        W32450  10.043  15.281   1.499 -0.0053  0.1331 -0.0003
16834W        W32451   7.211   1.448  11.791 -0.1486  0.0801 -0.0184
16835W        W32452   9.894  12.641   2.439 -0.0580  0.0973  0.1568
16836W        W32453  15.199   2.618   1.176 -0.1907 -0.1991 -0.2166
16837W        W32454   4.953   5.857   5.272  0.1492  0.2962 -0.0971
16838W        W32455   1.476   8.749   4.031 -0.0746 -0.0484 -0.2665
16839W        W32456   7.632  12.800   4.085  0.0211 -0.0812  0.0539
16840W        W32457   5.049  11.483   0.671  0.1507 -0.1569 -0.0738
16841W        W32458  13.214  17.102  12.247  0.0031  0.3474  0.2583
16842W        W32459  10.650  12.687   1.453 -0.0204  0.0508  0.3953
16843W        W32460   0.282  18.139  11.013 -0.0855  0.0075  0.2077
16844W        W32461   6.384  10.592   2.690  0.2127  0.2232  0.2949
16845W        W32462   0.671  15.156  10.621  0.0782  0.2383  0.2435
16846W        W32463   0.549   6.983   1.883 -0.0491 -0.1014  0.1050
16847W        W32464   7.314   3.620   3.146  0.1877  0.2714  0.3018
16848W        W32465   0.249  10.263  12.665 -0.1579  0.0383  0.0148
16849W        W32466   7.145   8.489   0.088  0.0852 -0.0422  0.2648
16850W        W32467   1.628   4.967  11.783  0.1356  0.0310  0.2643
16851W        W32468  12.783   9.167   0.691  0.0184 -0.2725  0.1205
16852W        W32469   2.425  13.158   3.320  0.2667  0.2497  0.2202
16853W        W32470   6.221   5.326   0.857  0.1439  0.0906 -0.0942
16854W        W32471   4.375  17.311   1.641 -0.3404 -0.2235  0.0476
16855W        W32472   1.363   6.982   4.527 -0.0629 -0.2653  0.1570
16856W        W32473  11.517   9.078  13.798  0.1282 -0.1738  0.1487
16857W        W32474   6.846  18.732  10.170 -0.0683 -0.3891  0.0813
16858W        W32475   0.226  11.420  14.480 -0.0946 -0.2415  0.0824
16859W        W32476  16.149   7.776  10.866 -0.0734  0.0790 -0.0210
16860W        W32477   1.592   0.011   4.034 -0.0863  0.1335  0.3657
16861W        W32478  17.541  15.724   3.729 -0.2919  0.2864 -0.0855
16862W        W32479   2.464  17.277   4.213  0.1142  0.1150  0.1119
16863W        W32480  17.456   7.962   5.167  0.0782 -0.1532 -0.1347
16864W        W32481  11.967  12.315  15.209 -0.1271 -0.2019  0.2697
16865W        W32482   7.652  16.277   4.362 -0.0814 -0.0275  0.1097
16866W        W32483  14.914  16.120  14.747 -0.2738 -0.0531  0.3224
16867W        W32484   2.313   0.922   3.915  0.0991  0.1608  0.0820
16868W        W32485   0.807  18.496   5.243 -0.0672  0.0500 -0.1737
16869W        W32486  17.346  16.701   4.719 -0.0827 -0.0673 -0.0626
16870W        W32487   9.084  13.216   2.349 -0.2680  0.2060 -0.1413
16871W        W32488  16.828   9.669   2.289  0.0987  0.3052  0.3210
16872W        W32489  11.436   1.142  13.474 -0.2413  0.2192  0.3081
16873W        W32490   9.263   0.681  15.120 -0.0943 -0.0241  0.0742
16874W        W32491  14.674   4.852  14.941  0.0885  0.0750  0.1242
16875W        W32492  12.996  18.777   9.555  0.3367  0.0414  0.0627
16876W        W32493   0.723  15.975  15.090 -0.1504 -0.0328 -0.0191
16877W        W32494  12.493   4.796   3.994  0.0851 -0.0162  0.0006
16878W        W32495  16.896   6.567  12.615 -0.0724  0.3309  0.0748
16879W        W32496   4.187  17.947   0.417  0.0993 -0.4157  0.0896
16880W        W32497   8.527   1.232   4.746  0.1549  0.0676  0.0527
16881W        W32498  12.905  14.864   0.692 -0.2309 -0.0755  0.1215
16882W        W32499   2.468   3.880   3.690 -0.1013 -0.1007  0.2726
16883W        W32500   4.690   4.414  12.453  0.2085 -0.1289  0.2230
16884W        W32501  13.951   3.034  10.612  0.2155  0.1425  0.1504
16885W        W32502  16.752  17.467  14.311 -0.2122 -0.1675 -0.0734
16886W        W32503   6.697  17.137  12.524 -0.0847  0.2288  0.0832
16887W        W32504   5.030  14.384  15.187 -0.2327 -0.0045  0.2521
16888W        W32505   2.630   1.572   3.324 -0.4268  0.0575 -0.3254
16889W        W32506   3.014   6.167   4.134  0.0556 -0.0061 -0.1601
16890W        W32507   6.402   4.374  12.120 -0.2720  0.0958  0.1772
16891W        W32508   1.894  12.394  11.418 -0.0134  0.2248 -0.2722
16892W        W32509   9.257   6.440   0.906 -0.1831  0.1746  0.0397
16893W        W32510  14.419  11.205  12.050  0.2109 -0.0167 -0.1430
16894W        W32511   2.938  10.599  13.620 -0.0729 -0.1856 -0.0073
16895W        W32512  15.524   8.994  13.047  0.1223  0.0868 -0.1068
16896W        W32513  16.779   0.112  13.323  0.2102 -0.2363 -0.1309
16897W        W32514  11.250   6.811   0.222  0.1455 -0.2628 -0.2150
16898W        W32515   2.197   8.448  14.732  0.4214 -0.0388  0.2797
16899W        W32516   8.367   6.800  15.119  0.0352  0.0072 -0.1985
16900W        W32517   3.715   8.375   0.198  0.3117 -0.2000 -0.0945
16901W        W32518   9.607   9.534   2.211  0.0546  0.1073 -0.3104
16902W        W32519   1.243   5.675   0.601  0.1860  0.1559 -0.3674
16903W        W32520   0.820   4.171  11.177 -0.3233  0.0149  0.2100
16904W        W32521  15.436  14.295   3.977 -0.0421  0.1111  0.1473
16905W        W32522   1.197  17.272   0.689 -0.2370 -0.1313 -0.1345
16906W        W32523   5.866   9.043  12.369  0.1330 -0.2675  0.0725
16907W        W32524  13.942  14.580   2.195  0.1380  0.0036  0.0346
16908W        W32525   5.864   1.970   4.558  0.3396 -0.0767 -0.1850
16909W        W32526   4.762   0.363   3.157  0.0129 -0.1593 -0.0567
16910W        W32527  16.632  11.100  11.795 -0.0439 -0.3005 -0.4038
16911W        W32528  13.415  16.593  14.308  0.2357  0.0759 -0.1771
16912W        W32529   4.498  10.482   3.261 -0.2268  0.1947  0.3477
16913W        W32530   9.490  10.781   1.235 -0.1593 -0.3632 -0.1828
16914W        W32531  10.228  14.186  10.780 -0.1388  0.2722 -0.1572
16915W        W32532  14.728   2.788   1.172  0.0409  0.1692 -0.3817
16916W        W32533   8.865   6.536  14.895  0.2407  0.2159  0.0503
16917W        W32534   3.056  15.447  11.245  0.1951  0.0233 -0.2276
16918W        W32535  14.357  18.483  10.913  0.1468  0.2655  0.2185
16919W        W32536  14.039   6.339  10.877  0.1597  0.1822 -0.1711
16920W        W32537  15.321   5.947   2.943  0.0127  0.4014 -0.0624
16921W        W32538   3.735  15.462  14.737  0.1618 -0.1264 -0.1026
16922W        W32539   8.004   2.357   2.256  0.0140 -0.1971  0.2487
16923W        W32540  10.223  13.350   5.288  0.1167  0.1629  0.3688
16924W        W32541   6.181  16.019  14.520 -0.1519 -0.2080 -0.0557
16925W        W32542   4.236   2.781  13.355 -0.4989 -0.1842 -0.0916
16926W        W32543   2.890  14.776   4.885  0.0387  0.0822  0.1863
16927W        W32544   3.844  11.386  13.026 -0.0263 -0.0510 -0.2019
16928W        W32545  17.631   4.773   1.927  0.0744  0.0381 -0.0087
16929W        W32546   3.099   0.885   2.101 -0.0079  0.0141 -0.0041
16930W        W32547   7.488  12.590  11.692 -0.4074 -0.1121 -0.4454
16931W        W32548  16.931  11.342   3.199 -0.0926  0.0908  0.1233
16932W        W32549   7.187   0.159  10.580  0.1374  0.3008 -0.2002
16933W        W32550   2.633   5.794   4.063 -0.3733 -0.1340  0.3883
16934W        W32551   4.102  16.712   1.157  0.0225  0.2068  0.1617
16935W        W32552  18.552   2.701   1.629 -0.1468  0.3447 -0.0383
16936W        W32553  13.783   6.107   9.967  0.1768 -0.3990 -0.1919
16937W        W32554  11.615   3.642   0.125 -0.2376 -0.0954 -0.1451
16938W        W32555   2.943  11.923  15.118  0.0161 -0.1260  0.1307
16939W        W32556  16.940   0.211  11.697 -0.2866  0.1303  0.0617
16940W        W32557  17.151   5.191   4.388 -0.1998  0.0434 -0.1936
16941W        W32558  15.204   7.618   4.600 -0.0025 -0.1274  0.2643
16942W        W32559   8.153  12.816   1.399 -0.2066  0.1157 -0.1284
16943W        W32560   4.786  14.637  11.808  0.0704 -0.1359 -0.0188
16944W        W32561   9.666   7.164   0.284  0.1149  0.0473  0.1322
16945W        W32562   9.633  18.133  14.392 -0.0375 -0.1905 -0.0651
16946W        W32563  12.362   8.988  13.592 -0.2110  0.2260  0.0757
16947W        W32564   0.420  13.257   9.450 -0.1478 -0.1586 -0.1599
16948W        W32565  19.057  15.105  13.299 -0.2429 -0.4865 -0.0981
16949W        W32566  17.078   6.407   3.528 -0.0601 -0.0236 -0.2023
16950W        W32567  16.899   2.413   3.208 -0.2139 -0.0078  0.3737
16951W        W32568  10.990  11.401  12.045  0.0892 -0.1150  0.2453
16952W        W32569  16.725   1.554   5.408 -0.0112 -0.1036  0.0826
16953W        W32570   4.373   1.260   3.683 -0.2128  0.2565 -0.1822
16954W        W32571   6.075  15.869   4.580 -0.1518 -0.2891 -0.2450
16955W        W32572   6.346   8.376   9.608 -0.2182  0.1500  0.1713
16956W        W32573  14.056   9.801  14.366 -0.1455 -0.0482  0.1604
16957W        W32574   6.643  12.719   3.897 -0.3702  0.1811 -0.3306
16958W        W32575   6.576   5.067   0.332 -0.0581  0.2479  0.0665
16959W        W32576  10.600  11.643   2.028  0.3875  0.0256  0.0698
16960W        W32577  10.789  17.666   2.257 -0.0623 -0.2163  0.1103
16961W        W32578   1.255  18.606  14.200  0.0309  0.2262 -0.1300
16962W        W32579   1.945   8.892   5.326  0.0332 -0.2256 -0.1514
16963W        W32580  14.253  16.062   4.024  0.0653 -0.1152 -0.0531
16964W        W32581  10.403   1.742   2.278 -0.1208  0.0787  0.1543
16965W        W32582  17.711  12.535   2.129 -0.0400  0.0240  0.0848
16966W        W32583  16.298  16.597  13.406 -0.0613  0.3181  0.3430
16967W        W32584   8.354  18.536  10.853 -0.2974  0.3068 -0.0568
16968W        W32585   9.953   8.618   4.656  0.1669 -0.1137 -0.0200
16969W        W32586  16.844  17.982  14.350  0.2249 -0.1032 -0.2110
16970W        W32587  16.752  11.465  11.413 -0.2884 -0.0233 -0.0707
16971W        W32588  12.279   0.111   3.168  0.0426 -0.0911 -0.2093
16972W        W32589  10.324   4.064   3.894 -0.0744  0.0575 -0.0162
16973W        W32590  15.975  14.582  14.133  0.2395 -0.0419  0.1215
16974W        W32591   3.206   3.935  13.049  0.2140 -0.2250 -0.1523
16975W        W32592  16.252  15.810  13.586  0.0123 -0.1755 -0.0272
16976W        W32593  17.460  11.213  13.846  0.1098 -0.1696 -0.0019
16977W        W32594   9.593  17.048   4.796 -0.1297  0.3697  0.2811
16978W        W32595  17.880   6.945   4.785 -0.0957 -0.0171  0.1029
16979W        W32596   8.930   8.154   4.608 -0.0716 -0.2650 -0.1094
16980W        W32597   7.510  13.443   0.763  0.1492 -0.2090 -0.1525
16981W        W32598  17.621  17.659  13.293  0.1497 -0.2914 -0.1556
16982W        W32599  11.186  17.315  11.148  0.0585  0.1492 -0.2452
16983W        W32600  14.382  14.293   2.263 -0.0363  0.0676 -0.0697
16984W        W32601   9.581   0.280   2.456 -0.1408 -0.2288 -0.0029
16985W        W32602  14.384  15.029  12.891  0.0822  0.2002 -0.0520
16986W        W32603   7.800  12.918   5.017 -0.0059  0.1500  0.3171
16987W        W32604  14.947   4.483   1.310  0.1178 -0.3944 -0.3269
16988W        W32605  14.412   6.900  12.573 -0.0358  0.0550  0.1170
16989W        W32606  18.779   7.455   6.015 -0.3004 -0.1152 -0.3199
16990W        W32607  13.727   0.633  15.033 -0.1230  0.0739 -0.0749
16991W        W32608  13.195  18.873   2.431  0.1307  0.1536 -0.0403
16992W        W32609  17.406  15.778   0.083 -0.0440 -0.0318 -0.1433
16993W        W32610  13.501  16.122   3.546  0.0867  0.0691  0.2563
16994W        W32611   6.790   3.734  11.386 -0.1675 -0.2696 -0.2252
16995W        W32612   0.268  11.976   0.853 -0.0809  0.3195 -0.1589
16996W        W32613   4.348  17.566   1.182 -0.0470 -0.1459 -0.0348
16997W        W32614  14.466  14.866   1.074  0.1394 -0.0737  0.2679
16998W        W32615  14.546  18.911  12.383 -0.0871  0.2001 -0.2360
16999W        W32616  13.141   3.282   0.309 -0.1594  0.3193  0.1256
17000W        W32617  15.674  12.240   4.703 -0.0880  0.1429 -0.0408
17001W        W32618   3.654  15.932   0.459  0.1601 -0.0124 -0.1989
17002W        W32619   7.892  11.001  13.265  0.1666 -0.0206 -0.4174
17003W        W32620   5.855   7.119   5.171 -0.4778  0.0345  0.1983
17004W        W32621  15.532   3.387   3.840  0.1180  0.0545  0.2209
17005W        W32622   2.838  14.341  13.785  0.0655 -0.1309 -0.0362
17006W        W32623   4.877   7.208  13.392  0.1308 -0.0368 -0.1434
17007W        W32624   7.120   2.358  11.571 -0.3753 -0.1222  0.0815
17008W        W32625  12.308   3.952   0.228  0.2044 -0.2653  0.1231
17009W        W32626   4.887   0.924  11.062  0.0118  0.0825 -0.1544
17010W        W32627   2.916  14.259   1.353 -0.0451 -0.1961  0.2118
17011W        W32628   4.151   3.798  11.073  0.0222  0.1750  0.2092
17012W        W32629   4.563  15.430   0.008 -0.0055 -0.5096  0.1871
17013W        W32630   1.177  16.776  10.759  0.3074  0.2785 -0.2406
17014W        W32631  12.612  10.197   0.269  0.2452 -0.0282 -0.2517
17015W        W32632  17.498   0.341  11.348 -0.1911 -0.0879  0.2895
17016W        W32633   4.800   3.541  14.692  0.0885 -0.0248 -0.1708
17017W        W32634   4.429   5.963   0.480  0.1941 -0.2895  0.2039
17018W        W32635   8.251  15.685  15.135  0.1391 -0.1202 -0.3214
17019W        W32636  13.319   1.449   0.884  0.1424 -0.1446 -0.0808
17020W        W32637  10.231   0.414  15.215  0.0534 -0.1040  0.1351
17021W        W32638   1.980   0.499   1.266 -0.0054 -0.1189 -0.2335
17022W        W32639   1.095  15.470   1.792 -0.0905 -0.0679  0.1629
17023W        W32640  11.111  17.911  11.860  0.1269 -0.1368  0.1567
17024W        W32641  12.972  15.585   5.590  0.1261 -0.0741 -0.0210
17025W        W32642  12.567   0.666   4.878 -0.2124  0.0686 -0.1744
17026W        W32643  18.928  18.569   4.238 -0.1640  0.1951 -0.0078
17027W        W32644  11.652   2.088   4.191  0.2583 -0.1124 -0.0097
17028W        W32645   7.075   9.650   0.593  0.3344  0.0675 -0.1868
17029W        W32646   2.252  14.916  12.245 -0.0616 -0.2454  0.0103
17030W        W32647   6.732   7.582  15.006  0.1775  0.2110  0.0105
17031W        W32648   8.720   6.268  15.279 -0.0403 -0.1052 -0.1430
17032W        W32649   2.010   4.713  11.211  0.1208 -0.1997  0.1207
17033W        W32650   6.458   2.418   1.462  0.1288 -0.0014 -0.2096
17034W        W32651  18.472   8.341  10.414 -0.0686 -0.0841 -0.1397
17035W        W32652   9.025  10.081   2.715  0.1547 -0.1110  0.1312
17036W        W32653   2.968  11.096   1.784  0.3563  0.0742 -0.0929
17037W        W32654  16.375  15.340  12.850 -0.1221  0.0717 -0.0158
17038W        W32655   7.612   7.996   4.169 -0.0450  0.1138  0.0398
17039W        W32656  13.941   8.950  12.513  0.3072 -0.3364  0.1121
17040W        W32657  17.921  12.990  10.383 -0.0025 -0.0039 -0.3665
17041W        W32658  17.695  11.193  12.143 -0.3032 -0.1474 -0.3225
17042W        W32659  15.265  18.858  15.237 -0.0515 -0.0869  0.0918
17043W        W32660  16.533  12.923  15.174  0.1430 -0.0603 -0.0045
17044W        W32661  14.274   6.598   1.490 -0.2429 -0.3054  0.0444
17045W        W32662   3.752   0.383  14.883 -0.0261  0.2062  0.3954
17046W        W32663  15.470  11.593  13.555  0.0269  0.0253  0.0108
17047W        W32664  14.956   3.671   9.532  0.0338 -0.2863  0.1032
17048W        W32665   5.101   1.464  11.773 -0.0367 -0.1803 -0.1181
17049W        W32666   2.620   8.309   1.768  0.1491  0.1190 -0.0601
17050W        W32667   8.074  11.903  12.844 -0.2593 -0.3687 -0.1219
17051W        W32668  16.609   1.696   4.930 -0.2696  0.1204 -0.2134
17052W        W32669   8.067  17.136   1.061 -0.1778  0.5479  0.0417
17053W        W32670   0.311  14.237  11.235  0.0095 -0.1254  0.0449
17054W        W32671   3.078   4.675   3.257  0.2052 -0.2952 -0.0872
17055W        W32672  12.775  14.730   3.089 -0.0907 -0.3725 -0.1625
17056W        W32673   5.887   3.087   9.916 -0.2043  0.0494 -0.1706
17057W        W32674  15.028   1.873   3.773 -0.1148 -0.3042 -0.2013
17058W        W32675  11.354  16.665  11.921  0.0644  0.0717  0.2407
17059W        W32676  11.951   4.883  13.966 -0.0976  0.1690 -0.0285
17060W        W32677  18.743  11.587  10.688 -0.0711  0.0451 -0.0390
17061W        W32678  14.337   1.053  12.214  0.3913 -0.1888 -0.1568
17062W        W32679   2.368  10.318   3.736 -0.0044  0.1405  0.2599
17063W        W32680  10.744   9.450  11.992  0.1513 -0.0503  0.2627
17064W        W32681  18.867  18.310  11.823 -0.1511  0.0331 -0.1121
17065W        W32682  17.338   2.773   3.434  0.1517  0.0396 -0.1443
17066W        W32683  12.175   8.695  10.721  0.1982 -0.0727  0.3744
17067W        W32684  15.170   8.227  13.394  0.1343 -0.2354  0.0795
17068W        W32685  15.148   3.330  13.737 -0.0354  0.1608  0.0472
17069W        W32686   8.480   5.308   1.414 -0.0922  0.2276 -0.2153
17070W        W32687  11.644   8.672   4.867 -0.1021 -0.0365 -0.3723
17071W        W32688  17.735  12.980   3.898 -0.2805 -0.0516  0.1780
17072W        W32689   8.923   2.843   4.482  0.0236  0.3172 -0.1689
17073W        W32690  16.614   7.099   0.933  0.2764  0.2409 -0.2602
17074W        W32691   1.139   7.817   0.391 -0.0193  0.1640 -0.1706
17075W        W32692  11.303   9.513  13.890 -0.3207  0.0334  0.0379
17076W        W32693  12.671   2.581   2.607 -0.1488 -0.1382  0.1842
17077W        W32694   7.324   1.833   4.782 -0.0389  0.1620  0.0239
17078W        W32695   4.320   3.344   6.613  0.0867 -0.0688 -0.1631
17079W        W32696  12.322  12.605   1.712  0.1600 -0.4258  0.4505
17080W        W32697  16.029  19.071   0.406  0.2534 -0.0028 -0.0880
17081W        W32698  14.232   7.975  10.154  0.0414  0.0364  0.0709
17082W        W32699  17.041  17.164  15.030 -0.0920  0.1045  0.0470
17083W        W32700   5.806   4.436   3.161 -0.1916  0.3241 -0.3089
17084W        W32701   6.867  12.177   2.675 -0.1251  0.1399 -0.2099
17085W        W32702   4.243  12.552   2.157  0.0332  0.0045  0.2528
17086W        W32703   5.964   2.967  11.432 -0.5073  0.4327  0.3380
17087W        W32704  16.166   6.775  10.617  0.0796 -0.2343 -0.2991
17088W        W32705   9.239   3.444   3.963  0.0272  0.0920  0.1182
17089W        W32706   6.819  12.098  15.153 -0.0797  0.2028 -0.0539
17090W        W32707  10.352  10.503  11.921  0.1081  0.3167  0.2794
17091W        W32708  13.344   6.586   3.235 -0.1556  0.1525  0.2255
17092W        W32709  18.570   6.821   2.329 -0.1344 -0.1003 -0.2990
17093W        W32710  15.874   7.630  13.438 -0.0784  0.1139  0.0998
17094W        W32711   1.855  17.083  10.722  0.0470  0.0720 -0.3713
17095W        W32712  17.150  15.920   2.614  0.3242  0.1685  0.0450
17096W        W32713   0.695   6.424   1.323  0.0794  0.4609  0.2376
17097W        W32714   5.012  11.046   1.386 -0.1387  0.3199 -0.0053
17098W        W32715   6.605  13.983  12.667 -0.0444  0.1895 -0.3556
17099W        W32716   0.931  13.133  12.906  0.2694 -0.2002  0.4000
17100W        W32717  16.247  12.396  10.504 -0.4450  0.1785 -0.0066
17101W        W32718  15.427   4.255  11.685  0.2891 -0.0618  0.1244
17102W        W32719   1.594   8.118   4.739 -0.1089  0.0496  0.1125
17103W        W32720   1.180   3.965   0.329 -0.1588 -0.1162 -0.1964
17104W        W32721   7.645  16.111   4.894  0.0987 -0.0099  0.0980
17105W        W32722  11.091   2.354   2.811  0.0485  0.0635  0.0437
17106W        W32723  13.681   0.435   1.251 -0.0163  0.0121 -0.0068
17107W        W32724   3.858  14.674  10.905 -0.0144 -0.2541 -0.3071
17108W        W32725   1.435   8.015   0.753  0.0027  0.1031 -0.2448
17109W        W32726   9.854   2.228  12.596 -0.2482  0.0599  0.1860
17110W        W32727   1.513   5.261   0.165  0.3143 -0.1018  0.3267
17111W        W32728  18.242   5.677   0.190 -0.1965  0.1047 -0.0598
17112W        W32729   3.247   1.842   4.333  0.4230  0.1531 -0.0632
17113W        W32730   4.668  15.864  10.015 -0.0730  0.1092  0.1105
17114W        W32731  16.940  16.072   3.112  0.0144  0.1861 -0.0756
17115W        W32732   6.654   5.214  13.729  0.1039 -0.4604  0.2257
17116W        W32733   5.234   8.717   5.154 -0.1693 -0.1425 -0.0382
17117W        W32734   5.033   0.622  12.938 -0.1636  0.2694  0.0134
17118W        W32735   5.846   4.756   4.977  0.2261 -0.2676  0.1612
17119W        W32736   4.567   3.705  13.122  0.3668 -0.0636  0.0255
17120W        W32737   3.120  14.300   4.308  0.1733  0.2239  0.2340
17121W        W32738  10.870   1.496  10.108  0.2939  0.0541  0.4336
17122W        W32739  17.657   6.493   2.477 -0.1505 -0.1727  0.0248
17123W        W32740  10.314   9.540  14.023 -0.1843 -0.0743 -0.1260
17124W        W32741  12.187  15.078  13.501 -0.0449  0.0924 -0.1692
17125W        W32742   0.892  11.999  11.121 -0.3017 -0.1420 -0.0030
17126W        W32743   4.296   1.706   1.126  0.1209  0.0775 -0.1192
17127W        W32744   4.395  11.727   1.746 -0.0669 -0.1096  0.0140
17128W        W32745  16.637  15.043   3.923 -0.1826  0.0476 -0.0340
17129W        W32746   2.226  12.948   0.944  0.2405 -0.2263 -0.0484
17130W        W32747   7.805   6.439   5.160  0.0749 -0.0210  0.0311
17131W        W32748   4.317   4.244   4.490 -0.0854 -0.2979 -0.1973
17132W        W32749  10.877   1.143   0.163 -0.0632  0.0064 -0.0228
17133W        W32750   9.048  18.106   2.669  0.1339 -0.0664 -0.1041
17134W        W32751   8.385   5.331   0.218  0.1791 -0.3246 -0.0463
17135W        W32752   1.169   3.184   3.427 -0.5915  0.0809 -0.2753
17136W        W32753   1.556   7.980   5.623 -0.0126  0.4920  0.1925
17137W        W32754   9.761   2.200  13.970 -0.1911 -0.1063 -0.1234
17138W        W32755  15.462  10.844  11.048 -0.1446  0.1883 -0.1464
17139W        W32756  17.610   2.598  12.487 -0.1704  0.0842  0.0614
17140W        W32757   5.390   8.856   5.658  0.1556  0.4168 -0.1315
17141W        W32758   0.553   3.143   1.571 -0.3639 -0.5313  0.1625
17142W        W32759   4.895   4.459  11.230 -0.1081 -0.1014  0.2394
17143W        W32760  15.766  11.677   2.646 -0.0894  0.2261  0.0527
17144W        W32761   6.583   9.510   3.738  0.2408  0.1534 -0.0237
17145W        W32762   0.117   0.692   3.381 -0.0237  0.0541  0.0429
17146W        W32763   6.368   3.404   2.478  0.0925  0.2108  0.0230
17147W        W32764  16.100   0.027  14.075  0.1094 -0.0838 -0.2135
17148W        W32765   0.270   4.072  12.070  0.0727 -0.0983  0.1187
17149W        W32766   6.902  14.745   2.412  0.0590  0.0070 -0.2703
17150W        W32767  17.110  10.432  14.249  0.1405 -0.0821 -0.0595
17151W        W32768  16.057   2.465  10.887  0.0334  0.1267 -0.0324
17152W        W32769  17.893   8.349   1.002 -0.1313  0.0627  0.2926
17153W        W32770   0.217  17.893   4.628 -0.1584  0.1435  0.1731
17154W        W32771   7.184   2.412   0.957 -0.0645  0.2447  0.1068
17155W        W32772  14.589  14.795  13.730 -0.2161 -0.1795  0.1527
17156W        W32773  17.578   7.659  11.339 -0.2810  0.2481  0.0803
17157W        W32774   6.248  17.070   2.796  0.0429  0.0066  0.3759
17158W        W32775   6.883   1.279  11.502  0.1516 -0.2076 -0.1654
17159W        W32776   2.935   1.556   3.964 -0.1137 -0.1096  0.1004
17160W        W32777  11.071  13.738  14.365 -0.2836 -0.0160  0.2461
17161W        W32778  16.072   2.647   4.251  0.0971  0.0923  0.1762
17162W        W32779  14.031  17.888   3.713 -0.2028 -0.3095  0.0643
17163W        W32780   1.985  11.323   0.664 -0.2336  0.1001  0.0031
17164W        W32781   7.640   9.817   4.663  0.1452 -0.2230  0.1890
17165W        W32782  14.371   3.367   0.894 -0.0553 -0.1340 -0.0459
17166W        W32783   1.658  16.631   3.685 -0.3790  0.0915 -0.0295
17167W        W32784  14.242  15.814   0.041  0.2579  0.0297  0.2905
17168W        W32785  14.916   2.478  13.269  0.0683 -0.1668 -0.0533
17169W        W32786  13.994  13.682   1.882  0.1041  0.2119  0.0394
17170W        W32787  12.748   9.947  11.795 -0.2893 -0.0375  0.0431
17171W        W32788   3.617  12.723  12.937  0.0834 -0.1214 -0.2398
17172W        W32789   4.099   7.000   1.616  0.3196  0.2466 -0.2307
17173W        W32790   2.663  14.249  14.335  0.2760  0.0829  0.0450
17174W        W32791   3.066   6.804   1.594 -0.0007  0.0958 -0.0815
17175W        W32792   7.148   7.493  10.907 -0.2300  0.0373 -0.1757
17176W        W32793   5.345  14.279   1.712  0.0425  0.4218 -0.2437
17177W        W32794  11.845  14.942  11.477  0.2300 -0.1017  0.0418
17178W        W32795   2.579   2.729   3.046  0.0529 -0.0492  0.0313
17179W        W32796  10.414  11.594   2.943 -0.0154 -0.1002 -0.1179
17180W        W32797   8.836  13.837   4.928 -0.3271  0.0330  0.3539
17181W        W32798   8.844  11.952  12.800  0.2947 -0.2636 -0.1122
17182W        W32799  10.962   0.604  11.699 -0.0527 -0.0422 -0.1870
17183W        W32800   8.133   5.130  13.450  0.0401  0.3990  0.1094
17184W        W32801   1.024  18.668  10.880 -0.0117  0.0254 -0.0157
17185W        W32802   3.322  16.631  13.461  0.0618 -0.0758  0.2187
17186W        W32803  16.944   8.258   2.900  0.1339  0.2996 -0.0681
17187W        W32804  15.963   6.892  12.748 -0.1607  0.1896 -0.1237
17188W        W32805   6.212   9.796  12.151  0.2231  0.0131  0.2614
17189W        W32806  15.047   2.801  11.745  0.2472 -0.0905 -0.1767
17190W        W32807   1.798  13.278   1.665  0.3556 -0.0670 -0.1944
17191W        W32808  15.707  10.518  13.303 -0.1963  0.1272  0.2010
17192W        W32809  18.046   7.874  14.584 -0.1503 -0.1776  0.0336
17193W        W32810  16.500   1.495  11.801  0.1630 -0.0287  0.3440
17194W        W32811  10.623  11.306  10.454  0.3171 -0.4856  0.4525
17195W        W32812   6.453  16.731  12.179 -0.3292  0.2052 -0.2670
17196W        W32813  14.655  16.310   1.582 -0.3531 -0.0785  0.0846
17197W        W32814  13.569  16.456  14.777  0.1546  0.0227  0.0603
17198W        W32815  13.002  17.123   0.345 -0.2759  0.1994  0.2143
17199W        W32816  15.205   6.859   2.384 -0.3467  0.1253  0.0551
17200W        W32817  17.541  18.116  13.623 -0.1516  0.4658 -0.0877
17201W        W32818   6.388   9.270   3.006 -0.3790 -0.1468  0.3324
17202W        W32819  11.961  16.361   1.741 -0.0546  0.0599 -0.1773
17203W        W32820  10.525   2.844  11.631 -0.1586 -0.1494  0.1714
17204W        W32821   5.727   5.532   3.376 -0.1141 -0.0509  0.0723
17205W        W32822   3.511  18.397  13.516  0.0423 -0.0912  0.1874
17206W        W32823  11.262   9.235   4.277 -0.0136 -0.1144 -0.1745
17207W        W32824   1.906  18.149  14.463 -0.0713  0.1896 -0.1026
17208W        W32825   5.449   7.626   3.640  0.0168 -0.0329 -0.3960
17209W        W32826   8.431  16.035  11.668 -0.0248  0.0373 -0.1603
17210W        W32827  11.300  13.796   4.343  0.1197 -0.0795  0.2169
17211W        W32828  15.813  18.525   4.507  0.0491  0.0711 -0.0226
17212W        W32829  15.603  12.279   0.629 -0.0090 -0.0121 -0.1856
17213W        W32830   2.544  15.188   3.632 -0.0290  0.2334  0.0526
17214W        W32831  11.381  13.989   0.938 -0.2689  0.0438  0.0414
17215W        W32832   1.787  11.791  10.463 -0.0728  0.0001 -0.1708
17216W        W32833   3.925   6.876   4.137 -0.4884 -0.1818  0.0303
17217W        W32834   4.517   4.102   3.452 -0.0209 -0.1745 -0.0148
17218W        W32835   2.726  18.774   1.773  0.2250 -0.2824 -0.2796
17219W        W32836  13.213  12.842   1.157  0.2394 -0.2405 -0.1367
17220W        W32837   7.964  14.456   4.904  0.3629 -0.0285  0.1665
17221W        W32838  13.163   8.778  15.269  0.3246  0.1122  0.1142
17222W        W32839   1.307  10.862   0.486  0.2122  0.0646  0.1769
17223W        W32840  13.821  13.962  15.032  0.1962  0.0005  0.1228
17224W        W32841  18.947   4.568   0.686  0.1011  0.3983 -0.1472
17225W        W32842  17.850   6.748   0.093  0.1923  0.1945 -0.2513
17226W        W32843   3.525   3.174   2.796 -0.1055  0.1158 -0.3573
17227W        W32844  12.654  17.112  14.429 -0.0118 -0.0645  0.5133
17228W        W32845   5.420   1.060  11.849 -0.0829  0.2662 -0.1216
17229W        W32846   4.925   6.619   4.858  0.1397  0.1379 -0.1028
17230W        W32847  16.059   0.249  10.721  0.1515 -0.0763  0.2736
17231W        W32848   7.209  13.914   4.277  0.0359 -0.0731  0.1471
17232W        W32849   5.095  12.687   0.033  0.2002  0.0257  0.0731
17233W        W32850  18.802  10.759   5.208 -0.1780 -0.2529 -0.2631
17234W        W32851   1.145   2.691   1.564  0.3163  0.0997 -0.1752
17235W        W32852  11.741  10.017   1.934 -0.3889  0.0071  0.2840
17236W        W32853  18.012  16.017   1.443 -0.1919 -0.3915  0.1181
17237W        W32854  15.345  16.034   2.635 -0.0580 -0.3710 -0.1198
17238W        W32855  16.487  11.852  11.205  0.3292  0.0378  0.0845
17239W        W32856   3.930   0.610   5.835 -0.1418 -0.1903 -0.1404
17240W        W32857   6.048   6.701  14.572  0.0826 -0.1091 -0.1490
17241W        W32858   4.021   2.531   3.051  0.2345 -0.1865 -0.1478
17242W        W32859  12.784  10.126   1.464  0.0301 -0.0428  0.2580
17243W        W32860   6.661   0.759  11.530  0.3795  0.2020  0.1786
17244W        W32861  18.514  10.271   5.426 -0.1594 -0.1300 -0.3410
17245W        W32862  14.880  18.885   1.846  0.1683  0.1408 -0.2484
17246W        W32863   9.253  13.384  11.091  0.2505  0.1679  0.5035
17247W        W32864   0.772  15.985   2.494  0.1994 -0.0173  0.2047
17248W        W32865   4.771   0.635   1.646  0.0006  0.1846  0.1071
17249W        W32866   6.559  10.450   4.257 -0.2747 -0.0642  0.0388
17250W        W32867  11.601   3.894  12.827  0.0788  0.1833  0.1391
17251W        W32868   6.286   3.559   5.386 -0.1818  0.2647  0.1590
17252W        W32869   5.644   0.820  14.778 -0.3462 -0.0837  0.2664
17253W        W32870   4.352  18.395  13.568  0.1615 -0.1239  0.1914
17254W        W32871  17.031  14.185   0.162  0.1476  0.1179  0.0338
17255W        W32872   4.570   8.562   4.125 -0.0955 -0.0631 -0.2028
17256W        W32873   7.171  15.023   0.387  0.0250 -0.2572 -0.1096
17257W        W32874  16.199  11.636   5.292  0.0346  0.1721  0.0574
17258W        W32875   2.837  13.879  14.085 -0.1825 -0.0727  0.0248
17259W        W32876  17.240   1.919   2.783  0.0864 -0.0176  0.0667
17260W        W32877   4.323  13.977   2.711 -0.0764 -0.0531 -0.1957
17261W        W32878   1.456   1.426  11.680  0.0852 -0.1448 -0.2310
17262W        W32879   9.670   6.992  12.371 -0.0029 -0.0754 -0.1256
17263W        W32880   0.835   5.016   4.952  0.1636  0.0307 -0.1163
17264W        W32881   1.138  10.410   0.437 -0.1202  0.1500 -0.0322
17265W        W32882  15.577  15.499   2.309 -0.2070  0.0070  0.0279
17266W        W32883   1.747   7.694   0.504  0.3829  0.0456 -0.2919
17267W        W32884   8.948   6.774  13.148 -0.0821  0.2815  0.0120
17268W        W32885  12.039  15.459   4.739  0.3668  0.0182  0.0124
17269W        W32886   7.389  10.569  15.103  0.4287  0.4007 -0.3156
17270W        W32887   7.633   8.260   1.994  0.0805  0.0581  0.0723
17271W        W32888  17.818  14.336   0.767 -0.1696  0.0143  0.0006
17272W        W32889  12.641  11.973  13.405  0.1548  0.1713  0.1397
17273W        W32890   2.871   5.639  15.110  0.3469  0.1933  0.1916
17274W        W32891   0.107   8.422   1.223 -0.0388  0.1430  0.3332
17275W        W32892  15.109   0.272  15.111 -0.1094  0.2845  0.3605
17276W        W32893   3.834  13.369  14.166  0.0578  0.0657  0.3583
17277W        W32894   5.316  14.312   9.664 -0.1676  0.4091  0.4636
17278W        W32895   5.812  10.987   3.465  0.0716 -0.1220 -0.2760
17279W        W32896   2.522   9.432   3.927 -0.0119 -0.1578  0.1491
17280W        W32897   8.424   4.958  11.014 -0.0155 -0.1290  0.0516
17281W        W32898   3.953   7.089  12.280  0.2627 -0.0316  0.0472
17282W        W32899  10.303   6.074   2.819 -0.2146  0.1796 -0.1894
17283W        W32900  14.421  17.151   0.300 -0.1296  0.1446 -0.0736
17284W        W32901   3.449   6.757   5.515 -0.1664 -0.1875  0.0065
17285W        W32902  16.739  13.165   4.341 -0.0613  0.1612  0.0589
17286W        W32903  15.805  14.086   4.537  0.5437  0.3470  0.1335
17287W        W32904   2.770  11.242   4.576  0.0354 -0.2048  0.0101
17288W        W32905  14.916   1.332  11.622 -0.3118  0.1912  0.1649
17289W        W32906  12.707  18.590   2.424 -0.0551 -0.1188  0.4990
17290W        W32907   2.404  12.359  14.066 -0.1085  0.1457 -0.5516
17291W        W32908   4.413   4.646   2.497 -0.1360 -0.3251 -0.3424
17292W        W32909   5.233   6.603  12.289  0.0279 -0.2010 -0.0093
17293W        W32910   4.044  10.922  13.723  0.0922  0.2251 -0.3081
17294W        W32911   9.192  11.545  13.542  0.1029 -0.4748 -0.0087
17295W        W32912  14.274   7.043   0.658 -0.1818  0.0729  0.2586
17296W        W32913  14.508  17.402  13.070  0.1626 -0.1609 -0.2949
17297W        W32914  11.342  17.110   1.755  0.5454 -0.1036  0.0651
17298W        W32915  17.937   2.695  12.054  0.0071 -0.3988  0.2133
17299W        W32916   9.740   7.783  15.104  0.1158  0.0302  0.0385
17300W        W32917   9.284   9.127   2.165 -0.1957  0.4579 -0.0326
17301W        W32918   2.494   0.810  11.888 -0.1609 -0.1753 -0.1630
17302W        W32919  12.395  17.751   3.159  0.1955 -0.0295  0.0503
17303W        W32920  15.274  13.917  10.669 -0.1699  0.2730 -0.1671
17304W        W32921   8.098   4.558  10.933 -0.0398  0.0500  0.0763
17305W        W32922  16.285  10.753   1.718  0.0188  0.1066 -0.0536
17306W        W32923   8.152  18.667   4.729  0.2481 -0.1714 -0.1999
17307W        W32924   4.712   8.550   5.133 -0.2447 -0.1240  0.1617
17308W        W32925  18.503   9.793   5.880 -0.1947 -0.2565  0.0682
17309W        W32926  18.590   0.495   4.177 -0.5618 -0.2274 -0.0699
17310W        W32927   8.222  10.124  14.088 -0.2321 -0.0330  0.1591
17311W        W32928  15.534   5.297  12.025  0.1230  0.0206 -0.2447
17312W        W32929   7.596   8.730   2.196  0.1667  0.0533  0.2234
17313W        W32930  11.705  16.894   2.982  0.0255 -0.1664  0.0667
17314W        W32931  16.463  11.922   0.068  0.1103  0.2216 -0.2365
17315W        W32932  10.030   0.320  11.441 -0.0100  0.1156 -0.0907
17316W        W32933   3.318  18.645  11.204 -0.0341  0.2210  0.0488
17317W        W32934   4.750   5.412   3.402  0.2063  0.0028 -0.0001
17318W        W32935   7.736  10.095   4.302  0.0098 -0.5164  0.1095
17319W        W32936   5.435   0.055   0.203 -0.2116  0.2170 -0.1368
17320W        W32937  14.203   3.672   2.137  0.0896 -0.1912  0.2184
17321W        W32938  11.495  18.676  12.644 -0.1268 -0.0126 -0.0120
17322W        W32939   2.256  15.887  14.918 -0.2556 -0.0949 -0.3491
17323W        W32940  11.361  14.527   4.606 -0.0296 -0.0214 -0.0174
17324W        W32941   9.860   0.373  12.030 -0.3596  0.2912 -0.0237
17325W        W32942   2.450  14.032   2.195 -0.1619  0.0585  0.3615
17326W        W32943  15.010  17.214  13.058 -0.0444  0.2033  0.1720
17327W        W32944  11.399   3.182   2.053 -0.0768 -0.0474 -0.2651
17328W        W32945  13.380   6.677  11.272 -0.0425 -0.3665 -0.3801
17329W        W32946   9.010  16.145   4.651 -0.1040  0.5322 -0.0636
17330W        W32947  12.535  13.450  13.630  0.1577  0.4047 -0.0483
17331W        W32948   6.671  16.605   0.488  0.2388  0.2277  0.2821
17332W        W32949  17.039  16.237  14.550 -0.0081  0.1250 -0.1336
17333W        W32950   1.178  11.948   3.965 -0.0846  0.2081  0.2125
17334W        W32951   5.759  17.967  13.925  0.0005  0.2412 -0.2135
17335W        W32952   3.451   0.172   1.954  0.0914  0.0001 -0.1576
17336W        W32953  11.093   7.682   2.421 -0.2421  0.1834  0.0758
17337W        W32954   5.106   6.356   3.250 -0.1201 -0.1129  0.3378
17338W        W32955   9.546   0.199  11.454 -0.2569 -0.2945 -0.1310
17339W        W32956  17.819  18.880  12.500 -0.2542 -0.0886 -0.0985
17340W        W32957  18.713  16.706  13.751 -0.1611  0.3575 -0.1428
17341W        W32958  16.222   2.092  14.705  0.1396  0.0372 -0.2166
17342W        W32959  13.358   7.558  13.550  0.0454  0.0198  0.1167
17343W        W32960  13.470   2.242  12.333  0.2203 -0.0855 -0.0251
17344W        W32961  11.338   5.268   0.605  0.2053  0.1143  0.0226
17345W        W32962   6.993   2.144   3.330 -0.0308 -0.3025  0.0683
17346W        W32963   7.158  15.244   1.832  0.1626  0.1212 -0.0296
17347W        W32964   3.101  16.071  12.265 -0.0251 -0.0825 -0.1407
17348W        W32965   5.339   7.645   1.060 -0.0463  0.0247 -0.0379
17349W        W32966  17.160  12.321  15.105  0.0608 -0.0928  0.0166
17350W        W32967   5.873   7.002  13.089 -0.0168 -0.4688  0.0106
17351W        W32968  15.233   9.028   1.077 -0.0116  0.4217  0.1279
17352W        W32969  14.495   8.738  15.168 -0.2575 -0.1600 -0.0074
17353W        W32970   3.115   0.734  10.612 -0.0464  0.1586 -0.0994
17354W        W32971  10.342  11.580  10.839 -0.1193  0.3269 -0.3878
17355W        W32972   5.411   5.810  10.951  0.2287 -0.0522 -0.0471
17356W        W32973   2.426  15.694   5.866  0.0724 -0.4064 -0.2245
17357W        W32974  15.479  13.181  13.358 -0.0617  0.2259 -0.2251
17358W        W32975   2.608   8.228  12.708 -0.0314 -0.0037  0.0282
17359W        W32976  12.455  18.973   1.739 -0.1694  0.0141  0.0605
17360W        W32977   2.472   6.494  13.547 -0.1876  0.0592 -0.3377
17361W        W32978   6.910  17.711   6.010  0.4467  0.0918 -0.3111
17362W        W32979   8.828   2.070  13.887 -0.0901 -0.2254  0.1491
17363W        W32980   6.249   2.392   3.349  0.4423  0.0959  0.3195
17364W        W32981  14.242   3.050   2.819 -0.0344 -0.1738 -0.2166
17365W        W32982  17.571   0.826  14.144  0.0692 -0.1022 -0.1899
17366W        W32983  18.742   9.234   4.946  0.0781 -0.2399 -0.1384
17367W        W32984  18.422   4.276  13.948  0.0204 -0.1760 -0.1767
17368W        W32985   2.567  14.772   4.005 -0.0563  0.2409  0.0913
17369W        W32986  15.301  18.033  13.380  0.0045  0.0409  0.1410
17370W        W32987  17.614  14.309  14.535 -0.0200 -0.0646  0.0305
17371W        W32988   5.726   4.236   0.794  0.0589 -0.2461 -0.1152
17372W        W32989   0.043   6.910  14.505  0.0810  0.1220  0.2563
17373W        W32990  16.526   0.644  14.741 -0.0254 -0.2427 -0.0978
17374W        W32991   0.114  18.710  10.468  0.1288  0.2079 -0.1366
17375W        W32992   5.276  12.188   1.440  0.0644 -0.0729  0.2770
17376W        W32993   0.296  16.167   0.781 -0.5317 -0.2858  0.3176
17377W        W32994  13.480  16.858   2.718 -0.1093 -0.0093  0.0492
17378W        W32995   8.054   2.869  10.719  0.0407  0.2142 -0.1484
17379W        W32996  14.203  17.642   0.874 -0.2147  0.0913 -0.1591
17380W        W32997   0.931   9.992  12.659  0.0330  0.1143 -0.0058
17381W        W32998  18.264  13.169   9.486 -0.0201 -0.0039  0.1127
17382W        W32999   2.050  15.685   2.403  0.2108 -0.0712 -0.0112
17383W        W33000   9.091   9.745   3.348  0.0922  0.0685  0.1175
17384W        W33001   1.789   3.659  13.192  0.1680  0.1525  0.4669
17385W        W33002  12.176  14.143   1.557  0.3161 -0.0093  0.0830
17386W        W33003   7.276   2.889  14.354 -0.0163  0.0713  0.1578
17387W        W33004  12.318  18.162   2.317  0.3619  0.0017  0.0024
17388W        W33005   4.644  18.007  15.045 -0.0008 -0.3485 -0.1504
17389W        W33006  13.439  17.644  13.967 -0.0790 -0.1811  0.3637
17390W        W33007  13.281   3.561   4.736  0.1201  0.1922  0.2859
17391W        W33008   3.005   3.132   0.078 -0.1262  0.0492 -0.0893
17392W        W33009  10.520   2.061  13.235  0.2317 -0.0260  0.0273
17393W        W33010  15.448  13.438   4.485 -0.1514 -0.1860  0.0646
17394W        W33011  11.596   9.329   5.040  0.0182 -0.4041  0.0769
17395W        W33012   6.401  18.432   3.232 -0.1886 -0.0363 -0.0416
17396W        W33013   0.502  17.494   9.828  0.1172  0.0207 -0.0872
17397W        W33014  13.910  10.305   5.483 -0.3718  0.0493 -0.0015
17398W        W33015   8.962   9.242  10.995  0.0816 -0.4997  0.0324
17399W        W33016   5.135  17.586  15.229 -0.2727 -0.2689 -0.0983
17400W        W33017  12.416   9.732  15.042 -0.0335  0.0575 -0.0602
17401W        W33018   8.270  14.161  11.032 -0.0088 -0.0995 -0.1763
17402W        W33019  10.550   5.540   2.952  0.0676  0.2618  0.0749
17403W        W33020   8.302  13.807   3.213 -0.1723 -0.0584 -0.0605
17404W        W33021   7.575  13.776   5.062  0.1977  0.1942 -0.0996
17405W        W33022   6.321  14.711   3.312  0.0961  0.0821  0.1023
17406W        W33023   0.210   7.374   1.915  0.1574 -0.4466  0.1569
17407W        W33024   9.416  17.274  11.984 -0.0938  0.2461 -0.0208
17408W        W33025   0.264  13.455   1.417 -0.0167 -0.0804 -0.1525
17409W        W33026   6.666   1.868  12.434 -0.1043  0.0199  0.1953
17410W        W33027  16.164   4.169  12.375  0.2895  0.2457 -0.2299
17411W        W33028   4.229   9.476   9.270 -0.0056  0.0756  0.0893
17412W        W33029   3.049  13.521  14.499 -0.0582 -0.0136 -0.2998
17413W        W33030   6.171   2.385  12.628  0.1397  0.0645  0.1242
17414W        W33031  11.432   3.926   0.599  0.0792 -0.3536  0.1491
17415W        W33032   9.383   4.451  13.093  0.1208  0.2796  0.2828
17416W        W33033   8.437   3.822   1.495 -0.0685 -0.2855 -0.1973
17417W        W33034   5.703  13.349  13.509  0.0533  0.1208  0.1234
17418W        W33035   3.883   3.367   0.642 -0.0906 -0.3128  0.2702
17419W        W33036   8.693   1.582  13.018  0.0392 -0.2825 -0.2045
17420W        W33037  14.936  11.056   3.368  0.1430 -0.0457 -0.1554
17421W        W33038   5.402   6.503   3.902 -0.3104  0.1509  0.2241
17422W        W33039   4.140  16.289  11.323 -0.4152 -0.2298 -0.3224
17423W        W33040   6.695  10.231   3.267  0.1310 -0.2013 -0.1646
17424W        W33041   3.323   5.704   5.050 -0.1776  0.2161  0.1018
17425W        W33042  12.037  10.965   1.636 -0.3921  0.2799 -0.0956
17426W        W33043   4.239   0.047   2.270 -0.0257  0.3486 -0.2225
17427W        W33044   5.681   2.033  11.353 -0.2444 -0.2185 -0.1217
17428W        W33045  18.522   6.365   4.373 -0.1306 -0.2968 -0.2603
17429W        W33046  11.561   4.911  13.621  0.0844 -0.0965 -0.1254
17430W        W33047   7.042  14.339   2.779  0.0433  0.1963  0.1301
17431W        W33048  15.142   5.979  12.857  0.1207 -0.2701  0.1290
17432W        W33049   2.242  14.558   3.025  0.2412 -0.4981  0.0261
17433W        W33050   4.560   0.375  12.919 -0.1559  0.1503 -0.1161
17434W        W33051   8.309  12.391  14.089 -0.1788  0.4024  0.0819
17435W        W33052  14.685  17.821   0.719  0.0557 -0.0145  0.0272
17436W        W33053   0.606   9.858   3.336 -0.3840  0.0013 -0.2691
17437W        W33054   0.343  16.563   1.066 -0.0352 -0.2210 -0.2110
17438W        W33055  11.087   6.868  12.179  0.1352  0.0089 -0.2054
17439W        W33056  10.619  15.145  13.085  0.0888  0.0104 -0.0774
17440W        W33057  11.062   2.003   3.662 -0.0814 -0.0743 -0.1130
17441W        W33058   7.961   2.464   5.134 -0.1594  0.1411  0.1131
17442W        W33059  14.409   0.107  14.581  0.2720  0.2122  0.3542
17443W        W33060  18.540   4.940   3.364  0.1582  0.1207  0.2989
17444W        W33061   9.725  12.583  12.603 -0.0594  0.2205 -0.1880
17445W        W33062   7.475   8.741  12.017  0.1315 -0.3150  0.1606
17446W        W33063  10.003  16.664   4.103 -0.3499  0.2249 -0.3362
17447W        W33064   7.077  13.438   4.094 -0.0440  0.1576 -0.0609
17448W        W33065  10.537  12.403   2.395  0.3101  0.0665 -0.1650
17449W        W33066  12.617  11.153  12.964 -0.0945  0.0617 -0.0288
17450W        W33067  17.689  16.031  11.454 -0.2248 -0.3802  0.2558
17451W        W33068   8.796   3.087   0.575  0.2741 -0.0562 -0.1686
17452W        W33069   9.192  17.905  14.845 -0.1786 -0.0270  0.2389
17453W        W33070  17.862  10.588  10.874  0.0260 -0.1825 -0.5100
17454W        W33071   3.694   4.611  13.022 -0.2819 -0.2701 -0.5391
17455W        W33072  16.936  18.648   5.756  0.2005 -0.1057  0.1665
17456W        W33073  16.196   7.267   4.018  0.0313 -0.2192  0.0721
17457W        W33074   9.986   2.674   2.231 -0.1749 -0.1698 -0.2607
17458W        W33075   4.551   6.984  14.722  0.0047 -0.5792 -0.0115
17459W        W33076   6.155   0.797   3.988  0.3542 -0.4146  0.2590
17460W        W33077  10.926  17.354   3.138 -0.1680 -0.1079 -0.1838
17461W        W33078  18.736   6.592  12.030  0.2847  0.1306 -0.2230
17462W        W33079   6.824   0.065   3.741  0.0888 -0.0397  0.1057
17463W        W33080  13.640  18.407  10.441 -0.1039 -0.0112  0.2345
17464W        W33081  14.842   4.217  10.685 -0.3395 -0.2977 -0.0203
17465W        W33082   2.359   7.861  10.718  0.3282 -0.0045 -0.2913
17466W        W33083   4.267   8.835  10.389 -0.0126  0.3247  0.0619
17467W        W33084  14.762   7.093  11.268 -0.3473 -0.0275  0.3134
17468W        W33085  15.248  17.160   4.951 -0.3207 -0.2381  0.0630
17469W        W33086  12.880   3.874  13.335  0.0981 -0.0501  0.0644
17470W        W33087   2.398   8.647   5.183  0.2314  0.0774 -0.0298
17471W        W33088  16.707   9.446   4.475  0.2197  0.1380  0.1963
17472W        W33089   2.407  14.516   1.286  0.1036  0.1660  0.0055
17473W        W33090   0.796   7.948   4.076 -0.3656  0.2696  0.0677
17474W        W33091  17.505   5.191   3.070  0.1133 -0.3178 -0.0254
17475W        W33092  13.887  12.503   1.591  0.0417 -0.1589 -0.0601
17476W        W33093  11.545  13.358  14.653  0.0712 -0.2538  0.1069
17477W        W33094  17.809   0.665  13.055  0.2151 -0.2551 -0.3069
17478W        W33095  16.073  18.437   0.388 -0.0953 -0.2735 -0.0671
17479W        W33096  13.804  11.450  14.034 -0.4149  0.4051 -0.0040
17480W        W33097   5.887   2.661   3.550 -0.0387 -0.1666 -0.0444
17481W        W33098  14.384  12.287   5.144 -0.1505 -0.1673 -0.5831
17482W        W33099   3.226   2.586  12.434  0.0168 -0.3106 -0.0506
17483W        W33100  17.088  12.296  12.614  0.2637  0.5546 -0.1196
17484W        W33101  16.093  11.118   0.783  0.1713  0.2060 -0.0415
17485W        W33102  11.188  12.875  12.598  0.1842 -0.1038  0.2208
17486W        W33103  15.485   7.240   4.930  0.0703 -0.2391 -0.0369
17487W        W33104   0.633  16.402  13.468 -0.2049  0.2019  0.0309
17488W        W33105   3.820   8.962  12.038  0.2175 -0.2067 -0.1249
17489W        W33106  15.786  12.412  11.323  0.0758 -0.0575 -0.2840
17490W        W33107  14.635   4.888  12.258  0.0463  0.1888  0.1757
17491W        W33108   7.038  16.235  14.330 -0.1610 -0.0029  0.0112
17492W        W33109  13.024  17.192  14.762 -0.1555 -0.0906  0.1106
17493W        W33110   8.545  16.971  10.064  0.2511  0.0496  0.2075
17494W        W33111   5.475   3.511  12.495  0.0607 -0.1708  0.3167
17495W        W33112   8.963   0.781  13.891 -0.2375 -0.1681 -0.3619
17496W        W33113  16.540   7.509   2.627  0.1110 -0.0600 -0.2479
17497W        W33114  17.377  17.282   5.501 -0.0132 -0.6442 -0.1582
17498W        W33115  17.104   5.778  13.686 -0.2221 -0.2692  0.0236
17499W        W33116   5.358   4.093   1.158 -0.3769 -0.0132 -0.4646
17500W        W33117   0.527   3.313  11.543 -0.0979 -0.0304  0.2220
17501W        W33118  14.239   0.407  13.402  0.1257 -0.0413 -0.0989
17502W        W33119  18.782  12.445   4.839 -0.2781 -0.1328  0.1091
17503W        W33120   0.063   6.079   1.425  0.1728 -0.4259 -0.0835
17504W        W33121  14.174   3.944  13.932 -0.2729  0.1197 -0.0955
17505W        W33122   9.647  18.128   2.058 -0.2144  0.2662 -0.1599
17506W        W33123   3.376  12.567   1.400  0.1516 -0.1802  0.4427
17507W        W33124  11.625   9.416  14.260 -0.3990  0.4767  0.1029
17508W        W33125   6.009  17.713  11.965  0.0328 -0.1271  0.0564
17509W        W33126  13.893   6.902   1.535 -0.2586  0.1771 -0.1794
17510W        W33127   5.239   4.100  14.039  0.1393 -0.1177  0.3253
17511W        W33128  13.994   4.146   1.377  0.2079  0.2074 -0.0294
17512W        W33129  13.281  12.498   2.567  0.3813 -0.1309  0.1027
17513W        W33130   9.606  11.793   1.499 -0.0102 -0.0568 -0.3676
17514W        W33131   0.945   0.432  10.937 -0.1260  0.0566  0.1356
17515W        W33132   1.460  15.178  10.090 -0.3369  0.3747  0.0354
17516W        W33133  15.951   1.485   1.254 -0.0237  0.1298  0.0421
17517W        W33134  10.766  10.496  10.555 -0.2274 -0.1557  0.1779
17518W        W33135   0.994  13.684   1.820 -0.1864  0.3259  0.0735
17519W        W33136   3.579   1.980  12.756 -0.0235  0.1308 -0.1345
17520W        W33137   8.669  11.292   2.406  0.3774  0.3362 -0.1012
17521W        W33138  13.454   5.072   3.510  0.3002  0.3062 -0.0496
17522W        W33139   6.168   8.662  12.310 -0.0251 -0.0690 -0.1296
17523W        W33140   1.823  14.169  12.994  0.2527 -0.1180  0.1777
17524W        W33141  14.632   7.800  14.794  0.3970  0.2436  0.1882
17525W        W33142   9.457  15.078   4.945  0.1647 -0.5133 -0.3151
17526W        W33143   2.596   7.935   1.139  0.2748 -0.1786  0.1096
17527W        W33144  17.438  16.189   4.458  0.0044  0.0079  0.2223
17528W        W33145   0.456  12.862  12.817 -0.2354  0.1155 -0.0338
17529W        W33146   1.744  18.212   5.142  0.0257 -0.1758 -0.2399
17530W        W33147   7.641   0.346   2.607 -0.1090 -0.0492 -0.0545
17531W        W33148   9.638  12.976   2.804 -0.0443  0.0769 -0.1952
17532W        W33149  13.603   8.309   3.341 -0.0714 -0.1453 -0.1898
17533W        W33150   6.697  17.469   2.519 -0.1132  0.4081  0.1692
17534W        W33151   2.124   1.457  13.831  0.2280  0.2046 -0.0787
17535W        W33152  17.477   3.260  13.477  0.1441 -0.0555  0.3772
17536W        W33153   7.818   6.123  15.247 -0.2889  0.0603  0.2813
17537W        W33154   6.453   6.327  12.963 -0.0604  0.0734  0.1375
17538W        W33155  14.009   8.251   9.191  0.2693 -0.0640 -0.0301
17539W        W33156  12.110   9.567  14.583  0.0852 -0.0752 -0.1699
17540W        W33157   9.218   8.346  14.118 -0.0363 -0.0526 -0.4592
17541W        W33158   9.826  14.253   2.160  0.1250 -0.0042  0.0259
17542W        W33159  16.514   9.724   1.845  0.0241  0.2978 -0.1703
17543W        W33160   4.202  10.714  11.245  0.1407  0.0091 -0.1756
17544W        W33161  17.214   9.349  14.908 -0.1326 -0.0431  0.1409
17545W        W33162  11.661  18.855   2.819  0.0018  0.0146 -0.1194
17546W        W33163   7.675   5.982   2.601  0.0812  0.0094 -0.0783
17547W        W33164  13.546  10.857   4.005 -0.3577  0.0808  0.2209
17548W        W33165   9.031   9.041  10.001 -0.0304  0.3758 -0.4389
17549W        W33166   0.057   5.534  11.524  0.1384 -0.0163  0.2979
17550W        W33167   5.458  15.093   1.794  0.2212  0.0983 -0.3635
17551W        W33168  18.948  14.152   2.327 -0.1655 -0.2428 -0.0374
17552W        W33169   7.086   3.445   1.231  0.0221  0.0057  0.0804
17553W        W33170   7.896   2.733  14.785  0.0652 -0.0451  0.1578
17554W        W33171  14.152  14.406   4.331  0.2551  0.1621 -0.1773
17555W        W33172   4.027   5.511   0.105 -0.0181  0.3766 -0.1553
17556W        W33173   0.989  16.813   5.096 -0.3462  0.0499  0.4254
17557W        W33174  18.587  16.242  11.965  0.1969  0.0559 -0.0293
17558W        W33175  13.933   4.499   4.498 -0.0059  0.1713  0.1490
17559W        W33176  10.279  14.909   5.838 -0.0434  0.1428 -0.3407
17560W        W33177  18.085   1.017   4.388  0.0398 -0.3282 -0.1293
17561W        W33178   5.452   7.056   0.730 -0.1131 -0.2337  0.2543
17562W        W33179   4.855  13.690   0.203  0.1409  0.1960  0.0310
17563W        W33180   8.997  17.450   0.471 -0.0489 -0.1236  0.0872
17564W        W33181  16.170  17.365   1.537  0.0707 -0.0563  0.0232
17565W        W33182  14.771   0.800  12.099  0.2186 -0.1498  0.0125
17566W        W33183   9.363  11.393   2.925  0.0566 -0.2213  0.0632
17567W        W33184   5.650  18.027   2.037 -0.2493 -0.0279  0.1393
17568W        W33185  15.368   1.897  12.182 -0.0466 -0.0492  0.0927
17569W        W33186  13.115  17.427   4.058  0.0162  0.2097  0.2169
17570W        W33187   8.246   4.146  14.873 -0.1426 -0.0350  0.1945
17571W        W33188   9.837   2.939  11.442 -0.0407 -0.3825  0.3100
17572W        W33189   9.140   7.589   4.349 -0.0946  0.0383  0.1136
17573W        W33190   5.414   2.195   0.326 -0.3735 -0.0125  0.2310
17574W        W33191  12.790  15.621   3.755 -0.0082 -0.0332  0.1244
17575W        W33192  13.436  17.176   0.569 -0.0666 -0.0932  0.1412
17576W        W33193  13.681  14.155  11.040  0.1947 -0.2428  0.3203
17577W        W33194   9.239   7.037  10.605 -0.0494 -0.2253 -0.1122
17578W        W33195  18.134  11.077  13.524  0.1188 -0.0966 -0.3281
17579W        W33196  11.155   1.232  13.936  0.3763 -0.3462 -0.1362
17580W        W33197   4.922   8.551   0.923  0.2670  0.0702  0.1760
17581W        W33198  10.160   0.534   3.790  0.3006  0.0742 -0.0084
17582W        W33199   5.220   0.316   0.669 -0.1141 -0.1336 -0.1303
17583W        W33200  14.702  16.162  14.184  0.0931 -0.0076 -0.1078
17584W        W33201   8.853   3.757   3.968  0.0997  0.0803 -0.2930
17585W        W33202   3.634   1.428  14.074  0.1728 -0.1511 -0.1005
17586W        W33203  10.196   9.995   3.739 -0.0937 -0.0779 -0.1982
17587W        W33204  15.842   9.996  13.445  0.0526  0.2756  0.0887
17588W        W33205   0.874   7.325   9.578  0.1179  0.0855 -0.0625
17589W        W33206  16.971   0.048  15.176 -0.3128 -0.0187 -0.1712
17590W        W33207   9.436  13.822  13.063 -0.1638 -0.0625 -0.2201
17591W        W33208   6.449   1.101  15.120 -0.0100  0.1391 -0.1449
17592W        W33209  16.701  17.769  10.248  0.2385 -0.1863 -0.0363
17593W        W33210   3.484  17.184  10.870 -0.2235  0.0618  0.0079
17594W        W33211   1.310  11.332   4.699  0.0932 -0.0797  0.0787
17595W        W33212   3.385  11.904   2.228  0.1370 -0.0188 -0.3579
17596W        W33213  12.364  18.011  14.664 -0.1232 -0.1562  0.4346
17597W        W33214  16.262   2.494   0.255  0.2686 -0.1807  0.1250
17598W        W33215   0.972   8.513   1.743 -0.0354 -0.0448  0.1683
17599W        W33216  17.916  11.736   2.035  0.2771 -0.1038 -0.0867
17600W        W33217   0.678  17.280   5.072  0.0860 -0.2379 -0.1314
17601W        W33218  10.760  15.427  13.446 -0.0013 -0.0405 -0.0703
17602W        W33219  15.269  14.312   1.169 -0.0980 -0.2091  0.0500
17603W        W33220  12.615  10.281   2.355 -0.1209  0.3753  0.2793
17604W        W33221   0.206  14.919  10.928  0.0291  0.1322  0.5452
17605W        W33222  11.180  13.860   2.379 -0.1513  0.0060 -0.3297
17606W        W33223   4.185   9.094   4.171  0.2477  0.0076  0.2170
17607W        W33224  17.595   4.301   1.564  0.2394  0.0850 -0.0679
17608W        W33225   3.411   0.731  12.082  0.1574 -0.2169 -0.0986
17609W        W33226  17.665  18.994   2.378  0.3634  0.1629 -0.0601
17610W        W33227   4.895  10.018  13.791 -0.1290  0.1234 -0.2190
17611W        W33228   4.888  16.509  13.765  0.2996 -0.0500  0.2748
17612W        W33229  15.914  15.444  14.619  0.0824 -0.0539  0.0187
17613W        W33230   5.243   3.770  13.051 -0.0618 -0.0563 -0.0842
17614W        W33231  18.293  13.642  13.968 -0.2736  0.3034 -0.1735
17615W        W33232   5.536  12.095   2.382 -0.0716  0.3156 -0.1129
17616W        W33233   5.224   1.038  10.364 -0.1863 -0.1409  0.1510
17617W        W33234  14.114   4.823   0.483 -0.0226  0.0505 -0.2457
17618W        W33235   1.011   4.122  12.168 -0.1671 -0.1521  0.1893
17619W        W33236  15.800   4.205  12.012 -0.1723 -0.0154  0.0289
17620W        W33237  15.581   7.348   3.133  0.0783 -0.1279 -0.2217
17621W        W33238  10.007   4.030  13.120  0.2630  0.1551 -0.0742
17622W        W33239   9.590  14.248  12.392  0.0167  0.1700  0.2634
17623W        W33240   5.904  12.610   0.367  0.0978 -0.2366  0.0514
17624W        W33241  15.875   7.977  13.961 -0.2421 -0.1015 -0.1365
17625W        W33242   4.317  13.191  10.388 -0.1278 -0.0639  0.1716
17626W        W33243  15.945   3.340  15.012 -0.0167 -0.2203 -0.1616
17627W        W33244  19.064   4.489   1.364  0.1556  0.3782 -0.0911
17628W        W33245   2.886   9.295   2.807  0.2647 -0.0322  0.1244
17629W        W33246   6.165  12.536   1.582 -0.0231  0.4168 -0.2066
17630W        W33247  13.843   9.649   9.593 -0.0013 -0.1973 -0.1413
17631W        W33248  13.158  10.334   5.115  0.0224  0.3666 -0.4346
17632W        W33249   1.232   1.219  12.867 -0.1641 -0.3614 -0.1537
17633W        W33250   0.830  13.875  13.198 -0.2167  0.3529 -0.3620
17634W        W33251   3.833  13.715  11.980  0.1222  0.2407  0.1074
17635W        W33252   0.546   0.390  14.969  0.1267 -0.0410  0.0615
17636W        W33253  14.281   1.781  15.231  0.1501  0.1333  0.1767
17637W        W33254   3.117  13.309   4.085  0.2354 -0.2895 -0.4501
17638W        W33255  14.123   4.566   1.119 -0.0727  0.1312  0.0873
17639W        W33256  12.774  14.044  10.765  0.3095  0.3838  0.1477
17640W        W33257   0.848   4.743  12.179 -0.1856  0.3222 -0.0312
17641W        W33258   0.462   1.522  11.769 -0.0453 -0.1934 -0.1515
17642W        W33259  13.012  10.036   0.517  0.4881  0.3324  0.1679
17643W        W33260  14.233  15.337  11.651  0.0781 -0.1823 -0.0158
17644W        W33261   1.505  11.551  11.610 -0.1670 -0.0697 -0.3109
17645W        W33262   1.940  11.087   3.082 -0.5423 -0.1642 -0.1959
17646W        W33263   6.515  13.985   1.802  0.0130 -0.3080  0.1007
17647W        W33264  13.758   0.928  14.068 -0.1397 -0.3229  0.0302
17648W        W33265   4.304  15.968  10.936 -0.3955  0.1133 -0.0643
17649W        W33266   0.930   5.871  14.997  0.1844  0.1451  0.1190
17650W        W33267   5.021   2.595   4.022  0.2397 -0.0190  0.6193
17651W        W33268  16.153   9.785   4.595 -0.1308  0.0939 -0.0988
17652W        W33269   3.644   0.771   4.159 -0.1886 -0.0437 -0.1976
17653W        W33270   9.747   0.099  14.515  0.1567  0.1375  0.4012
17654W        W33271   2.509  18.255  14.263 -0.2734  0.3116  0.0336
17655W        W33272   7.392   7.204   2.027  0.1268  0.2146 -0.1092
17656W        W33273   6.591   5.516   3.026 -0.1150 -0.1056 -0.0326
17657W        W33274   1.265   5.539   1.212  0.1295 -0.0814 -0.1244
17658W        W33275  10.242   3.620   1.097  0.0088 -0.0972 -0.0590
17659W        W33276  14.266   6.047  13.709 -0.0826  0.2067 -0.2332
17660W        W33277   6.757   1.905   0.384  0.2005 -0.4013  0.1201
17661W        W33278   3.003  18.042  10.854 -0.2514  0.3804 -0.1717
17662W        W33279   2.880   0.355  10.953  0.5280 -0.0530  0.1235
17663W        W33280  10.260   6.030   5.619  0.2469  0.0065  0.0129
17664W        W33281  18.230   0.169   4.429  0.2402  0.2829 -0.1073
17665W        W33282   3.413   6.605  11.757  0.1585  0.1589 -0.0330
17666W        W33283   5.909   1.363   5.386  0.1989 -0.0004  0.1996
17667W        W33284  13.917   6.931  12.722  0.1269  0.0796 -0.0381
17668W        W33285  13.256  16.338  13.498  0.2986  0.4756  0.0984
17669W        W33286  12.418  12.184   2.916 -0.2870 -0.2352  0.2074
17670W        W33287  13.193   8.105  13.721 -0.1412  0.3029 -0.2998
17671W        W33288   0.111  17.673   1.840  0.1298  0.1019  0.1319
17672W        W33289   0.492  15.333  11.962  0.0011 -0.2971  0.1836
17673W        W33290   4.276   3.886   4.816  0.0133 -0.2946 -0.3911
17674W        W33291   3.227  14.504  14.881  0.2429  0.4151  0.0173
17675W        W33292  17.781  11.390  15.106 -0.0408  0.2366  0.2477
17676W        W33293  17.529  17.717   1.418  0.0549 -0.2368  0.0511
17677W        W33294  10.262  12.542   2.021 -0.1710  0.0032 -0.1516
17678W        W33295   9.383   1.802  11.565 -0.1265  0.2833  0.1783
17679W        W33296  10.521  15.376  11.103 -0.1110 -0.0375 -0.0806
17680W        W33297  14.606   8.375  11.582 -0.3040  0.0738  0.0764
17681W        W33298   9.238  16.820   3.944  0.3477 -0.1050  0.0655
17682W        W33299   6.914  14.476   0.530 -0.0473 -0.0516 -0.1224
17683W        W33300   7.899  13.786  11.704 -0.0114 -0.2348  0.2115
17684W        W33301   9.527  16.249  14.159 -0.1717 -0.1234  0.1861
17685W        W33302   1.874  18.713  12.843  0.0883 -0.2390 -0.0576
17686W        W33303  17.023   7.017   9.381  0.1041  0.1034 -0.2398
17687W        W33304   6.733  18.471   4.390 -0.1415 -0.0112 -0.3952
17688W        W33305  12.449   8.393  11.904 -0.0754 -0.0131 -0.0011
17689W        W33306  17.177   3.711   1.478  0.1545 -0.0120 -0.0632
17690W        W33307  10.831  16.840   0.330 -0.2962  0.2106  0.0815
17691W        W33308  19.078  17.236   1.577 -0.1008  0.3987  0.0973
17692W        W33309   3.997  12.056  15.053 -0.4096  0.0892  0.2724
17693W        W33310  15.368   8.121  14.289 -0.2821 -0.1278 -0.0962
17694W        W33311  19.066  17.175   2.418  0.2466 -0.0323  0.1851
17695W        W33312  11.557   4.911  13.058 -0.1860 -0.1235  0.2349
17696W        W33313  19.066   5.901   4.037  0.3080  0.0900 -0.2613
17697W        W33314  15.032   8.487   4.583 -0.1817 -0.0497  0.2474
17698W        W33315   4.725  18.598   1.056  0.1089 -0.2506 -0.1324
17699W        W33316   9.805  10.780  13.958  0.0509 -0.0482 -0.0960
17700W        W33317  17.810  14.271   1.572  0.1659 -0.1954 -0.0340
17701W        W33318  10.606  10.753  11.413 -0.1167  0.1037 -0.1304
17702W        W33319   9.788   5.474   9.896 -0.5292  0.2090  0.1197
17703W        W33320  11.502   7.277   1.512  0.2078  0.1208  0.3333
17704W        W33321   0.364   0.215   5.576 -0.2312 -0.1520 -0.1237
17705W        W33322   1.263   0.140  14.162  0.0459 -0.0513 -0.0174
17706W        W33323   3.092   8.166   1.761 -0.0954 -0.0092  0.0915
17707W        W33324  11.135   5.628  11.871 -0.0566  0.1668 -0.1966
17708W        W33325  14.648   7.004   0.939  0.0460 -0.0478 -0.1912
17709W        W33326  10.641  14.337  11.012  0.0753  0.0486 -0.3687
17710W        W33327  11.725   1.201   3.839 -0.0885  0.6079 -0.4394
17711W        W33328  11.343  17.658  12.316 -0.0766 -0.0745  0.0892
17712W        W33329   3.524  18.806   0.439 -0.2060 -0.0291 -0.1558
17713W        W33330   0.717  12.808  13.231 -0.0032 -0.0119  0.0330
17714W        W33331   3.119  18.163  14.626  0.1328 -0.1906 -0.0015
17715W        W33332  17.920   4.110  13.824  0.1360  0.0597  0.1029
17716W        W33333   9.886   1.766   3.608  0.2683 -0.3480 -0.0538
17717W        W33334   2.174   1.359  15.128  0.2036  0.2233  0.0577
17718W        W33335   0.408   6.110  13.558  0.1326 -0.0535  0.0649
17719W        W33336   4.918   2.548  14.393  0.0898  0.1636 -0.1064
17720W        W33337   8.184  16.662   0.990 -0.1070  0.2129  0.1131
17721W        W33338   6.966  14.351  11.192 -0.2417  0.3599 -0.0190
17722W        W33339   4.329   7.340  14.320  0.1140 -0.0475 -0.1320
17723W        W33340   0.430   4.476   0.373 -0.0484  0.2416  0.2270
17724W        W33341   0.470   0.910  14.985 -0.1217 -0.0862 -0.3257
17725W        W33342   0.771  11.284  14.278  0.0520  0.0010  0.1039
17726W        W33343  11.185  15.295  14.812 -0.0561 -0.1570 -0.1044
17727W        W33344   2.079  18.430   9.509  0.1935 -0.0050  0.1284
17728W        W33345  17.447  15.819   2.196 -0.2197 -0.0112 -0.1778
17729W        W33346  11.867   7.914   2.890  0.3089  0.1283  0.0453
17730W        W33347  16.133  10.053  15.164 -0.1454 -0.2943 -0.0184
17731W        W33348   2.409   1.012   2.505 -0.3837 -0.0246  0.0799
17732W        W33349  11.740   9.064   2.236  0.0903  0.2310 -0.1374
17733W        W33350   2.687  15.079  14.354 -0.3550  0.0141  0.0435
17734W        W33351   5.138   2.045   3.280 -0.2555  0.0874 -0.1275
17735W        W33352  12.287  11.990  11.311 -0.2392 -0.0632  0.3075
17736W        W33353  10.942   0.141  11.492  0.0712 -0.1751  0.0179
17737W        W33354  16.098   1.141   0.013  0.0353  0.0618  0.1109
17738W        W33355  18.070  16.789   3.402  0.1252 -0.2894  0.0600
17739W        W33356   1.854  16.596  11.773 -0.0483  0.4706  0.2413
17740W        W33357   6.934  18.053   0.034 -0.0687 -0.1429 -0.0183
17741W        W33358   4.747   6.552  11.339 -0.0424 -0.2326  0.2123
17742W        W33359  12.921   1.596  13.064  0.0287 -0.1608 -0.1962
17743W        W33360  16.123  13.714   9.419  0.2147 -0.4257  0.1129
17744W        W33361  14.416  12.287  11.996 -0.1072 -0.1014  0.2729
17745W        W33362   2.650  13.590   3.471 -0.1985  0.0927  0.1756
17746W        W33363   9.049   9.152   2.558  0.1284  0.1520  0.3172
17747W        W33364   0.271  12.435   2.701  0.1623  0.1607  0.0592
17748W        W33365  14.312   9.644   4.416  0.0682 -0.2784  0.6040
17749W        W33366  17.027   3.053  13.597  0.1257  0.4299  0.1995
17750W        W33367   9.048   1.130  12.935 -0.2182  0.2054  0.1587
17751W        W33368  11.664  11.961  14.310 -0.1175  0.1216  0.0098
17752W        W33369  17.777  11.470  13.501  0.0589 -0.1331  0.1852
17753W        W33370   5.073  13.585   4.083  0.0619 -0.1574 -0.0119
17754W        W33371  13.689  11.488  10.521  0.0434  0.3560  0.0020
17755W        W33372  15.013   1.260   2.939 -0.1770 -0.3471  0.1867
17756W        W33373  18.540   3.017  15.090  0.1986  0.1809  0.2690
17757W        W33374  12.436  18.059   3.646  0.2230  0.1877 -0.3142
17758W        W33375   4.127  18.870   1.481 -0.0338  0.0122  0.3932
17759W        W33376   9.316  16.589  10.654  0.1318 -0.0666 -0.0005
17760W        W33377  17.411  14.809  11.530  0.1631  0.1919  0.1590
17761W        W33378  15.027  11.895  15.271 -0.1581 -0.0523 -0.2812
17762W        W33379  11.498  15.658   4.838 -0.4851 -0.0651 -0.1156
17763W        W33380   9.963   9.886   0.590  0.1630  0.2745  0.0247
17764W        W33381   0.611  12.147   2.105  0.0895  0.0640 -0.1174
17765W        W33382  11.338  14.992  15.142  0.0797 -0.3434 -0.1856
17766W        W33383  13.546  12.432   4.053 -0.0563  0.1141 -0.0119
17767W        W33384  15.462   2.597   3.881  0.1399  0.2570 -0.0353
17768W        W33385  15.083   4.462   0.716  0.3160  0.1622  0.0118
17769W        W33386   7.640  13.125  14.903  0.2077 -0.2207  0.3458
17770W        W33387  14.649  12.757  13.255 -0.1746  0.6376 -0.1816
17771W        W33388   8.646   1.928   4.131 -0.0589  0.2378 -0.1361
17772W        W33389   3.731   3.023  15.175 -0.3757  0.3994  0.3649
17773W        W33390   5.274   0.773  11.356  0.1715 -0.0940 -0.1585
17774W        W33391  17.485   6.684   1.078  0.2017  0.0896  0.1628
17775W        W33392   8.655  11.943  11.921 -0.3924  0.3768  0.0273
17776W        W33393  12.843  18.502  14.266 -0.2278  0.0523  0.1850
17777W        W33394   0.509  12.004  13.411  0.2173  0.3700  0.2811
17778W        W33395   0.359  10.468   5.128  0.0606  0.0202 -0.0347
17779W        W33396  18.419   9.380  11.043 -0.1526  0.0330  0.0945
17780W        W33397   4.324   0.220  12.494  0.0609  0.1908 -0.1403
17781W        W33398   2.486  11.243  14.037  0.0048 -0.0994  0.1891
17782W        W33399  13.949   4.328   5.014 -0.2057 -0.1849 -0.1978
17783W        W33400   2.391   3.915  13.230 -0.1881  0.0069  0.0220
17784W        W33401  10.175  18.731   3.695  0.1114  0.0361  0.4456
17785W        W33402  10.398  11.413  14.674 -0.2385 -0.0266  0.0728
17786W        W33403  13.695   1.971  13.648 -0.1240 -0.3761 -0.1615
17787W        W33404  12.902   7.410  15.064 -0.0917 -0.2038  0.0689
17788W        W33405  17.057  11.012   3.953  0.0574  0.0126  0.0493
17789W        W33406   9.901   6.636  11.160  0.5104  0.1599 -0.2210
17790W        W33407   2.602  11.869  14.189 -0.1481  0.0092 -0.1240
17791W        W33408   5.521   7.822   3.124  0.0031  0.2524 -0.2319
17792W        W33409  11.007   2.150  11.390  0.2014  0.0172  0.1013
17793W        W33410   8.890   9.637   1.374 -0.0009 -0.2497 -0.1409
17794W        W33411   6.313   2.154  14.574  0.1730  0.2249  0.1166
17795W        W33412   2.139   5.105  14.545  0.2412  0.1717 -0.0430
17796W        W33413   6.476   1.500   0.683  0.0728  0.3237 -0.0729
17797W        W33414  12.371  10.360  13.383  0.4666 -0.0758 -0.3190
17798W        W33415   4.424  14.204   3.146 -0.1492 -0.2331 -0.2871
17799W        W33416   4.626   7.713  14.007 -0.0220 -0.0879  0.2993
17800W        W33417  14.399   4.374   4.232 -0.2031  0.1440 -0.0554
17801W        W33418   2.803   4.453  12.467 -0.0527  0.3495  0.1667
17802W        W33419  10.111   6.991  11.396  0.1234  0.1030  0.2314
17803W        W33420  11.587   8.076   0.967  0.1041 -0.1070 -0.0689
17804W        W33421   3.102   0.624   0.832  0.0108  0.0865  0.0697
17805W        W33422   5.029   7.990  14.362 -0.3386  0.2029  0.0322
17806W        W33423   5.176   3.002   0.553 -0.0285  0.2144  0.2350
17807W        W33424   1.960   3.182   4.323 -0.2315  0.0782  0.1296
17808W        W33425  11.409   3.466  11.403 -0.0157 -0.3106  0.0026
17809W        W33426  15.535  15.084   3.673  0.0140 -0.1357 -0.0839
17810W        W33427   7.637   0.583  11.753  0.2728 -0.1593  0.1024
17811W        W33428  13.385  14.463   1.334  0.1901  0.0045  0.0530
17812W        W33429  17.546   6.250  11.568 -0.0580  0.0305 -0.1936
17813W        W33430   9.531   1.307   3.576  0.0549 -0.1221  0.0211
17814W        W33431   3.224  18.464   2.363  0.1142 -0.0286  0.0454
17815W        W33432   1.241  17.097  13.719 -0.3217  0.1331 -0.1662
17816W        W33433  18.091   2.576  11.184  0.0847 -0.2852  0.3082
17817W        W33434   1.300  16.529   0.033 -0.0831  0.1654  0.0634
17818W        W33435  10.312   8.068  12.323  0.0501  0.0517  0.3285
17819W        W33436   2.512  17.372  10.708 -0.0931 -0.1870 -0.3408
17820W        W33437  17.073   5.939   3.814  0.3011 -0.0200 -0.3737
17821W        W33438   0.893   1.852   4.059 -0.1622 -0.1419 -0.1235
17822W        W33439  18.050   4.856  14.515  0.4501  0.0904 -0.0518
17823W        W33440   3.526  13.761  14.565  0.2473 -0.1468  0.0266
17824W        W33441   2.334  14.358  12.251  0.2185  0.2823  0.0281
17825W        W33442  18.023   7.330  12.373 -0.0490 -0.1487  0.0056
17826W        W33443  12.968   0.230   4.742 -0.1530 -0.2908  0.0265
17827W        W33444   2.253  17.382  13.007  0.1823  0.0962 -0.1467
17828W        W33445   5.517  12.031   4.159 -0.2303 -0.1681  0.0521
17829W        W33446  10.174   5.450   1.198 -0.1232 -0.0406 -0.2290
17830W        W33447   8.395  13.254  11.165 -0.2768 -0.0928  0.2826
17831W        W33448   1.120   3.259   0.791  0.1610 -0.0578 -0.0130
17832W        W33449  17.048   7.011  11.134 -0.1839 -0.2963  0.0169
17833W        W33450   5.104  13.250   4.853  0.2189 -0.1688  0.0834
17834W        W33451   2.548   1.570  11.478 -0.0289  0.1654 -0.1300
17835W        W33452   3.355   1.320  13.336 -0.2020  0.1177  0.3244
17836W        W33453  15.388   4.226  10.813  0.0875  0.1692 -0.0310
17837W        W33454  16.839   9.890  12.560 -0.0288  0.0488  0.0258
17838W        W33455  15.611   1.532  12.535 -0.2493  0.0444  0.1756
17839W        W33456   6.621   7.944   1.066 -0.1211  0.0279  0.2068
17840W        W33457  11.380   0.072   4.311 -0.0638  0.1235  0.4927
17841W        W33458  11.995  13.269   0.602  0.1719 -0.0377  0.1386
17842W        W33459   4.791  11.303  12.298 -0.0453 -0.2691 -0.0154
17843W        W33460   1.525   7.435   0.156  0.0581 -0.1443 -0.0679
17844W        W33461  11.325  17.876   2.337 -0.1597 -0.0207 -0.0391
17845W        W33462   5.339   2.384  11.533  0.1868 -0.1225  0.1087
17846W        W33463   4.988  11.809   0.312  0.2062 -0.0511  0.0583
17847W        W33464   8.057   5.917  13.991  0.0503  0.0316  0.0101
17848W        W33465  15.009  10.131   5.343  0.2533  0.1647  0.1562
17849W        W33466  18.905  16.612  13.298  0.1772  0.2748  0.1702
17850W        W33467  13.128  13.227   4.760 -0.0910 -0.0449 -0.4510
17851W        W33468  16.214  10.415   5.215  0.0881 -0.2895 -0.0644
17852W        W33469  16.261   1.280   3.324  0.0624 -0.1584 -0.2867
17853W        W33470  10.418  18.743   2.395 -0.2401  0.0076  0.3495
17854W        W33471   8.217   8.575  12.659 -0.0039 -0.6053 -0.2193
17855W        W33472   6.547   0.939   3.055  0.1426  0.0301  0.0400
17856W        W33473  18.521  16.522   0.808  0.0596 -0.1160 -0.1927
17857W        W33474   9.892   8.776  11.656 -0.2637 -0.0090 -0.0856
17858W        W33475   9.251  15.373  14.350 -0.0811  0.2192  0.2317
17859W        W33476   3.301  14.320  13.025  0.0284  0.0001  0.0683
17860W        W33477   9.549  16.353   2.828  0.4621  0.2881  0.0881
17861W        W33478   4.042   3.454  12.878  0.0438  0.2338 -0.0589
17862W        W33479   2.843   9.307  11.610  0.0103 -0.1854  0.3243
17863W        W33480  13.002   7.385   0.293  0.0937 -0.0458 -0.0651
17864W        W33481   1.545   1.390   3.532 -0.0106 -0.0264 -0.0149
17865W        W33482  18.319  10.146   1.283 -0.4569 -0.1206 -0.1158
17866W        W33483   6.595  14.430  15.087 -0.1088  0.0466  0.1554
17867W        W33484   9.237   3.490   0.099  0.0438  0.2116  0.2244
17868W        W33485  10.159  15.563  11.387 -0.2715 -0.1412  0.3208
17869W        W33486  16.464   4.464  12.718 -0.0737  0.2667 -0.1002
17870W        W33487  18.785   4.952   0.317 -0.1884  0.3992  0.1665
17871W        W33488  17.172   4.173  12.318  0.1441 -0.0728  0.3121
17872W        W33489   0.050   0.420   2.966  0.1759  0.2348  0.2919
17873W        W33490   4.603   0.482  14.553  0.0672  0.1591 -0.0467
17874W        W33491   8.315   7.916   1.361 -0.0907  0.0492  0.0027
17875W        W33492   3.387  10.214  11.505 -0.1251 -0.3855 -0.0644
17876W        W33493  17.632  12.275   0.795  0.1713 -0.3083 -0.1313
17877W        W33494   9.090   3.422  11.812  0.3666 -0.0243 -0.2159
17878W        W33495  15.183  14.179  15.232  0.0413 -0.1120  0.3388
17879W        W33496  18.080   0.485   0.450 -0.1669  0.0437 -0.5155
17880W        W33497  13.468   6.318   1.871  0.0387  0.2554 -0.0082
17881W        W33498   8.445   5.960   4.328 -0.0509 -0.2126 -0.3353
17882W        W33499  13.596  13.221   5.633 -0.2065 -0.0166 -0.2021
17883W        W33500   6.896  10.209   4.033 -0.3896  0.3744 -0.5519
17884W        W33501  10.891   5.427  11.489 -0.0369  0.2872 -0.2225
17885W        W33502   9.543   2.101   1.495  0.3314  0.0243  0.1515
17886W        W33503   1.611   6.462   3.717 -0.3521 -0.0922 -0.2118
17887W        W33504   3.708  15.935  14.900 -0.2536 -0.0577 -0.0454
17888W        W33505  16.868  12.566  11.064  0.2612 -0.5281 -0.1685
17889W        W33506  17.909   4.596   5.425 -0.0119  0.1034 -0.1846
17890W        W33507   4.461   8.964  13.279 -0.0019  0.0494 -0.3108
17891W        W33508   3.075   7.046   3.789  0.0090  0.2041  0.2307
17892W        W33509  10.253  15.043  11.451  0.2727 -0.3079 -0.1795
17893W        W33510   5.651   1.733   1.732  0.1506 -0.0663 -0.1312
17894W        W33511   4.081  14.416   2.795  0.2067  0.0604 -0.1138
17895W        W33512  16.626  14.180   4.852  0.0631  0.1014  0.0020
17896W        W33513   3.897  15.619  11.804 -0.0412  0.0278  0.0998
17897W        W33514   3.266  18.254   0.446  0.2896  0.2246  0.0225
17898W        W33515  14.099   2.524  11.577  0.0577 -0.3147  0.0798
17899W        W33516  19.048  13.679   3.957 -0.0333 -0.0812  0.2217
17900W        W33517  17.717  18.611   4.635 -0.2008  0.1616  0.0317
17901W        W33518   3.688   6.718   0.289 -0.1684 -0.0327  0.2628
17902W        W33519  13.417   2.106   0.541  0.2267 -0.2718  0.2960
17903W        W33520  18.176   2.490   0.581 -0.1181  0.3794  0.1903
17904W        W33521   3.327  12.953   2.365 -0.2974  0.1611  0.1565
17905W        W33522   2.588  13.014   0.150 -0.0483 -0.4620 -0.2086
17906W        W33523   4.698  10.515  14.961 -0.1501  0.1107 -0.1557
17907W        W33524   9.262  13.101   3.693  0.0169  0.0828 -0.0042
17908W        W33525  12.356   2.818   0.142 -0.2136  0.1700 -0.2294
17909W        W33526  11.244   2.585   2.409  0.1614 -0.0323 -0.0072
17910W        W33527  18.562   9.571  12.581  0.1046  0.1437  0.2388
17911W        W33528  17.634  16.229   0.119 -0.2389 -0.2634  0.1463
17912W        W33529   6.628  13.621   4.538 -0.3818 -0.2338 -0.1720
17913W        W33530  11.396   2.343  11.684  0.2035 -0.2839  0.0744
17914W        W33531   6.526  17.544   3.665 -0.0265 -0.1393  0.0290
17915W        W33532  11.556   5.163   1.590 -0.1506  0.1154 -0.2500
17916W        W33533   0.556   0.786  12.528  0.0974 -0.1574 -0.0366
17917W        W33534  18.935   0.752  10.959 -0.1002  0.3160 -0.0497
17918W        W33535   9.225  18.910  13.803 -0.1115 -0.0785  0.3183
17919W        W33536  16.250  13.078   0.877 -0.0993 -0.3258  0.0905
17920W        W33537   9.307  19.015  14.519  0.4074 -0.0509  0.0692
17921W        W33538   8.459   1.330   0.097  0.0270  0.2061  0.1978
17922W        W33539   4.662   1.794   2.966  0.0682 -0.2051  0.1988
17923W        W33540   8.650  13.724  14.322 -0.3805  0.1110 -0.3063
17924W        W33541   1.038  13.652  14.674 -0.0459 -0.0219  0.0351
17925W        W33542   5.013   8.720   4.312  0.0492  0.0162  0.1467
17926W        W33543   7.253   8.836  11.501 -0.2067  0.1811 -0.2037
17927W        W33544   7.412   3.080  14.839 -0.0205 -0.0384  0.3912
17928W        W33545  17.720   7.177  11.002  0.0642 -0.2319  0.2616
17929W        W33546  16.093  18.491   4.105  0.2058  0.3584 -0.1802
17930W        W33547   9.993  13.198  11.461  0.2222  0.2359 -0.1511
17931W        W33548  16.616  15.754   1.667  0.1052  0.0734 -0.1267
17932W        W33549  10.181   9.144  13.575  0.0458 -0.0222  0.1339
17933W        W33550   7.715   2.559   5.714  0.1231 -0.1090 -0.2668
17934W        W33551  10.771  10.947  14.209  0.1929 -0.2442 -0.3371
17935W        W33552  13.039   3.005  11.527  0.1849  0.3074 -0.1705
17936W        W33553   1.695   4.754  15.132  0.2009 -0.1390 -0.1836
17937W        W33554   5.361   3.106   2.849 -0.0802 -0.1983 -0.1946
17938W        W33555  12.601  10.530   2.758  0.0525 -0.2304  0.3207
17939W        W33556   5.477  14.215   4.782  0.1120 -0.0706  0.1437
17940W        W33557  12.657  16.270   3.084 -0.4789  0.1572 -0.3007
17941W        W33558  18.098  11.203   1.049 -0.0481 -0.1755  0.0092
17942W        W33559   0.866  16.476  14.955 -0.0532  0.1366 -0.1139
17943W        W33560  10.816   0.273  12.082 -0.2427  0.1494  0.3252
17944W        W33561  13.995  13.832  12.852 -0.1188  0.1236  0.0544
17945W        W33562   4.052  13.299   1.962 -0.0752 -0.2224  0.1939
17946W        W33563   0.252  17.499   4.332  0.1257 -0.2832 -0.1989
17947W        W33564  18.587  15.588  13.198  0.2065  0.1872 -0.0855
17948W        W33565  14.076   1.772   2.643  0.0789  0.0105 -0.4492
17949W        W33566  11.323   0.115  14.516  0.0832 -0.1464  0.0791
17950W        W33567   3.615   7.465   1.511  0.1402 -0.4623 -0.0335
17951W        W33568   8.786  16.587   1.662  0.2560  0.3525 -0.4097
17952W        W33569  15.437   9.474   1.484  0.0019  0.0567 -0.0573
17953W        W33570  10.709   9.026  12.837 -0.1648  0.0143 -0.0256
17954W        W33571   1.262   4.541  11.822  0.1589  0.1450  0.1723
17955W        W33572   8.970  13.437  14.146  0.0594  0.2288  0.2094
17956W        W33573   1.045  11.811  15.079  0.1043  0.0242  0.1332
17957W        W33574   6.337  14.952   2.905  0.0509  0.1800  0.1949
17958W        W33575   7.660   1.112  13.003  0.0087  0.1486 -0.0836
17959W        W33576  11.476   9.579   1.426  0.4574 -0.1255  0.0335
17960W        W33577   3.482   8.316   5.026  0.2864  0.2519  0.0098
17961W        W33578   4.760  10.959   0.498 -0.0254 -0.1922 -0.2034
17962W        W33579   3.798   5.331  14.802  0.2383 -0.1217 -0.0094
17963W        W33580  11.243   9.097   9.640 -0.0449  0.0727  0.0283
17964W        W33581   7.272  17.508   2.604 -0.1580 -0.1973  0.0117
17965W        W33582   1.468   1.884   3.092 -0.0662  0.2110 -0.0329
17966W        W33583  18.661   7.593  14.000  0.1397 -0.0821 -0.3282
17967W        W33584   8.223  16.006  14.152 -0.0600 -0.0525 -0.2903
17968W        W33585   0.870   6.039   0.980  0.0857 -0.0777  0.0630
17969W        W33586   5.615  16.970  10.510 -0.1969 -0.0461 -0.0942
17970W        W33587   8.088   6.718   0.272 -0.2585 -0.2980 -0.3347
17971W        W33588  12.820  12.344  12.926  0.1048 -0.4055  0.1288
17972W        W33589  13.494  17.331  12.608  0.0488 -0.3028 -0.1444
17973W        W33590   0.760   9.308  11.234  0.4542 -0.0910  0.1183
17974W        W33591  16.534   9.155  10.448 -0.0803  0.2963  0.0340
17975W        W33592   7.039   0.297  14.826 -0.1952 -0.1651  0.1079
17976W        W33593   8.316   7.146   2.839 -0.5009  0.3812  0.1762
17977W        W33594  11.529   1.447  11.440 -0.3283 -0.2466 -0.2003
17978W        W33595  11.193   7.045  10.583 -0.2515 -0.1596  0.0325
17979W        W33596  11.474  13.844  12.522  0.2562 -0.1839  0.1777
17980W        W33597  14.726   7.396  14.517 -0.0527 -0.0159  0.0293
17981W        W33598  14.820   2.687  13.742  0.0667  0.0413  0.0118
17982W        W33599   0.290   6.969   5.314 -0.0918 -0.0144  0.0403
17983W        W33600  12.795   7.499   4.763 -0.1643 -0.1996  0.0701
17984W        W33601  10.920  17.866   5.250  0.0478  0.0309 -0.0151
17985W        W33602  14.425   4.842  11.828 -0.3363  0.2429  0.2561
17986W        W33603  18.248  11.079   0.568 -0.1544 -0.3994 -0.0984
17987W        W33604   7.940   1.791   2.518 -0.2375 -0.1988 -0.1061
17988W        W33605  11.740  17.051   3.532 -0.1158 -0.0841  0.0695
17989W        W33606  16.588   1.398  12.844 -0.1118  0.1993 -0.0995
17990W        W33607  14.854   5.700   3.023 -0.0045 -0.0097 -0.2258
17991W        W33608  12.081  15.008   4.464 -0.1477 -0.0286 -0.0533
17992W        W33609  11.099  16.480   3.345 -0.3674 -0.0754 -0.0566
17993W        W33610  16.171   0.405   5.051  0.0265 -0.1060  0.1099
17994W        W33611   0.568  12.149  11.565 -0.5745 -0.0324  0.0830
17995W        W33612  17.696   5.813  11.757 -0.0115  0.1615 -0.4178
17996W        W33613  19.020  13.128   4.787 -0.0658  0.1503 -0.1889
17997W        W33614  10.939   6.181   4.046  0.1438 -0.0374  0.0822
17998W        W33615  15.869   1.675  13.389 -0.0175  0.1876 -0.2505
17999W        W33616  15.717   9.752  11.055 -0.3356 -0.4729  0.0727
18000W        W33617  10.834   4.633  13.307 -0.2042 -0.0067  0.2242
18001W        W33618  15.335   9.682  14.663 -0.2785  0.1000  0.1766
18002W        W33619   4.626  11.535   2.121  0.4378  0.1809 -0.1752
18003W        W33620  12.581   4.719  11.163  0.0781 -0.0438  0.4239
18004W        W33621   2.430   0.992  13.507  0.2328 -0.1144 -0.1062
18005W        W33622   0.224   9.744   1.468  0.1082 -0.1703 -0.1755
18006W        W33623   5.528   7.806   4.100  0.1062  0.0605  0.1025
18007W        W33624  13.292   0.280  14.738 -0.0773  0.1413 -0.0898
18008W        W33625  10.121   9.445  10.344  0.0615  0.3449  0.1807
18009W        W33626  13.018   8.958   4.732 -0.0511 -0.0210 -0.0246
18010W        W33627   3.574   1.642  12.329 -0.0854 -0.0024 -0.1358
18011W        W33628  13.814  18.606   1.772 -0.0904  0.1689 -0.0111
18012W        W33629   2.181  18.261   4.347  0.1315 -0.0632  0.0025
18013W        W33630   7.127   9.162   0.772  0.0984  0.3683 -0.0261
18014W        W33631   8.544   2.234  12.878  0.0448  0.0030  0.1846
18015W        W33632  13.238  10.401   1.706 -0.2285 -0.2771  0.2130
18016W        W33633   6.690  12.509  12.346  0.1459 -0.1352  0.0967
18017W        W33634   9.414  17.576  14.574 -0.3600  0.0520  0.0517
18018W        W33635   9.804  14.788   3.957  0.2407  0.3064 -0.3245
18019W        W33636  12.121  13.899   4.377  0.1049 -0.1452 -0.2054
18020W        W33637  18.397   8.765   1.491  0.1761 -0.1979 -0.1831
18021W        W33638   9.693  10.823  14.738  0.0867 -0.0346 -0.2620
18022W        W33639  11.673  18.883   5.243  0.0419  0.0760 -0.1393
18023W        W33640   6.076   0.570   9.751 -0.1286 -0.4978 -0.4173
18024W        W33641  17.488   3.357  12.289  0.2590 -0.1571  0.0743
18025W        W33642   7.961   4.871   0.019  0.0067  0.2513 -0.0071
18026W        W33643   8.181  17.438   0.008  0.2501 -0.2525  0.1595
18027W        W33644   8.578  17.033   0.842 -0.1251  0.2184 -0.2534
18028W        W33645  14.598   1.943   1.852  0.0004  0.0942 -0.1208
18029W        W33646   7.714   1.652   2.968  0.0953  0.0544 -0.0868
18030W        W33647   6.139   2.854   3.160 -0.2016 -0.1493  0.0583
18031W        W33648  18.327  18.055   0.595  0.0090 -0.0129  0.0188
18032W        W33649  11.138   8.331  14.289  0.2509 -0.1909  0.1075
18033W        W33650   3.586  15.726  10.457 -0.0235  0.3154 -0.2090
18034W        W33651  17.460   9.399  10.732  0.0918 -0.0961  0.3433
18035W        W33652  16.081  15.847   1.051 -0.1665  0.0867  0.0087
18036W        W33653   5.484   8.721   0.787  0.0673  0.2021  0.1691
18037W        W33654  15.782  16.914  12.529 -0.0827  0.2147 -0.1028
18038W        W33655  11.815   2.086  11.789  0.1884 -0.0695 -0.0073
18039W        W33656   2.798  11.236   2.527  0.2796 -0.0175  0.2672
18040W        W33657   7.981   5.128   0.471 -0.0354 -0.0121 -0.0612
18041W        W33658  10.342  16.133   2.996 -0.0764 -0.1444 -0.0593
18042W        W33659  17.285   3.812  10.548 -0.0698 -0.1114 -0.2222
18043W        W33660  13.185  14.474  11.032  0.0136 -0.0738  0.1061
18044W        W33661  15.167   0.219  14.026 -0.0825 -0.2635 -0.0679
18045W        W33662   8.117   7.716  14.517 -0.0286 -0.0732 -0.3301
18046W        W33663   7.031   9.860  13.256 -0.4414  0.0370  0.0328
18047W        W33664   8.574  18.459   4.417 -0.1242  0.1828  0.0327
18048W        W33665   8.418   0.006  13.740 -0.2149 -0.2705 -0.1253
18049W        W33666   8.679  11.242   4.276 -0.2083 -0.0716  0.1420
18050W        W33667  18.526  18.614  14.301 -0.1679 -0.0775 -0.2738
18051W        W33668  10.282   7.624   0.685 -0.0006  0.2372  0.2759
18052W        W33669   7.564  14.718   5.098  0.0861  0.0208 -0.0662
18053W        W33670  11.147   8.716   3.003 -0.1243 -0.4567  0.0179
18054W        W33671  15.969  15.218  11.171 -0.2493  0.2739  0.0052
18055W        W33672   1.637  12.107   1.152 -0.0824  0.1626 -0.1911
18056W        W33673   7.889   2.663   0.024  0.3522  0.3990 -0.1920
18057W        W33674   1.024  15.554   2.290 -0.3925  0.0446  0.0587
18058W        W33675  13.713  10.837   4.763 -0.2210 -0.1921 -0.0951
18059W        W33676   5.141   9.625   1.511 -0.0845 -0.0514  0.1411
18060W        W33677  14.323   1.882  10.448 -0.1397 -0.2458 -0.2409
18061W        W33678   6.026  15.530   3.552  0.1566 -0.0599 -0.0486
18062W        W33679  12.907   2.212   4.704 -0.0693 -0.4703  0.2366
18063W        W33680  15.075   2.700   0.643  0.0595  0.0114 -0.3346
18064W        W33681   7.781  16.012  12.935  0.0510 -0.3533 -0.1789
18065W        W33682   2.781  15.822   4.297  0.1612  0.1448 -0.1309
18066W        W33683  17.396   6.142  12.033  0.1395 -0.0887  0.0776
18067W        W33684   2.527  14.134   3.067  0.0625 -0.2042  0.2635
18068W        W33685   2.800   6.235   1.113 -0.2646 -0.2505 -0.0749
18069W        W33686  13.139   3.558   2.279 -0.1543  0.0644  0.3399
18070W        W33687  15.319   2.111  11.273  0.2285  0.0365  0.2205
18071W        W33688   4.280   1.956   9.756  0.1302  0.0140 -0.0269
18072W        W33689   8.297  12.044   1.863 -0.2279 -0.1417 -0.0225
18073W        W33690   9.861   0.996  14.385 -0.2150 -0.0521  0.3092
18074W        W33691  10.840  14.036   4.751 -0.1910 -0.2613  0.1815
18075W        W33692   0.124   3.262   0.526  0.0378 -0.1792  0.1614
18076W        W33693   0.060   3.455  13.912  0.5409  0.3440 -0.0754
18077W        W33694  13.681   9.559  10.785  0.0679 -0.0571  0.0887
18078W        W33695   9.017  12.852   5.506  0.2124 -0.0634  0.0757
18079W        W33696   9.898  13.774  12.803 -0.1201  0.2105 -0.0085
18080W        W33697   9.276   6.586   2.940 -0.2516  0.0043 -0.2701
18081W        W33698   9.308  17.968   0.445  0.1086  0.1509  0.2630
18082W        W33699   0.499   5.170   3.216  0.0539  0.0868 -0.3273
18083W        W33700  14.884   6.770  13.894  0.0861 -0.3166 -0.2402
18084W        W33701  15.232   3.636   1.123  0.0386  0.0987 -0.3339
18085W        W33702   5.261   6.106  14.756  0.1937  0.2362 -0.0683
18086W        W33703   4.962  16.656  11.299 -0.0721 -0.1600  0.1223
18087W        W33704  18.483   9.979   4.563 -0.0368 -0.1980  0.0621
18088W        W33705  16.389   4.032  15.099 -0.3485 -0.1128  0.1971
18089W        W33706  14.223   8.623  12.775 -0.2508 -0.2529  0.3629
18090W        W33707   4.587  14.845  12.707  0.0390 -0.1449 -0.0366
18091W        W33708   6.558   0.207   5.393  0.0706 -0.3337 -0.0664
18092W        W33709   8.372  16.406   4.801 -0.3102 -0.0031 -0.0950
18093W        W33710   4.770   1.778   5.435  0.1880  0.0342 -0.2776
18094W        W33711  15.498   8.465  11.468 -0.1877 -0.1624 -0.1747
18095W        W33712  14.886  11.090  11.645  0.1747 -0.1543  0.0281
18096W        W33713  11.047   2.716  12.400 -0.3217  0.0487 -0.3183
18097W        W33714   9.428   0.197   4.488 -0.0255  0.1219 -0.0368
18098W        W33715   7.486   1.916  14.507  0.0461  0.0043 -0.2703
18099W        W33716  17.375   2.831   4.651 -0.3214  0.0068  0.0298
18100W        W33717  14.881  11.468  12.060  0.2959 -0.3053 -0.2160
18101W        W33718   6.062   9.798   4.382 -0.0381 -0.1918 -0.1663
18102W        W33719  14.863  12.613   3.303  0.1182  0.2618 -0.0641
18103W        W33720  15.057  15.948   3.766  0.2224  0.0935  0.0078
18104W        W33721  13.806  15.528   2.630 -0.0614 -0.0304 -0.3350
18105W        W33722  18.230   3.198  11.721 -0.1345  0.1331  0.1778
18106W        W33723  18.321  14.880   4.480 -0.3784 -0.1886  0.2643
18107W        W33724   3.944   0.467  12.173  0.0596 -0.2535  0.1926
18108W        W33725   2.384  17.166   1.208 -0.3940  0.1254  0.0510
18109W        W33726  15.913   9.204  14.975 -0.2038 -0.0838 -0.1962
18110W        W33727   9.411  10.902  11.241 -0.2909 -0.2796  0.0142
18111W        W33728  13.067  10.301  14.403 -0.1026  0.1713  0.1004
18112W        W33729   3.648   5.236   4.942 -0.2375  0.2611  0.2889
18113W        W33730  16.368  13.128   2.694 -0.0017 -0.0168  0.1238
18114W        W33731  17.734   5.087   4.311  0.5519 -0.0616 -0.0624
18115W        W33732   8.939  18.544   1.166  0.0366 -0.3747 -0.2250
18116W        W33733   9.467  14.765   0.046  0.2165  0.2221  0.0407
18117W        W33734  14.322  10.531   0.489  0.2665 -0.3252  0.1399
18118W        W33735   4.079   2.312  13.088 -0.2953 -0.1927 -0.0102
18119W        W33736  16.977   6.530   4.690  0.0924  0.0416  0.0040
18120W        W33737  17.010   5.325  10.613 -0.2086 -0.0827  0.0108
18121W        W33738   1.028  16.581  12.611  0.1545 -0.2439  0.0138
18122W        W33739  14.918   1.105  12.598  0.3527 -0.1564  0.0622
18123W        W33740   0.646  14.358  10.339  0.1679  0.0497  0.1380
18124W        W33741   1.294   6.053   3.666 -0.3048  0.1349 -0.2846
18125W        W33742   5.470   0.559   2.965  0.1985  0.0459  0.1529
18126W        W33743  10.985   7.990  10.788 -0.2574  0.0819  0.0486
18127W        W33744   5.923   1.110   1.441  0.3192 -0.2550 -0.1012
18128W        W33745   5.480  11.924  11.001 -0.0002 -0.2747 -0.0559
18129W        W33746  13.853   7.081   4.780  0.1743 -0.1089  0.0670
18130W        W33747  14.071   4.389  10.909 -0.0003  0.0117  0.0959
18131W        W33748   6.021  15.103   2.513 -0.4707  0.0912  0.0322
18132W        W33749   7.949   4.700   4.355  0.0750  0.2895 -0.0405
18133W        W33750   3.157   1.448  14.021 -0.1402  0.3879  0.1156
18134W        W33751   8.322   0.342   1.827  0.2601 -0.0695  0.2966
18135W        W33752   4.893  16.456  14.871 -0.1244 -0.2240  0.0845
18136W        W33753   3.308  11.675   1.263 -0.0464  0.0751 -0.1523
18137W        W33754   8.873  17.751   4.612  0.0391  0.4443  0.0827
18138W        W33755  12.230  13.475  13.226 -0.0556 -0.0510  0.1779
18139W        W33756   4.088   7.096  10.851  0.3530 -0.0649 -0.0025
18140W        W33757  12.943   8.420   0.639  0.1682  0.1856 -0.0827
18141W        W33758   1.323   7.840   1.659  0.0229  0.1535  0.0421
18142W        W33759   6.802   4.765  14.641  0.2561  0.1899  0.1436
18143W        W33760  14.309  13.675   3.062 -0.2538 -0.0184 -0.2097
18144W        W33761   8.162   5.088   4.634  0.1291  0.1890 -0.0253
18145W        W33762   5.132   6.989  13.830  0.0415  0.0535  0.1099
18146W        W33763   3.031  16.411   3.199 -0.0769 -0.1225  0.0051
18147W        W33764  14.936  17.589   4.827 -0.3434  0.0131  0.0915
18148W        W33765  15.796   4.225   0.488 -0.0414 -0.0954  0.0322
18149W        W33766   7.717  13.530  13.615  0.0217  0.1185 -0.2177
18150W        W33767   9.154  11.624   1.700 -0.0876  0.0142  0.0355
18151W        W33768   2.816   7.205   6.131 -0.0501 -0.3531  0.1526
18152W        W33769  11.933   4.064   0.619 -0.1427 -0.1806 -0.0303
18153W        W33770   0.147   1.657   3.976  0.0609  0.2614 -0.0207
18154W        W33771   9.301  11.782  10.753 -0.0950  0.0250 -0.0276
18155W        W33772   3.630   3.718   3.163 -0.0430 -0.4260 -0.1298
18156W        W33773   9.585   0.448  10.675  0.0545 -0.1411 -0.0927
18157W        W33774  13.905   3.840   3.656  0.1622 -0.1248  0.1502
18158W        W33775  10.733  11.655   3.768 -0.1087  0.0802  0.0462
18159W        W33776   0.236   1.922   0.414 -0.1244 -0.0736 -0.3884
18160W        W33777  18.750   5.456  14.755  0.0092 -0.0385 -0.0920
18161W        W33778   9.005  15.400   3.908  0.1451  0.0029  0.0920
18162W        W33779   6.797  10.066  11.991 -0.2720 -0.0092 -0.1396
18163W        W33780  16.090   7.702   4.286 -0.1303 -0.0428  0.1677
18164W        W33781   5.571  17.479  11.703 -0.1950  0.0197 -0.0219
18165W        W33782  15.592   8.111   1.278 -0.0059 -0.0542 -0.3806
18166W        W33783  12.837  17.537   3.019  0.0321  0.1431 -0.2384
18167W        W33784   9.177   8.681   1.357  0.1014  0.2197  0.0809
18168W        W33785  18.903   4.298  12.114  0.2431  0.0239  0.3129
18169W        W33786   0.137   5.958  12.385  0.2074 -0.0911 -0.0423
18170W        W33787  13.101  18.000   0.090 -0.3963  0.2600  0.0549
18171W        W33788   5.179   5.126  15.037 -0.1794 -0.0587  0.1872
18172W        W33789  12.685  11.830  12.795 -0.1246  0.1832  0.1526
18173W        W33790   8.976   1.251   1.783 -0.3085 -0.0893  0.2615
18174W        W33791   2.684  17.950   1.668 -0.0265  0.2675 -0.2069
18175W        W33792  11.945   9.647   9.325 -0.2120 -0.0421 -0.2295
18176W        W33793  14.379   9.299   2.369 -0.3075  0.0218 -0.2502
18177W        W33794   9.645  16.242   0.680  0.2055  0.0746 -0.3719
18178W        W33795  14.756   4.511  12.598 -0.2880 -0.3160  0.0777
18179W        W33796   0.741   5.395  10.608  0.1234  0.1860 -0.1691
18180W        W33797  10.878  15.199   4.175 -0.1544  0.0545  0.3440
18181W        W33798   5.294   8.876  12.590  0.2315  0.0998  0.0625
18182W        W33799   3.796   0.069   2.474  0.0929  0.1727  0.5064
18183W        W33800  18.726  15.885   2.230  0.5682  0.1948 -0.1562
18184W        W33801   2.649   7.972   3.774 -0.7088  0.1974  0.1483
18185W        W33802   1.862   6.978  13.373 -0.0785 -0.1218  0.0945
18186W        W33803   2.106   2.137  10.679 -0.0205 -0.2219  0.1320
18187W        W33804   4.846   6.209  13.097 -0.2115  0.5214  0.0160
18188W        W33805   7.006  12.903  12.314  0.2532 -0.0568 -0.2383
18189W        W33806   1.747  18.125   3.096  0.3098  0.0204  0.1469
18190W        W33807   2.164  17.750  11.193 -0.2534 -0.0706  0.1460
18191W        W33808  14.756  17.261  11.119  0.2391 -0.0833  0.2264
18192W        W33809   4.614  17.726  13.142 -0.3089  0.1827  0.1405
18193W        W33810  11.509  15.577  12.236 -0.0298  0.1656 -0.0350
18194W        W33811   1.041   3.711  14.157 -0.1622 -0.0817  0.4423
18195W        W33812   8.728   2.490   2.674  0.1651  0.0823 -0.2211
18196W        W33813  18.591   5.030   4.951 -0.0969 -0.1185  0.0650
18197W        W33814   2.416  14.661  14.531 -0.0510 -0.0770 -0.0814
18198W        W33815  10.003  10.458  10.445 -0.0917 -0.1547  0.2139
18199W        W33816  15.324   9.416   0.050  0.1855  0.0642 -0.1212
18200W        W33817   9.465   4.045   4.713  0.2792 -0.2169 -0.4383
18201W        W33818  17.214  14.609  13.389  0.0700 -0.3209 -0.1543
18202W        W33819  11.526   5.471  10.303 -0.0005 -0.2986  0.0270
18203W        W33820   4.406  11.070   0.081 -0.0520  0.1065 -0.2366
18204W        W33821  11.729  11.250   1.404  0.0049 -0.2076  0.0953
18205W        W33822  13.402   1.999  14.118 -0.0132  0.0215 -0.0528
18206W        W33823  15.744   2.795  12.768  0.2000 -0.0838 -0.3525
18207W        W33824   0.088   4.671  15.282  0.1401  0.3296  0.2674
18208W        W33825   6.105  10.747  11.021  0.3871  0.0746  0.0812
18209W        W33826  15.974   5.296  11.731  0.2804  0.1021 -0.0818
18210W        W33827  17.789  18.989  15.131  0.1144  0.0764 -0.1092
18211W        W33828   5.516  17.512   4.219  0.1099 -0.1443  0.0814
18212W        W33829   4.299  13.753   3.383 -0.0012 -0.0902 -0.3583
18213W        W33830   8.650  17.014   5.231  0.0241 -0.0255  0.0559
18214W        W33831   4.433   7.779   3.153  0.1379  0.0893 -0.0230
18215W        W33832   2.948  10.360  11.801 -0.1541 -0.1328 -0.1470
18216W        W33833   5.038  18.378   3.241  0.3055 -0.2018 -0.0481
18217W        W33834   4.945   5.042   0.223 -0.1593  0.0057  0.2086
18218W        W33835   3.124   6.244  10.567 -0.1189 -0.1570 -0.0744
18219W        W33836   4.882   0.164  12.170  0.1659 -0.0469 -0.2428
18220W        W33837   5.656  13.679  11.709  0.1631 -0.1922 -0.3078
18221W        W33838  11.914  16.639   2.147  0.0212 -0.0043 -0.1091
18222W        W33839   3.277  14.107   5.642 -0.1504  0.1972 -0.2003
18223W        W33840  17.140   7.676  14.901 -0.0238  0.0960  0.0453
18224W        W33841   9.413  18.848   2.485 -0.2476 -0.1540 -0.0285
18225W        W33842   6.916   9.562  14.314 -0.1271  0.1150 -0.2462
18226W        W33843  14.352  13.267   2.603 -0.2253 -0.1825  0.0260
18227W        W33844  15.330   0.705   0.127 -0.0497  0.0779  0.2155
18228W        W33845  13.983   1.345  11.150  0.3153 -0.0211 -0.0496
18229W        W33846   1.566  16.296  13.255  0.1028  0.2876 -0.1088
18230W        W33847   7.324   8.367   4.365 -0.1494 -0.1896  0.1214
18231W        W33848  14.934  13.486   3.570 -0.1208 -0.0085 -0.0745
18232W        W33849   2.643  18.516   5.206 -0.1450 -0.1000  0.2933
18233W        W33850  10.145  14.592  11.658 -0.0335 -0.4871 -0.0406
18234W        W33851  15.229   4.980  14.025  0.1456  0.6899 -0.0684
18235W        W33852  17.459  11.789  10.168  0.1073  0.0244  0.2859
18236W        W33853   3.973   3.891   1.437  0.0260  0.4107 -0.1920
18237W        W33854  13.859  16.230  15.203  0.2155  0.2029 -0.0378
18238W        W33855  12.685   5.871   2.154 -0.1264 -0.0180  0.1654
18239W        W33856  13.348   2.068  11.838 -0.1133 -0.0222 -0.3384
18240W        W33857   8.682  13.271   5.365  0.0215  0.0614  0.1883
18241W        W33858   9.000  10.687   0.811  0.3737 -0.2870  0.2472
18242W        W33859  18.645   4.885   4.375 -0.1086 -0.0166  0.3952
18243W        W33860  15.787   3.574  14.006 -0.0655 -0.1615  0.0760
18244W        W33861   2.947   9.901   1.002  0.2226 -0.1816  0.0235
18245W        W33862  14.967  16.273  12.240  0.1889  0.0351  0.1180
18246W        W33863  11.703  17.994  13.841  0.1085  0.2553 -0.2290
18247W        W33864  17.303   9.848  10.503 -0.2189  0.0788  0.2098
18248W        W33865   7.451   0.211  11.994  0.1290  0.1164  0.0004
18249W        W33866   7.717  10.944   4.602  0.1133 -0.4967 -0.3195
18250W        W33867   0.013   1.202  12.430 -0.1153  0.0612  0.0581
18251W        W33868  15.912  13.225  10.116 -0.1040 -0.0351 -0.4361
18252W        W33869   0.388  10.605   2.503 -0.1054  0.0375  0.0186
18253W        W33870  18.405  11.888  10.912  0.2029  0.1227 -0.0743
18254W        W33871  11.918   8.685   0.408 -0.1039 -0.1479 -0.1323
18255W        W33872   4.370  10.966   2.947 -0.1358  0.0208  0.0091
18256W        W33873   0.635   2.462  12.867 -0.2208  0.2101 -0.1226
18257W        W33874  17.926   3.785   3.771 -0.0195 -0.0428 -0.2839
18258W        W33875  15.071  13.428   4.803  0.2392 -0.0179 -0.1083
18259W        W33876  10.523   5.739   4.825 -0.1685 -0.2213 -0.3095
18260W        W33877   9.129  17.797   0.863 -0.2357 -0.1174  0.0173
18261W        W33878   4.824  12.916  14.447  0.4456 -0.1790 -0.2284
18262W        W33879   7.346   0.041   1.807 -0.0146 -0.0041 -0.2308
18263W        W33880   6.229   9.452  11.740  0.4460 -0.0528 -0.2240
18264W        W33881  11.729  10.949   0.860  0.2116 -0.0074  0.0781
18265W        W33882  16.883   6.647   0.831  0.3678 -0.0774  0.1545
18266W        W33883   2.322   7.393   3.000  0.1314  0.2233  0.0832
18267W        W33884   4.450   2.193   0.114 -0.0192 -0.2503  0.0008
18268W        W33885  13.711   3.177   2.822 -0.0097 -0.1499 -0.1871
18269W        W33886   8.888  14.882  11.006 -0.4092  0.1161 -0.2015
18270W        W33887   5.989  12.543  15.011  0.3113  0.2171  0.0850
18271W        W33888   0.476  11.326   9.521  0.2731  0.3202 -0.3060
18272W        W33889   1.728  18.753   5.019 -0.0071 -0.4573  0.2827
18273W        W33890   8.831  14.691   2.710 -0.1866 -0.4486  0.0589
18274W        W33891   5.468  11.048  12.947  0.1094 -0.4193  0.3714
18275W        W33892   8.015  12.420  10.864 -0.1850 -0.1308 -0.3093
18276W        W33893  11.549  13.872  14.451 -0.0634  0.0955 -0.1854
18277W        W33894  11.073   6.762  12.736 -0.2101  0.4308  0.0360
18278W        W33895   3.579  16.699  11.095  0.2047  0.2392 -0.0386
18279W        W33896  16.803  14.433   3.403 -0.0596 -0.2175  0.1042
18280W        W33897  12.532   6.039   1.643 -0.1206  0.3234  0.0548
18281W        W33898   6.331   0.705   0.700  0.1001  0.0165  0.0507
18282W        W33899   0.937   7.243  13.167  0.1062  0.3568 -0.1662
18283W        W33900  12.615   6.699  11.916  0.0833 -0.0468  0.0459
18284W        W33901   6.240  13.013   4.153  0.2920  0.1065 -0.0543
18285W        W33902   2.530  12.701  10.625 -0.3102  0.1053 -0.1189
18286W        W33903   7.746  13.784  14.169  0.0273  0.3926 -0.1469
18287W        W33904   7.796   4.357  13.674 -0.2270  0.0758 -0.3370
18288W        W33905   4.519  16.639   3.319 -0.2114  0.1453 -0.1312
18289W        W33906  12.704   1.969   3.880  0.0495  0.1375 -0.1066
18290W        W33907  16.528  12.185  13.158  0.1530  0.1853  0.2895
18291W        W33908  11.517   0.825   4.148  0.0496  0.2643  0.2299
18292W        W33909  15.632  13.589  10.417 -0.2931 -0.2000 -0.0754
18293W        W33910   4.920   2.081  12.518  0.0993  0.2336  0.1158
18294W        W33911   2.742  15.534   0.337  0.3381  0.1175 -0.1389
18295W        W33912  13.095   8.597  14.293 -0.1677  0.3418 -0.0757
18296W        W33913   9.140  18.543   3.629  0.3729 -0.1778  0.2141
18297W        W33914   6.127   0.411  11.753  0.0494  0.3135  0.1266
18298W        W33915   3.878   5.656  11.624 -0.1970 -0.2054  0.0903
18299W        W33916  13.763   4.567  14.524 -0.3351 -0.1529  0.0212
18300W        W33917  13.056  14.543  11.507  0.0355  0.2161 -0.2885
18301W        W33918  14.540   8.262  15.282  0.2012  0.2828 -0.1668
18302W        W33919   2.230   4.152   1.483 -0.1773 -0.1361 -0.2253
18303W        W33920   1.077   7.040  14.698 -0.2591 -0.1182  0.0942
18304W        W33921  15.265   8.705  13.441  0.2139 -0.3271  0.1030
18305W        W33922  11.596  10.502  10.651  0.0946  0.2338  0.3388
18306W        W33923   4.563  17.720  10.676 -0.0932 -0.0921  0.1654
18307W        W33924   1.790   9.199   3.685 -0.1069  0.0781 -0.1680
18308W        W33925  16.568   6.875  12.785  0.1374  0.4429 -0.0731
18309W        W33926  16.400   9.856  10.767 -0.4356  0.0785 -0.0723
18310W        W33927  10.816  12.957  10.794 -0.1691  0.0441  0.2039
18311W        W33928  17.695   2.073   1.733 -0.1904  0.2662  0.0288
18312W        W33929   9.425  13.343  14.619  0.1423 -0.1910  0.3138
18313W        W33930   4.966   7.945   0.710 -0.0562 -0.0194 -0.0818
18314W        W33931   3.429  15.751  12.520  0.1064  0.0436  0.1282
18315W        W33932   9.724   3.748   5.163  0.3153  0.0167 -0.1589
18316W        W33933   3.620  16.089  13.501  0.2384  0.0910  0.1873
18317W        W33934  17.240   1.419   1.054  0.0032 -0.2531 -0.0531
18318W        W33935   8.574   1.557  11.905  0.0222  0.0964 -0.2829
18319W        W33936   0.876   8.138  11.339 -0.2297  0.3346 -0.1097
18320W        W33937   1.557   4.716  10.020 -0.3314 -0.0144 -0.0824
18321W        W33938  10.568  13.168   3.971 -0.1749  0.0904  0.0114
18322W        W33939  17.841  17.513   5.361  0.0853  0.2132  0.0805
18323W        W33940   3.505   7.593   4.807  0.1959  0.2438  0.0784
18324W        W33941  16.457   0.807  15.239 -0.1717 -0.3913  0.1455
18325W        W33942   8.732   9.266   0.468 -0.1906 -0.3781  0.2342
18326W        W33943  16.063   3.684   2.273 -0.3849  0.3792 -0.1391
18327W        W33944  16.358  14.944   0.043 -0.0147 -0.1392  0.3030
18328W        W33945   0.102  17.314   0.490  0.1457  0.1879 -0.1913
18329W        W33946   0.690   9.790  11.985 -0.1251  0.1296  0.1130
18330W        W33947  15.342  11.786  11.993  0.0004 -0.1898  0.4072
18331W        W33948  18.421   5.315  11.249  0.1196  0.0099 -0.0761
18332W        W33949   9.383  12.546   5.276 -0.2595  0.0312 -0.3513
18333W        W33950  18.249   8.095   0.723 -0.2309 -0.0220  0.2518
18334W        W33951   5.988  19.066   4.262 -0.0854  0.0252  0.0702
18335W        W33952   4.037  17.208   1.294  0.1974 -0.0540  0.1596
18336W        W33953   0.055  11.196   0.629  0.0243 -0.1453  0.2259
18337W        W33954   1.305  10.368  15.107 -0.0148  0.0708 -0.2762
18338W        W33955   9.346  15.276   3.054 -0.1535  0.1190 -0.0351
18339W        W33956  19.068   0.526  14.164 -0.1809  0.2216  0.0114
18340W        W33957   1.230  15.918  11.230  0.1295  0.1937  0.0634
18341W        W33958   4.093   7.337  10.415 -0.0358 -0.1632  0.1437
18342W        W33959   5.508   1.611   0.838 -0.3040  0.5190 -0.1304
18343W        W33960   7.480  18.848   1.105 -0.1557  0.5079 -0.2798
18344W        W33961  13.787   2.416   3.356 -0.3688  0.1457  0.2019
18345W        W33962   5.042  12.465   3.044  0.2953 -0.1312 -0.3518
18346W        W33963   4.158   4.388  11.713 -0.0982 -0.1142 -0.2415
18347W        W33964   3.656   2.384  11.440 -0.0531  0.1836 -0.2704
18348W        W33965   6.047   7.254   2.101  0.0517  0.1573 -0.3401
18349W        W33966  13.786  16.349   3.129 -0.1969 -0.1035 -0.2289
18350W        W33967   5.655  15.330   2.249 -0.0225  0.0544  0.2555
18351W        W33968   0.845  17.785  10.022  0.1785 -0.1714  0.1081
18352W        W33969  10.215   1.077  14.735  0.1875  0.2999 -0.2094
18353W        W33970  16.893  10.276  11.806 -0.2553 -0.1072 -0.1050
18354W        W33971  12.081   7.844  11.086 -0.1405 -0.3013  0.1049
18355W        W33972   4.692   6.212   1.685 -0.1309  0.0832  0.1019
18356W        W33973   7.756   4.936  14.778  0.3361 -0.1376  0.1878
18357W        W33974  16.081  17.653   2.700  0.0826  0.2236 -0.2162
18358W        W33975   4.080   0.418   0.416  0.0748 -0.0086 -0.0163
18359W        W33976  10.684   8.105   4.137  0.2886  0.1301  0.2531
18360W        W33977  15.837   0.619  10.420  0.3154  0.2010 -0.1078
18361W        W33978   7.963   1.102   2.125  0.3490 -0.1330  0.2236
18362W        W33979   6.186   9.837   0.244  0.2133 -0.0197 -0.0988
18363W        W33980  12.841  16.611   0.645  0.2621 -0.0910 -0.1650
18364W        W33981   0.113  12.576   3.710  0.3439 -0.1702  0.0507
18365W        W33982   9.881   7.815  11.695  0.1517  0.1421 -0.1985
18366W        W33983   2.287   7.045  11.257 -0.2023  0.0469 -0.0229
18367W        W33984  13.820  18.369  12.314 -0.0067 -0.0840  0.3102
18368W        W33985  12.674   0.154  11.955 -0.0436 -0.5264  0.0616
18369W        W33986   9.407  14.054   2.589 -0.0479  0.1773  0.0813
18370W        W33987  16.522   0.686  12.030  0.2912 -0.0635 -0.1233
18371W        W33988  10.931  13.064  12.235  0.0464 -0.0377 -0.1891
18372W        W33989   4.189   6.947   5.131 -0.0822 -0.3213 -0.0640
18373W        W33990  15.107  15.602  13.427 -0.1476 -0.0025  0.0935
18374W        W33991   3.166   2.520   4.282 -0.3169 -0.5542  0.0372
18375W        W33992   4.809  10.847   3.083 -0.1238 -0.2907 -0.1440
18376W        W33993   7.637  12.348  12.694 -0.0389  0.2425  0.0208
18377W        W33994   0.469   9.320   3.177 -0.0879  0.0180  0.2414
18378W        W33995   6.692  12.071  12.661  0.5053 -0.1589  0.0709
18379W        W33996  10.491  18.140   2.523  0.0448 -0.1381 -0.1084
18380W        W33997   2.773  11.403   0.473  0.2512 -0.1836 -0.3131
18381W        W33998  10.764   7.842  11.233 -0.1723 -0.2497 -0.0477
18382W        W33999  16.084  13.868   1.429 -0.0140 -0.2212  0.0773
18383W        W34000  16.854   4.199  13.214 -0.5159  0.3959  0.0793
18384W        W34001  10.606  18.379  13.882  0.1409 -0.0202  0.1545
18385W        W34002  12.623   9.350  11.837 -0.1762  0.1798 -0.1976
18386W        W34003  13.878   3.450  12.070  0.3475 -0.2724  0.1695
18387W        W34004   3.975   3.933   2.556  0.5074  0.2096  0.3101
18388W        W34005   5.566  12.540  13.019 -0.2678 -0.0881 -0.3391
18389W        W34006  12.034  17.889  14.272  0.0884 -0.0287  0.1038
18390W        W34007   0.869   5.219  11.522  0.0285  0.0787  0.0656
18391W        W34008  10.158   6.845   1.534  0.0475 -0.1117  0.0401
18392W        W34009  11.215   0.385   5.745 -0.0709  0.1934  0.1290
18393W        W34010  18.271  16.639  12.438  0.1369 -0.3377  0.2338
18394W        W34011   4.495  13.995  13.673 -0.2911  0.1068 -0.0850
18395W        W34012   1.190   6.071   0.229  0.1278  0.0712 -0.4847
18396W        W34013   4.532   0.378  11.300  0.1498  0.1005  0.1294
18397W        W34014  18.559   5.380   4.578 -0.1888  0.1016  0.1333
18398W        W34015  16.054   5.795  12.788  0.2946 -0.0188  0.0593
18399W        W34016  17.929   0.074   1.952 -0.1005  0.2281  0.1836
18400W        W34017  15.695  17.590  11.929 -0.1008  0.0138 -0.0360
18401W        W34018   8.283  18.603   3.120 -0.0508 -0.0876  0.1154
18402W        W34019  14.229   0.268  12.888 -0.1845  0.3530 -0.2362
18403W        W34020   2.320  18.088  14.788 -0.1563  0.0278  0.2702
18404W        W34021  12.076  18.738   3.137 -0.1218  0.0024 -0.2027
18405W        W34022   7.486   5.160   5.208  0.2933 -0.0020 -0.0127
18406W        W34023   9.898   7.606   0.989  0.1195 -0.2604 -0.0083
18407W        W34024   8.968  12.621  13.507  0.0049 -0.4922  0.0203
18408W        W34025   5.499   8.941   0.290  0.4745  0.0179 -0.0392
18409W        W34026   4.993  14.133   4.902  0.1718 -0.2294  0.2588
18410W        W34027  11.510   7.365   5.656  0.2073  0.5538 -0.1738
18411W        W34028  17.362   3.803   0.114 -0.1788 -0.0790  0.1525
18412W        W34029   9.852   2.212  11.719 -0.0572 -0.1551  0.0553
18413W        W34030   7.039  13.529  11.637  0.3017  0.1777  0.1028
18414W        W34031   3.463  15.927   3.403 -0.2157 -0.1990 -0.4348
18415W        W34032  13.180   0.870  12.297 -0.3826 -0.1919 -0.3688
18416W        W34033  14.591   7.098   1.530 -0.0246  0.1246 -0.1989
18417W        W34034  16.549  16.686   5.116 -0.1127  0.0903 -0.2269
18418W        W34035   7.463   2.892  13.061 -0.1609  0.0742 -0.3173
18419W        W34036   2.210   8.054   1.432 -0.4284 -0.1681 -0.0683
18420W        W34037   8.962   7.657   0.523  0.0268  0.0342 -0.2074
18421W        W34038  12.942  10.133   2.925 -0.1550  0.1611  0.3014
18422W        W34039  12.230  16.076   4.955 -0.0837 -0.0833 -0.0357
18423W        W34040   4.426   7.163  13.179 -0.1585 -0.1778 -0.0939
18424W        W34041   3.150   6.033   3.594 -0.1477  0.1415 -0.1957
18425W        W34042  12.282   0.242  12.851 -0.1547 -0.0027 -0.2575
18426W        W34043   4.467   6.263  11.638 -0.0783 -0.3040  0.1782
18427W        W34044   5.312   9.511   0.243  0.0387 -0.0550 -0.2318
18428W        W34045  17.486  14.041   0.451  0.2982 -0.1919 -0.0699
18429W        W34046  12.924  11.137   4.051 -0.1354 -0.1876 -0.2671
18430W        W34047   2.226   9.026  12.322 -0.2311  0.3175  0.0977
18431W        W34048  16.488   9.386  11.487 -0.0336  0.0344  0.1231
18432W        W34049  15.779  15.047  12.628 -0.2929 -0.1075 -0.0971
18433W        W34050   1.025  14.085   3.121  0.0207  0.0615  0.3392
18434W        W34051   9.878  10.645   4.193  0.2423  0.0322 -0.1679
18435W        W34052   8.588   9.709  11.721  0.2066 -0.0442 -0.1112
18436W        W34053  13.006  16.406  14.073 -0.2314  0.2307 -0.0204
18437W        W34054   1.861   6.772   2.383  0.2727 -0.2664  0.1574
18438W        W34055  12.236   8.762  14.143  0.2331 -0.0627 -0.1531
18439W        W34056  17.723  16.539   5.306 -0.1378  0.1467  0.0478
18440W        W34057  17.439   9.870   2.991  0.2221  0.3784  0.0352
18441W        W34058   2.948   9.339  11.150 -0.0201 -0.1868 -0.2109
18442W        W34059   1.340  17.640  11.838 -0.0555  0.0201 -0.2687
18443W        W34060  16.121  16.188  11.671  0.1599 -0.1227 -0.1407
18444W        W34061  11.109  10.806  11.467 -0.0699 -0.2492  0.0193
18445W        W34062   1.386   4.876   4.243 -0.0175  0.0247 -0.1562
18446W        W34063  15.850  15.852   3.953 -0.2283 -0.1220 -0.1411
18447W        W34064   8.145   4.163   0.507 -0.0891 -0.0795 -0.3537
18448W        W34065  17.030   5.432   3.518  0.1992  0.0177 -0.1182
18449W        W34066   9.929  18.307   0.153 -0.2199 -0.0467  0.1837
18450W        W34067   0.210  12.007   2.979 -0.0304 -0.2465 -0.1266
18451W        W34068   4.736   0.081  10.887 -0.1397  0.4510 -0.2834
18452W        W34069  18.524   7.681   4.742 -0.0393 -0.2963  0.1893
18453W        W34070  10.290  12.892   2.654 -0.2038  0.0732  0.0474
18454W        W34071   7.279  19.065  14.032 -0.0029 -0.0642  0.2582
18455W        W34072  13.205   6.102  13.684  0.2542 -0.1772  0.2248
18456W        W34073   5.337  12.710  13.883  0.0862 -0.0358 -0.0061
18457W        W34074  17.823   0.954  10.789 -0.0528 -0.1809 -0.5156
18458W        W34075  11.004   0.163   3.955  0.1631 -0.2359  0.0910
18459W        W34076   7.989  15.973   2.241 -0.1710  0.1064  0.1903
18460W        W34077  14.607  13.950  10.863  0.1232  0.0457  0.2341
18461W        W34078  15.708   0.173  13.710 -0.0538 -0.0555 -0.3301
18462W        W34079  12.479  10.651  14.824  0.2581  0.3330  0.1014
18463W        W34080   0.330  12.121  13.859 -0.1937  0.0913  0.2141
18464W        W34081   5.439  15.214  13.448 -0.0960  0.4086  0.1302
18465W        W34082  18.541   9.926   1.917  0.4895 -0.4705 -0.0474
18466W        W34083   0.264   9.924  12.248 -0.2168  0.0657 -0.1468
18467W        W34084   7.228   5.751  12.792 -0.0853  0.1085 -0.0706
18468W        W34085   9.361  17.627   3.320  0.1137 -0.0931 -0.1520
18469W        W34086  10.591   5.802   3.986  0.1733  0.1451 -0.0778
18470W        W34087   2.506   9.617   2.793 -0.0935  0.1903 -0.4257
18471W        W34088   5.347   8.065  10.126 -0.1334 -0.0441  0.0819
18472W        W34089  12.514   0.616   0.885  0.0226 -0.1144  0.0541
18473W        W34090   0.387   8.076   0.672  0.3506  0.0002 -0.1904
18474W        W34091  11.235  14.200   0.309 -0.0608 -0.1187  0.0832
18475W        W34092   7.716   3.994  11.430 -0.0755 -0.1188  0.4841
18476W        W34093   3.542   6.468   4.004 -0.2315  0.0250  0.1675
18477W        W34094   9.529  11.938  11.152  0.2012 -0.2313  0.0256
18478W        W34095   9.137  18.338  13.058  0.0278 -0.0162 -0.1775
18479W        W34096  15.804   7.861   3.879  0.1936  0.1585 -0.0991
18480W        W34097   4.075  16.399   4.646 -0.2340  0.0784  0.3152
18481W        W34098   3.707  13.767   1.010 -0.2068  0.3382  0.4019
18482W        W34099  15.034   5.423  10.623  0.1069  0.1476  0.4736
18483W        W34100  14.216  10.630   4.604  0.0661 -0.1176 -0.1835
18484W        W34101   1.538  16.981   2.772  0.2079  0.0674  0.0515
18485W        W34102  10.509   3.937  11.605  0.0851 -0.1332  0.4154
18486W        W34103   6.333   8.248  13.284  0.1813  0.1816 -0.2032
18487W        W34104   4.555   0.514   4.543  0.2693 -0.0552  0.0739
18488W        W34105   9.687  15.187  15.045  0.1018  0.1789  0.1145
18489W        W34106   7.277  17.340  10.883  0.0697  0.0426 -0.2393
18490W        W34107   1.675   6.693  12.922  0.0594 -0.0820 -0.0060
18491W        W34108   2.487   2.449   4.573  0.1623  0.1804 -0.0427
18492W        W34109   0.902  18.203   2.014 -0.0190  0.0786 -0.4910
18493W        W34110  11.672  16.376   0.024 -0.1493  0.1105 -0.1764
18494W        W34111  10.667  10.433  15.250  0.6473 -0.0595  0.1319
18495W        W34112   2.425   6.574  11.166  0.3526  0.3666 -0.2049
18496W        W34113  12.074  13.077  12.830  0.3244 -0.1202  0.2279
18497W        W34114   2.142   6.714   3.714  0.1560  0.2327  0.2395
18498W        W34115   0.196  16.131  10.588 -0.1654  0.2017  0.2472
18499W        W34116  14.910   7.266   2.058  0.2334  0.0736 -0.4290
18500W        W34117   8.917   5.233   4.114  0.3558  0.1120  0.0001
18501W        W34118   2.788   2.371   1.772  0.0153 -0.0134 -0.1072
18502W        W34119   1.282  18.625   0.500  0.1566  0.2503  0.0718
18503W        W34120  12.815   5.757  15.212  0.1307  0.1556 -0.1718
18504W        W34121   6.909   2.560  10.543  0.1130  0.1677  0.1406
18505W        W34122  13.642   4.095   3.293  0.1616 -0.0102 -0.0251
18506W        W34123  18.606  13.702  11.118  0.0522 -0.0667  0.2398
18507W        W34124   8.706   9.489  14.808  0.0899  0.0441 -0.0094
18508W        W34125  18.901  13.609   4.441 -0.0494  0.3024  0.2064
18509W        W34126  11.280  12.510   1.953  0.0529  0.2857  0.1276
18510W        W34127   2.422   4.316  14.638  0.5688 -0.2518  0.1812
18511W        W34128   0.537  12.946   1.465  0.2488  0.3232 -0.2720
18512W        W34129  17.696   9.439  12.285 -0.0224  0.3168  0.1711
18513W        W34130  11.468   7.826   0.019 -0.0794 -0.1167 -0.0422
18514W        W34131  12.278   3.331   9.922 -0.4044 -0.0558  0.1094
18515W        W34132  18.475   4.448  11.024  0.0141 -0.1163 -0.0245
18516W        W34133   5.890   8.730   5.948  0.1372  0.5127  0.0805
18517W        W34134   2.543   0.633   5.280 -0.0080 -0.2473 -0.1370
18518W        W34135   1.211   3.504  13.346 -0.1773 -0.0140 -0.0181
18519W        W34136  16.034   6.309  10.477  0.0347 -0.0374 -0.0563
18520W        W34137  10.772   0.556   2.189  0.2325 -0.1988 -0.1605
18521W        W34138   6.682   6.680   0.291  0.2367  0.0002 -0.1875
18522W        W34139   0.999   0.184  11.500  0.1699  0.0107  0.3171
18523W        W34140   9.939  14.860   0.022 -0.0678  0.1763  0.0104
18524W        W34141   5.838  16.063  13.242 -0.2170  0.0781  0.0124
18525W        W34142   3.786  10.628  13.154  0.0982  0.2899 -0.0199
18526W        W34143  18.017   2.981   1.843 -0.4406 -0.4780 -0.2019
18527W        W34144   1.889  10.443   1.158  0.0324  0.0379 -0.0150
18528W        W34145   5.982   7.647   0.347  0.2004 -0.2002  0.4091
18529W        W34146  10.887   9.468  15.162 -0.1598  0.1753  0.3054
18530W        W34147   7.180  16.159   0.719  0.0846 -0.2178 -0.1556
18531W        W34148   5.312  12.127   4.978  0.0940 -0.2384  0.0264
18532W        W34149   5.291   1.594   2.017 -0.1272  0.2160  0.0260
18533W        W34150  19.027  17.057  12.992  0.2495  0.0008 -0.0415
18534W        W34151   9.455   7.400  12.704 -0.2029 -0.0167 -0.0350
18535W        W34152   6.090  16.622  12.615  0.0301 -0.0119 -0.0180
18536W        W34153  13.377  16.287   0.740 -0.2835  0.1407 -0.4481
18537W        W34154  15.754   0.654  12.609  0.0123 -0.0044  0.0771
18538W        W34155   6.791   2.765  15.232  0.3433  0.2338 -0.1825
18539W        W34156  12.743   9.291  13.584  0.0842 -0.0169 -0.2293
18540W        W34157  15.696  15.387   1.255  0.1756  0.0442 -0.0059
18541W        W34158  16.266   5.188  11.203  0.4006 -0.1137 -0.1451
18542W        W34159  18.253   4.575   2.579 -0.1245  0.0749  0.0236
18543W        W34160   2.153   5.069   4.082 -0.2632  0.1645 -0.1814
18544W        W34161  18.163  15.974   2.405  0.1968  0.0288  0.1333
18545W        W34162  13.846  15.920  13.939  0.0137 -0.0047  0.0271
18546W        W34163  11.335   0.922  11.814  0.0369 -0.1033  0.1633
18547W        W34164  11.826   5.834  14.017 -0.3548 -0.0686 -0.2427
18548W        W34165   5.661  14.469  10.533 -0.1480 -0.2492  0.0347
18549W        W34166  10.283   7.417   3.647  0.0525  0.2535 -0.0102
18550W        W34167  10.139  12.544  13.852  0.0740 -0.2810 -0.0998
18551W        W34168  13.424   5.375   4.236 -0.0080 -0.0973 -0.0323
18552W        W34169   5.317  11.224   4.714 -0.3647 -0.0621 -0.0710
18553W        W34170  17.504   5.196   3.569 -0.3729  0.2081 -0.1002
18554W        W34171   6.144   9.264  11.252 -0.2742 -0.2146  0.2480
18555W        W34172   6.958  16.047   2.489 -0.0760 -0.0278 -0.1771
18556W        W34173   5.748   3.137  14.802 -0.0199 -0.0079  0.1224
18557W        W34174  18.566  12.082  13.624  0.1421 -0.0690  0.1903
18558W        W34175   5.208   5.432   3.208  0.0203  0.2131  0.4177
18559W        W34176   5.667   1.228  10.770  0.2486 -0.3110 -0.1125
18560W        W34177   1.556  15.192   1.678 -0.1476  0.0395 -0.3696
18561W        W34178   3.589  11.345   4.613 -0.0418 -0.0528  0.0058
18562W        W34179  12.749  12.079  13.871 -0.0747  0.4025 -0.2931
18563W        W34180   6.654   4.913   3.821 -0.1500 -0.0847  0.0183
18564W        W34181   2.656   6.095   4.515 -0.0475 -0.2097  0.0035
18565W        W34182   7.499  16.333  11.978 -0.1617 -0.1240 -0.3354
18566W        W34183   8.959   2.765   3.932 -0.3278  0.1237  0.0005
18567W        W34184   9.407  18.961  11.785  0.2270 -0.0964  0.2409
18568W        W34185  13.895  12.465  11.010 -0.0576  0.3004  0.0078
18569W        W34186  16.738  17.404   3.391  0.3016  0.1894 -0.0080
18570W        W34187   7.651  12.590   2.263  0.2627  0.0149  0.0643
18571W        W34188  12.793   4.330  11.397 -0.1717  0.0092 -0.0441
18572W        W34189   7.595   7.538  13.464 -0.1412  0.3027 -0.1931
18573W        W34190  14.908  13.901  11.349 -0.0991  0.0411  0.1420
18574W        W34191   1.729   5.945   3.922 -0.1422  0.0721  0.6052
18575W        W34192   5.485  13.981   2.439 -0.1316  0.3014 -0.0402
18576W        W34193  13.545   8.034   2.028  0.0488 -0.1173  0.0320
18577W        W34194  16.222  15.615  10.707 -0.1756 -0.4577 -0.1127
18578W        W34195   5.556  18.740  14.039  0.0091  0.2342 -0.2427
18579W        W34196   8.818  10.610   2.678  0.2227  0.2618  0.3488
18580W        W34197  18.225  17.168   1.511 -0.3208  0.0520 -0.3292
18581W        W34198   0.957   9.504   3.143 -0.0570  0.1747  0.1678
18582W        W34199  10.689  16.634  13.422  0.0997 -0.0287  0.1586
18583W        W34200   6.683  11.376  10.973 -0.3592 -0.0104 -0.1200
18584W        W34201  11.375  10.003   2.330 -0.0156 -0.0042  0.2387
18585W        W34202   1.703   7.956   5.171 -0.1951  0.3329 -0.2772
18586W        W34203   9.839  11.768   0.141  0.2467 -0.0129  0.1887
18587W        W34204  14.269   8.969   1.502  0.2402  0.1018 -0.0262
18588W        W34205  18.067   0.272  14.777 -0.2225 -0.2054  0.2512
18589W        W34206   6.917  17.085  13.092 -0.4727  0.0476  0.1977
18590W        W34207  15.333   4.384   2.180 -0.0239  0.0243  0.2645
18591W        W34208   9.694   6.058   0.009  0.1586  0.0997 -0.0664
18592W        W34209   0.139  14.641  11.519  0.1044 -0.1685  0.1050
18593W        W34210  14.268  10.349   3.728 -0.0741 -0.0637  0.2268
18594W        W34211   7.150   1.370   1.772  0.2097  0.0483 -0.3699
18595W        W34212  18.951  10.588   3.861  0.0449  0.2195 -0.3364
18596W        W34213  13.661  15.356  11.688  0.0237  0.0672 -0.3606
18597W        W34214   2.780  10.302   4.292 -0.0027  0.0792  0.0069
18598W        W34215   8.546   9.972  14.842  0.2394 -0.0132 -0.0254
18599W        W34216  11.338  12.065   3.202  0.0441 -0.0395  0.2613
18600W        W34217   5.957  14.370   0.101 -0.0706  0.2710 -0.0112
18601W        W34218  15.110   4.637  10.828 -0.0682  0.0133  0.0250
18602W        W34219  16.392   7.733  14.340 -0.1675  0.0454 -0.0767
18603W        W34220  15.170  12.776  10.549 -0.0176 -0.2601 -0.1719
18604W        W34221  16.315  16.052   1.455  0.1798 -0.4329  0.1965
18605W        W34222  12.137   3.836   1.169  0.2380 -0.1955  0.0568
18606W        W34223   5.150   5.417   1.916 -0.2271 -0.2273  0.0048
18607W        W34224   4.483   2.036   5.028  0.1003 -0.1969 -0.0977
18608W        W34225  13.917  10.951  12.877 -0.0825 -0.1114  0.2067
18609W        W34226   5.081  12.999  11.621 -0.2210 -0.1349 -0.1353
18610W        W34227   7.545   2.007   2.171  0.0906 -0.1531 -0.0304
18611W        W34228   9.243   1.457   5.462  0.0921 -0.1484 -0.1273
18612W        W34229  17.104  17.088  12.595  0.0107 -0.0442 -0.1621
18613W        W34230   6.048  14.939   5.006  0.1597 -0.0613 -0.2430
18614W        W34231  15.549  16.937  13.791 -0.1319 -0.3119 -0.0546
18615W        W34232   6.835  19.076   5.706 -0.0617  0.0273 -0.0757
18616W        W34233   4.828   8.915   4.804  0.3185  0.0836  0.0544
18617W        W34234   5.491   3.819  12.127 -0.0685 -0.1127 -0.1446
18618W        W34235  17.831  16.532  15.036 -0.1694  0.0022  0.3809
18619W        W34236   5.168   2.531   2.017  0.0775 -0.0657 -0.0693
18620W        W34237  16.648   3.495   1.791  0.1603  0.0527  0.2591
18621W        W34238  15.239  17.240  10.576  0.1612  0.0900 -0.0196
18622W        W34239  17.450  15.317   4.307 -0.1918  0.3087 -0.1728
18623W        W34240   4.713   5.407  11.515 -0.0941 -0.1047  0.2285
18624W        W34241  12.376   8.366  10.999  0.0895 -0.1202  0.0323
18625W        W34242  12.249  15.238   2.557  0.1185 -0.1997  0.2973
18626W        W34243  10.885   9.773  13.406 -0.0596  0.1089  0.2960
18627W        W34244  18.702  16.736   2.817 -0.1630  0.1679  0.1698
18628W        W34245   0.298  14.951  14.281  0.0179 -0.0477  0.2115
18629W        W34246  11.791  14.286  10.827  0.0801 -0.0512  0.4892
18630W        W34247  16.756   8.890  12.745  0.0984 -0.0141  0.0087
18631W        W34248  13.558   5.777  12.154  0.3771  0.1500 -0.2841
18632W        W34249   7.158  11.632   5.079  0.1960  0.3764  0.1284
18633W        W34250   4.625  18.522   3.038  0.1290 -0.1834 -0.1173
18634W        W34251   3.021  15.013   3.660 -0.0473  0.1310  0.2957
18635W        W34252  12.607  14.053  12.791 -0.3546 -0.4498 -0.0356
18636W        W34253  11.192  18.192  15.133  0.0421 -0.1643  0.2363
18637W        W34254  12.294   3.492   3.573 -0.0814 -0.0325 -0.1409
18638W        W34255   8.735   1.683   2.484  0.0986 -0.0370 -0.2146
18639W        W34256   2.632   5.394  11.712  0.1948 -0.0164  0.3059
18640W        W34257   7.422   8.224  15.025  0.0508  0.1692 -0.0067
18641W        W34258  15.301   1.184   0.433 -0.1896  0.0924  0.0002
18642W        W34259  18.064  10.501   2.852  0.3097  0.0700  0.0389
18643W        W34260   4.561  14.449   0.046  0.0443  0.0048 -0.1707
18644W        W34261  14.747  11.515   3.400 -0.0084 -0.2138 -0.1798
18645W        W34262  16.449   2.818   4.678  0.1702  0.1647  0.1423
18646W        W34263   8.671   4.909  10.509 -0.0705  0.0509 -0.0057
18647W        W34264   9.457  10.722   4.912  0.3756 -0.0482 -0.1115
18648W        W34265  14.602   4.769   0.527 -0.0125  0.4354  0.0892
18649W        W34266   5.184   0.176   2.797  0.0406  0.0574  0.1521
18650W        W34267   7.750   8.962   3.675  0.0115 -0.1611  0.0438
18651W        W34268   9.022  15.669   5.390  0.0986  0.1434  0.0396
18652W        W34269  10.851  12.575  14.794  0.1259 -0.0854 -0.0036
18653W        W34270   2.647  14.797   3.309  0.2856  0.0985  0.2855
18654W        W34271  13.923   2.045   1.283 -0.1379 -0.3520  0.1216
18655W        W34272  12.847  13.445  12.075 -0.2546 -0.1558  0.1262
18656W        W34273  16.367   4.826   0.430  0.1604  0.0750 -0.0500
18657W        W34274  11.594  15.484  14.991 -0.3636 -0.0749  0.0628
18658W        W34275  16.589  16.731  10.112  0.4000 -0.0539  0.0495
18659W        W34276   7.005  14.167   3.366 -0.5521 -0.0006 -0.0980
18660W        W34277   4.812  17.601  14.475  0.1376  0.2059 -0.1989
18661W        W34278   5.157   1.429  13.856  0.0880  0.1667  0.1243
18662W        W34279  11.876   9.461   5.401 -0.3416 -0.2698  0.2520
18663W        W34280   9.490  18.464   0.371 -0.1061 -0.1611  0.1202
18664W        W34281   7.128  13.449   2.612  0.0549 -0.3198 -0.4531
18665W        W34282   6.487   7.802   0.182 -0.4235 -0.1960 -0.0355
18666W        W34283  14.478   9.337  10.617  0.2088 -0.1109  0.2930
18667W        W34284  14.194  16.758  10.273  0.0863  0.0087  0.0195
18668W        W34285   9.589   6.786  13.259 -0.0471  0.4084  0.1461
18669W        W34286  17.654   9.819   2.167  0.2619 -0.0623 -0.2156
18670W        W34287   6.585   3.284  14.886  0.1675  0.1068 -0.0325
18671W        W34288   2.406   4.912  13.253 -0.4245 -0.1735  0.1576
18672W        W34289   6.319   0.826  13.721  0.4636 -0.2018 -0.0016
18673W        W34290  15.133   8.689   0.719 -0.0197  0.0547  0.0858
18674W        W34291   7.453   7.890   3.713 -0.0623 -0.2626 -0.0993
18675W        W34292   5.855   2.097   0.606  0.2818 -0.0415  0.0771
18676W        W34293  17.075   9.582   4.118  0.0930 -0.1999  0.0484
18677W        W34294   3.683  18.678   2.690 -0.3057  0.2740 -0.1875
18678W        W34295   8.794  18.210   3.430 -0.3742  0.0718  0.0284
18679W        W34296   3.783  14.707   5.265  0.1017 -0.1378 -0.2400
18680W        W34297   0.766   2.864   0.256  0.0423  0.2032  0.0356
18681W        W34298   5.518  14.677   2.126  0.0863  0.0607  0.1738
18682W        W34299   6.876  12.831  12.809 -0.3549  0.2426  0.4319
18683W        W34300   3.696  14.835  14.824  0.4190 -0.1978  0.2266
18684W        W34301   2.774   5.015  12.434 -0.0977  0.2705 -0.2155
18685W        W34302   3.432   8.807   4.926  0.0380 -0.0011  0.2251
18686W        W34303   0.509   2.814   3.449  0.1497 -0.2913 -0.3780
18687W        W34304  10.013   9.867   2.300  0.1592  0.2905  0.1211
18688W        W34305   9.799  17.713  13.485  0.0849 -0.2032  0.1316
18689W        W34306  13.970   6.412  10.339 -0.1500 -0.4096 -0.1105
18690W        W34307   2.566   8.880   0.923  0.1268  0.0284  0.1158
18691W        W34308  10.396   7.567  13.765 -0.0267  0.1212  0.3169
18692W        W34309  17.343   5.712   2.124 -0.4967 -0.0069  0.0687
18693W        W34310  14.383   9.873  10.486 -0.2444 -0.3563  0.1500
18694W        W34311  16.959   9.582   3.644  0.2544  0.2336 -0.1604
18695W        W34312   2.007  12.141  14.781  0.1584 -0.2460  0.1244
18696W        W34313   1.623   9.496   4.044 -0.0896 -0.0315  0.0859
18697W        W34314  11.915  16.485   3.794  0.2581  0.1385 -0.1229
18698W        W34315  16.788  16.071   0.500 -0.0393  0.0676 -0.0532
18699W        W34316  11.767  19.016   0.198  0.1436  0.0704  0.0860
18700W        W34317   6.143   1.651   3.782  0.3044 -0.1158  0.2355
18701W        W34318  16.948  10.019   2.621  0.0104 -0.0576 -0.3741
18702W        W34319  17.715  14.513  14.981  0.0711 -0.0278  0.2568
18703W        W34320  18.326  18.685  13.814  0.0367 -0.0260  0.0729
18704W        W34321   0.261   6.528  13.281  0.0496 -0.3158  0.0344
18705W        W34322  13.818   5.684   1.401 -0.1061  0.2785  0.1099
18706W        W34323  15.113  11.845   4.233  0.0337 -0.1215  0.3120
18707W        W34324   4.299   1.833   3.531 -0.1712  0.3354 -0.0809
18708W        W34325   9.298   2.980  14.667 -0.0550  0.2742 -0.0597
18709W        W34326  16.859   8.756   5.614 -0.1186  0.1210  0.1575
18710W        W34327   7.800  10.457  12.418  0.0105 -0.1306 -0.0494
18711W        W34328  12.156  16.071   5.436  0.1397 -0.3945  0.1038
18712W        W34329   6.191  10.935  14.427 -0.3566  0.4046 -0.2071
18713W        W34330   0.495  11.381   4.387 -0.0885 -0.1911  0.0340
18714W        W34331   1.489   6.648  10.627 -0.2310  0.1617  0.2456
18715W        W34332   8.635   8.923  12.708 -0.0811 -0.1349 -0.3131
18716W        W34333  11.052  18.821  13.860 -0.1293  0.1621 -0.0219
18717W        W34334   6.840  18.152  14.077 -0.0283 -0.1247 -0.0185
18718W        W34335   7.243   5.947  15.207 -0.0937 -0.3024 -0.1275
18719W        W34336   5.040  17.459  12.933  0.0266  0.0237  0.3613
18720W        W34337  17.303  18.154  14.599 -0.0173  0.0202  0.3178
18721W        W34338   2.601   2.377   5.239  0.0718  0.1453  0.0581
18722W        W34339   0.652   5.642  11.117  0.0375  0.1233  0.0715
18723W        W34340  15.570   2.452  14.088 -0.2388  0.2657 -0.2627
18724W        W34341   9.783   8.218  14.062 -0.0675  0.0496 -0.1256
18725W        W34342  14.113  15.002   0.580 -0.2139  0.2676  0.1263
18726W        W34343   6.270   5.461   0.116  0.1598  0.2445 -0.0325
18727W        W34344   3.893  13.461  10.528  0.0270 -0.2096 -0.0658
18728W        W34345  11.694   5.438  14.859  0.2664 -0.0507  0.1661
18729W        W34346   2.565   9.651  10.244 -0.0063 -0.2637  0.0500
18730W        W34347  16.633   6.859  10.855  0.1899  0.2778 -0.1948
18731W        W34348   8.562  17.882   2.684 -0.0526 -0.4676 -0.1896
18732W        W34349   1.906   7.110   1.246  0.0112 -0.1751 -0.2755
18733W        W34350   4.885  14.238  13.403 -0.0355 -0.2470  0.1482
18734W        W34351  16.658  14.567  12.402 -0.3374 -0.1746  0.4047
18735W        W34352   6.846   5.785   1.067 -0.0811  0.1807  0.3716
18736W        W34353   7.665   7.281   3.391 -0.2476  0.3290  0.0834
18737W        W34354  14.201  11.445   4.855 -0.0060 -0.1608  0.0621
18738W        W34355  15.522  12.109   2.374 -0.0897 -0.1327  0.3143
18739W        W34356  10.694  16.770  10.776  0.3874 -0.0154  0.1531
18740W        W34357   2.434  18.221   0.053  0.2301  0.1002  0.1025
18741W        W34358  14.705   1.928   0.904 -0.0024 -0.1602 -0.2834
18742W        W34359  13.064   4.350   5.149  0.0808 -0.1174 -0.2138
18743W        W34360  15.085   5.321   1.937  0.1550  0.0288 -0.0407
18744W        W34361  14.710   2.308  11.920 -0.0498  0.1823 -0.0835
18745W        W34362   7.314   6.851   2.309 -0.2598  0.0761  0.0053
18746W        W34363  13.592  18.058   0.292  0.0759  0.0579  0.5083
18747W        W34364   2.535  16.248  12.366 -0.0247 -0.1397 -0.2955
18748W        W34365  14.773   9.407   4.290 -0.0365 -0.1330 -0.0958
18749W        W34366  15.382   7.637   4.121 -0.2737 -0.0398 -0.1867
18750W        W34367   2.620   5.173  15.155  0.0244 -0.0508  0.0037
18751W        W34368   6.020   2.581  10.157  0.1050 -0.2118 -0.1195
18752W        W34369   9.358   6.105  11.381  0.0341 -0.2887 -0.0299
18753W        W34370  11.477   3.069  13.153 -0.0813  0.1441  0.1916
18754W        W34371   3.292  15.634   4.201 -0.0228 -0.1829 -0.2819
18755W        W34372  17.395   2.573  15.258  0.1281 -0.2479 -0.1302
18756W        W34373  13.471  14.802   2.098  0.1278 -0.3114 -0.0101
18757W        W34374  18.399   9.576   1.036 -0.2837  0.0901  0.0375
18758W        W34375  10.352  14.537   3.396 -0.4095 -0.2435  0.1899
18759W        W34376  12.984   9.530   4.824  0.1514 -0.0480 -0.2642
18760W        W34377  17.045  16.602   2.120 -0.0173 -0.1532 -0.0737
18761W        W34378   1.897  18.791  13.768 -0.1819  0.0719 -0.1166
18762W        W34379  13.970   7.657   0.327  0.1441  0.0752 -0.0975
18763W        W34380   8.075  14.668   0.805  0.0433  0.0684  0.0283
18764W        W34381  16.094  19.013  15.197  0.1579 -0.0987  0.1923
18765W        W34382   7.011  16.974  10.672  0.0966  0.0632  0.0399
18766W        W34383  13.237   6.432   2.722  0.2122 -0.1930 -0.1986
18767W        W34384  18.771   4.406   2.373 -0.1839 -0.1272  0.0949
18768W        W34385  17.515   8.200  11.359 -0.2470  0.2339  0.0071
18769W        W34386  16.365   6.287   2.132  0.0858  0.2382  0.1621
18770W        W34387   3.845  14.845   2.734 -0.0521 -0.2403  0.1605
18771W        W34388  12.407  13.777   3.950 -0.0174  0.2308 -0.2892
18772W        W34389   3.048  18.994  14.209 -0.1711  0.2642  0.0972
18773W        W34390  16.700   0.056  12.216 -0.0880 -0.3093  0.0792
18774W        W34391  15.761   6.140   3.853  0.1869  0.0875 -0.2933
18775W        W34392  12.094  18.951   0.592 -0.3466  0.1008 -0.0564
18776W        W34393   3.889   8.465   3.559 -0.1643  0.2034  0.1449
18777W        W34394   2.723  14.411  11.519  0.1625  0.0332 -0.1580
18778W        W34395  17.431  16.694  14.418  0.2988  0.0159  0.1821
18779W        W34396   7.329   9.756  12.848  0.0937  0.2009 -0.1393
18780W        W34397  13.669   2.876  12.958  0.2967  0.2345  0.2620
18781W        W34398  10.359   0.142   1.503 -0.0540  0.0493  0.1530
18782W        W34399  14.455   8.883  13.221  0.1474  0.2460 -0.0755
18783W        W34400   0.894  16.996  10.437 -0.3193 -0.1954 -0.2451
18784W        W34401   8.689   1.851  10.342 -0.3314 -0.1133 -0.1821
18785W        W34402  14.366  18.938  13.341 -0.2430  0.0240 -0.1279
18786W        W34403   1.148  11.931   9.895  0.2681  0.1183  0.1140
18787W        W34404   7.365  11.850   3.513 -0.2473  0.3232 -0.0840
18788W        W34405  16.172  17.321   0.752  0.1563  0.4645 -0.2757
18789W        W34406   8.654   2.138   1.689  0.0611 -0.2135  0.2259
18790W        W34407  15.683   4.095  11.219 -0.1671 -0.2543 -0.0962
18791W        W34408  13.082   3.456   4.301  0.3721  0.1355 -0.1083
18792W        W34409  17.613   1.272   0.529  0.1244  0.4153 -0.0432
18793W        W34410  11.569   4.416  10.955  0.2172 -0.0341  0.0796
18794W        W34411  12.570   4.362  11.898  0.1829  0.1474  0.0470
18795W        W34412   9.162  15.357   1.260 -0.0411  0.1360  0.0891
18796W        W34413   6.384  16.616   1.104 -0.1192 -0.2442 -0.1096
18797W        W34414  10.177  13.124  13.906  0.3119 -0.2301  0.3607
18798W        W34415  14.383  18.447  13.231 -0.5129  0.2079  0.3194
18799W        W34416  18.155   6.043  11.025 -0.1004  0.0802 -0.2526
18800W        W34417  18.253  11.076  14.948  0.2061 -0.0683 -0.0138
18801W        W34418   2.300   4.477   4.280 -0.0487  0.0620 -0.3895
18802W        W34419  14.834   0.041  14.324 -0.2254  0.1462 -0.2301
18803W        W34420  18.385   3.186  10.741  0.0197  0.1753 -0.0984
18804W        W34421   2.973   2.861   3.913 -0.1435 -0.0239  0.0250
18805W        W34422  17.006  14.853   4.388 -0.2131  0.4414  0.2161
18806W        W34423  18.532  11.259  12.175 -0.1567  0.1290 -0.2528
18807W        W34424   3.876   7.434  11.863 -0.0319  0.0139  0.1604
18808W        W34425  15.256   4.125   2.599 -0.1296 -0.3764  0.1758
18809W        W34426  10.674   4.279   3.093  0.1277 -0.1615 -0.0534
18810W        W34427   4.317  15.144   2.141  0.3297  0.0252 -0.4098
18811W        W34428   7.435  13.439  10.247 -0.0023  0.3493 -0.3626
18812W        W34429  10.281   6.928   5.334  0.0383  0.1095  0.1558
18813W        W34430  10.514   8.336   3.708  0.2743  0.2636  0.2096
18814W        W34431   0.805  17.835   0.187 -0.2855 -0.0344  0.0275
18815W        W34432   2.410  16.814  11.485 -0.1018  0.1019 -0.0282
18816W        W34433   5.167  15.515  14.900 -0.1201 -0.1212  0.0645
18817W        W34434  13.399   9.581   4.073 -0.0137 -0.2734  0.2154
18818W        W34435   9.416   7.969  12.700 -0.1977 -0.0374 -0.0457
18819W        W34436  18.969  18.108  12.243  0.0622  0.2201  0.1341
18820W        W34437   0.932   2.039   5.346 -0.1808  0.1170  0.0775
18821W        W34438  11.340   2.665  10.505 -0.0418 -0.3226 -0.2861
18822W        W34439  16.187  10.022  14.261 -0.0218  0.3299 -0.1433
18823W        W34440   2.163  16.953  12.812  0.0396  0.2187  0.0395
18824W        W34441  17.222   1.112   4.433  0.1144 -0.1307  0.4018
18825W        W34442   6.127  13.086  14.352  0.0581  0.0100 -0.0888
18826W        W34443  13.661  11.850  12.897 -0.1783  0.0346 -0.0619
18827W        W34444  10.624   8.961  13.574 -0.3454  0.1209  0.0181
18828W        W34445   5.838   2.586   1.292  0.2001 -0.0758 -0.2936
18829W        W34446   2.735   4.212  11.191 -0.1548  0.3101 -0.1162
18830W        W34447   1.189  16.508  12.013  0.0433 -0.1706  0.0351
18831W        W34448  16.841  19.034  10.941  0.0008  0.1348  0.1470
18832W        W34449  10.273  15.360   6.003 -0.1715  0.2606  0.1122
18833W        W34450   4.091   0.536   0.921  0.1326  0.2627  0.0006
18834W        W34451   9.636  11.661  11.774  0.0357  0.0129 -0.2283
18835W        W34452   0.529  18.431   3.036  0.2257 -0.2230  0.0105
18836W        W34453   5.615   5.644  13.301 -0.0751 -0.2519 -0.2194
18837W        W34454  18.466   3.663   5.343 -0.0526  0.0692 -0.0754
18838W        W34455  11.114   3.724   4.363 -0.1550  0.3671 -0.1064
18839W        W34456  13.416   1.005  12.708  0.0870 -0.0884 -0.2874
18840W        W34457   4.097  10.575  14.086 -0.1246 -0.0311 -0.0956
18841W        W34458   4.430  16.367   4.221 -0.0155 -0.3187  0.0268
18842W        W34459   3.538   9.396  14.025  0.0570 -0.3172  0.1302
18843W        W34460   6.228   5.662   1.199  0.2395 -0.3794  0.1202
18844W        W34461   3.135   7.522   0.809  0.1208  0.1804 -0.0218
18845W        W34462  12.142  16.407   1.249  0.1845  0.2613  0.2131
18846W        W34463  10.771  10.310   0.540 -0.3113  0.0023 -0.1495
18847W        W34464  18.913   8.378   2.878  0.1755  0.3328 -0.0005
18848W        W34465   5.709   0.971  13.891 -0.0544  0.0308 -0.1407
18849W        W34466  10.338   3.062  11.162  0.0595  0.0381  0.0320
18850W        W34467   3.972   0.111   1.830  0.2581  0.0580  0.0043
18851W        W34468  13.137  14.066   1.598  0.1461  0.1182  0.0575
18852W        W34469   2.714   1.868   1.065 -0.0635  0.1713 -0.2399
18853W        W34470   2.435   2.965   1.100 -0.4389  0.0057 -0.0018
18854W        W34471   8.842  15.885  11.324  0.1782 -0.0481 -0.0174
18855W        W34472  17.783  11.979   5.691  0.0473  0.0425 -0.1165
18856W        W34473  10.180   3.716  14.115  0.2748  0.4058  0.0367
18857W        W34474  18.427  11.067  10.708 -0.0060 -0.0467 -0.2137
18858W        W34475  13.050   0.849  11.368 -0.2148 -0.1742  0.1641
18859W        W34476  15.301  18.393  11.424 -0.0319 -0.0565 -0.1390
18860W        W34477   3.713  13.936   2.337 -0.3413  0.2443 -0.1237
18861W        W34478   3.028  10.954   3.507  0.2547  0.0963 -0.0297
18862W        W34479   1.646  15.343  12.454  0.3270 -0.0244  0.1042
18863W        W34480  11.058   8.238   0.085  0.2157 -0.0516  0.2706
18864W        W34481  15.613  10.367  10.856 -0.1213 -0.1355 -0.4679
18865W        W34482   5.517  15.529  13.939 -0.1249 -0.2162 -0.1330
18866W        W34483  17.769   6.233  13.565 -0.0047  0.0207 -0.0717
18867W        W34484   7.455   2.135   5.193 -0.3364  0.0631 -0.1313
18868W        W34485   4.064   7.808  10.594  0.0225  0.0062  0.0584
18869W        W34486   7.407  12.102  13.932  0.0003  0.2903  0.0387
18870W        W34487  12.274   3.467   4.629  0.4445  0.1573 -0.0057
18871W        W34488  15.818   7.104  14.337 -0.1208 -0.1060 -0.1404
18872W        W34489  10.790  17.993   0.789  0.1990 -0.1574  0.0378
18873W        W34490   5.929   8.233  10.725  0.0549  0.0235 -0.1431
18874W        W34491   6.187  13.701   4.916 -0.1923  0.0913  0.0446
18875W        W34492  13.248  12.640  14.753 -0.0493  0.0699 -0.0098
18876W        W34493   4.226   7.004  13.618  0.2724 -0.1797 -0.0834
18877W        W34494   2.650  14.482   2.182 -0.0284  0.4208  0.0798
18878W        W34495   1.253  19.048   0.920  0.0330 -0.2228 -0.1093
18879W        W34496  12.791  17.933  11.752  0.0114  0.0365 -0.0303
18880W        W34497  16.733   8.540   3.871  0.1009  0.4461  0.5298
18881W        W34498   1.995  17.103   0.101 -0.3068  0.0877  0.1527
18882W        W34499  15.704   3.616   0.875  0.0548  0.4959  0.2160
18883W        W34500   3.735  12.553  10.607  0.2464 -0.1783  0.2182
18884W        W34501   4.751  12.357   0.198  0.1706  0.1025 -0.0109
18885W        W34502  12.288  13.963   9.688  0.0490  0.3059  0.4045
18886W        W34503   3.202  16.605  10.674 -0.1771  0.0842  0.3062
18887W        W34504  15.729   8.165   3.511 -0.0135 -0.2145  0.3778
18888W        W34505   4.707   5.423   2.857 -0.1316 -0.0666 -0.4822
18889W        W34506   5.913   2.558   1.871 -0.1272 -0.2671 -0.1718
18890W        W34507   9.180   5.632   5.764 -0.1059  0.1066  0.0861
18891W        W34508   1.867  17.851   3.568 -0.1677 -0.1962  0.0602
18892W        W34509  12.301   0.485   3.511 -0.0193  0.3029 -0.2198
18893W        W34510   8.978   3.582  12.516  0.0472 -0.1893 -0.2218
18894W        W34511   6.377  14.494  14.166 -0.1671 -0.1236  0.1894
18895W        W34512   4.118  16.765   2.613  0.0384  0.0338 -0.0754
18896W        W34513   7.129  13.043  11.813  0.1994  0.3654  0.0142
18897W        W34514   2.381   2.396   0.983  0.1071 -0.0622  0.0452
18898W        W34515   8.883  18.131  14.376 -0.2024  0.2230  0.0860
18899W        W34516  11.525   5.568  12.276  0.0523 -0.3973  0.0963
18900W        W34517   9.370   6.161  10.593  0.1843  0.0670  0.1559
18901W        W34518  16.472  17.751   2.432  0.0432  0.0179 -0.1592
18902W        W34519   0.805  10.903   0.307  0.1375 -0.2038  0.2405
18903W        W34520   3.249   1.770  13.117 -0.3564  0.1832  0.0059
18904W        W34521   2.795  18.879  10.570  0.2502  0.0807 -0.1452
18905W        W34522   3.868  13.742  13.636 -0.0352  0.1652  0.0748
18906W        W34523  12.118  17.922   2.713  0.3097 -0.0970  0.0813
18907W        W34524   6.744  16.846  13.856  0.0657 -0.3965  0.0165
18908W        W34525  11.161  14.248  12.549  0.0212  0.1815  0.1313
18909W        W34526   2.458   7.103   4.304 -0.4085 -0.1226  0.0598
18910W        W34527   3.464   8.325   3.743  0.2132  0.1159 -0.1694
18911W        W34528  17.363   7.533  13.964 -0.0216 -0.1737 -0.3144
18912W        W34529   3.623  14.853  13.996 -0.2404 -0.0301 -0.2514
18913W        W34530   8.481   9.664  13.120 -0.2425  0.2092 -0.3288
18914W        W34531  12.539  17.043   5.012  0.4714 -0.1782 -0.1849
18915W        W34532   4.170  18.763   4.909 -0.1198  0.1319 -0.1378
18916W        W34533  18.985  14.711   2.251 -0.0708 -0.1121  0.2324
18917W        W34534  12.998   7.220  14.299  0.1616  0.0056 -0.0399
18918W        W34535  13.498   0.549  12.512  0.0855  0.0478  0.2266
18919W        W34536  17.802  11.917  11.698  0.3747  0.1906  0.1320
18920W        W34537  11.870  15.920   4.607 -0.2280 -0.3695 -0.0301
18921W        W34538  15.771   1.783   0.690  0.1725 -0.0947 -0.1021
18922W        W34539  18.382   3.243  13.918 -0.2932  0.0306 -0.3195
18923W        W34540   1.590  10.406  11.393 -0.3169 -0.0089  0.0011
18924W        W34541  17.737   4.110   4.231 -0.1856 -0.0203  0.0917
18925W        W34542   9.825  14.480  14.161 -0.1790  0.3231 -0.1473
18926W        W34543  10.839  15.698  14.830 -0.1163  0.0995  0.3844
18927W        W34544   0.077  17.820   1.358  0.0951  0.1213 -0.1291
18928W        W34545  16.768   4.679   2.532  0.3783  0.0451  0.0602
18929W        W34546   7.018  10.559  11.835 -0.1968  0.0812  0.0701
18930W        W34547  13.299   0.333  15.203  0.4201  0.2063  0.0441
18931W        W34548  11.347  12.807   1.442  0.1800  0.0844  0.1131
18932W        W34549  16.299   0.761  10.595  0.0716  0.1471 -0.1989
18933W        W34550   6.994  17.526  12.374  0.2229 -0.4316 -0.0633
18934W        W34551   2.344   5.854  15.069 -0.6575  0.3161 -0.0486
18935W        W34552   6.926   8.232   4.623 -0.0093  0.0037 -0.0314
18936W        W34553   4.103  10.064  14.238  0.1937  0.1926 -0.1073
18937W        W34554  15.700  11.496   0.453  0.0701 -0.0015  0.0686
18938W        W34555  12.352   4.189   9.623 -0.1437  0.0568 -0.1256
18939W        W34556   8.256  18.201  11.913  0.1538 -0.1207 -0.0020
18940W        W34557  13.554   9.149  10.419  0.4403  0.2080  0.2562
18941W        W34558  17.407   8.504   3.061 -0.2310  0.3373  0.0737
18942W        W34559  16.672   9.111   3.118 -0.0056  0.3104  0.1319
18943W        W34560   3.776   8.604  10.868  0.1971  0.0128 -0.0676
18944W        W34561  17.780   8.808   0.731  0.2246 -0.2046  0.2438
18945W        W34562   2.443  11.669  11.742  0.0064  0.0809 -0.2653
18946W        W34563  14.527   4.284   1.213 -0.2057 -0.0623 -0.0072
18947W        W34564   6.991   4.981  12.066 -0.4802  0.0890 -0.1365
18948W        W34565   8.148   4.120  11.222 -0.1039 -0.1633 -0.0048
18949W        W34566   5.435   2.740  10.700 -0.1492 -0.1826 -0.1111
18950W        W34567  12.839  17.128   1.183 -0.1279 -0.0005 -0.3325
18951W        W34568  18.686  10.965  11.810 -0.2999  0.1146  0.1577
18952W        W34569   7.903  13.333  11.168  0.1265  0.5551  0.0922
18953W        W34570  10.062  11.669   5.497  0.2561 -0.1588  0.2821
18954W        W34571   2.965  15.918   1.694 -0.0293 -0.0985  0.0644
18955W        W34572   2.156   7.597  12.054  0.0071  0.2250  0.0562
18956W        W34573  11.513   7.668  11.096  0.2776  0.0727  0.1959
18957W        W34574   2.368   5.222   6.295 -0.1505  0.0442 -0.0400
18958W        W34575   1.442   0.439  11.588 -0.0133 -0.0115 -0.0913
18959W        W34576  13.998   7.716   1.250  0.0590 -0.2206 -0.2576
18960W        W34577  18.285  11.165   1.526 -0.0724  0.0220 -0.0735
18961W        W34578   8.272  11.851  14.144 -0.0337  0.1142  0.4368
18962W        W34579   5.501  18.860  11.445 -0.1611 -0.0730 -0.3751
18963W        W34580   4.488   9.268   2.535 -0.1471  0.1218  0.2226
18964W        W34581  13.417  12.208   0.405  0.0411 -0.4485 -0.1716
18965W        W34582  15.095  17.928  10.663  0.1657 -0.1100 -0.1061
18966W        W34583   4.815   1.247   2.933  0.0483 -0.1978 -0.0056
18967W        W34584   1.948  12.064   2.378 -0.2914 -0.1557  0.0953
18968W        W34585   2.648  11.242  11.491 -0.2102  0.0797  0.2703
18969W        W34586  12.403   1.460   0.387  0.2353  0.0532  0.1610
18970W        W34587  14.970   2.716  14.673  0.3294 -0.1549  0.1155
18971W        W34588  16.399   6.216   5.497  0.1109 -0.0643  0.0280
18972W        W34589   1.218  10.655   0.945 -0.1098 -0.1549 -0.1483
18973W        W34590  10.433   4.590   0.874 -0.0670  0.0456 -0.0047
18974W        W34591   4.867  11.877  12.291  0.0356 -0.4337  0.1868
18975W        W34592   8.027  14.799   0.319 -0.2792  0.3411 -0.4218
18976W        W34593  11.250   7.931   5.049  0.0550 -0.1102  0.2660
18977W        W34594  16.386  17.479  13.961  0.1314 -0.0826  0.3809
18978W        W34595  12.457  18.489   1.361  0.0531 -0.2458 -0.2652
18979W        W34596  13.584   1.915   1.823  0.0259  0.1007  0.2649
18980W        W34597  13.460   4.165   0.028 -0.0792  0.0776 -0.1958
18981W        W34598  11.227   6.111  15.154 -0.0801  0.3427  0.0981
18982W        W34599   4.244   2.159  14.986  0.2527 -0.2259 -0.2774
18983W        W34600   6.599   6.301  13.540 -0.1467  0.0159  0.1349
18984W        W34601  14.918  13.517   1.357 -0.1194 -0.0755  0.0310
18985W        W34602  13.956   0.259  10.033  0.0139  0.0827 -0.2487
18986W        W34603   7.937  14.769  11.996  0.1429  0.0556  0.1106
18987W        W34604  11.498  15.029  13.412 -0.1095  0.3494  0.0290
18988W        W34605   4.939   1.481  12.499 -0.3634  0.2494  0.1604
18989W        W34606  12.361   1.612  11.470  0.1301  0.0979 -0.1222
18990W        W34607  12.856   9.908  14.639 -0.3515  0.0259  0.4331
18991W        W34608  16.902  13.065   5.130 -0.1217 -0.0804 -0.1725
18992W        W34609   9.854   6.219  14.239 -0.1423 -0.1714 -0.0577
18993W        W34610  11.616  17.081  11.164  0.1038  0.3591 -0.1237
18994W        W34611  13.251   7.788   4.268 -0.0165 -0.0043  0.1106
18995W        W34612  13.557  10.866   2.839  0.5104  0.1078 -0.3246
18996W        W34613   3.777   6.046  14.376 -0.1180 -0.3146 -0.1474
18997W        W34614  15.264   4.509  12.518  0.1609 -0.2136  0.0835
18998W        W34615  15.324  11.309  10.523  0.0770 -0.3644 -0.0048
18999W        W34616   4.368   8.927   3.683 -0.1187 -0.0929  0.3535
19000W        W34617  14.478  12.704   2.952  0.0754 -0.0438 -0.4083
19001W        W34618   3.182   8.887   4.488  0.0084  0.3974  0.1245
19002W        W34619   5.754   5.251   0.610 -0.0752  0.0456 -0.2123
19003W        W34620  13.749   2.722  12.458 -0.0595  0.1929  0.2330
19004W        W34621  15.687  10.530   3.699 -0.3083  0.1396 -0.1214
19005W        W34622   0.885  10.936  10.761  0.1301  0.1763 -0.1599
19006W        W34623  13.254   0.162   3.845  0.4507  0.0499 -0.1822
19007W        W34624   4.133  14.082  12.180 -0.0042 -0.0560 -0.0310
19008W        W34625   9.690  12.657   1.264  0.2105 -0.2242 -0.0884
19009W        W34626  10.414  15.449  13.836 -0.4542 -0.1891 -0.2581
19010W        W34627  11.526  18.270  10.948  0.1229 -0.1308  0.0773
19011W        W34628  15.953   2.233  11.355 -0.0661 -0.0699  0.0273
19012W        W34629  15.038  18.568   2.850 -0.2434  0.1998  0.2146
19013W        W34630  15.887   3.051   3.910 -0.2164  0.1253 -0.1462
19014W        W34631  17.393   4.668   0.760  0.2351  0.2526  0.0128
19015W        W34632  16.581  16.833   4.104  0.4104 -0.3183 -0.0685
19016W        W34633  12.412   7.470  12.772  0.2341  0.6108 -0.2084
19017W        W34634   0.233  16.197  13.154  0.1392 -0.1168  0.2079
19018W        W34635   2.929   8.442   4.430 -0.0879  0.1414 -0.1892
19019W        W34636   5.774  11.484  12.910 -0.0900  0.1554  0.4245
19020W        W34637   4.645   9.281  13.764 -0.0440  0.1276 -0.4445
19021W        W34638  18.486   1.983   4.600  0.4676 -0.3037  0.1805
19022W        W34639  11.911   3.425  10.217  0.2069  0.2148 -0.0111
19023W        W34640  14.140  14.029  11.109 -0.2800 -0.0473 -0.2448
19024W        W34641   5.748   3.600  12.930  0.1670 -0.0783 -0.3609
19025W        W34642  13.239   6.113  14.652  0.3341 -0.3448 -0.1829
19026W        W34643  14.186   7.465   2.853  0.1891  0.0633  0.1206
19027W        W34644  15.304  14.255   0.437  0.1468 -0.4020 -0.3282
19028W        W34645   3.200   1.687  13.603  0.2723 -0.1036 -0.2440
19029W        W34646   5.877  15.583  14.759 -0.2877 -0.1454 -0.1244
19030W        W34647  13.350  17.177  13.206  0.0378  0.0270  0.0594
19031W        W34648  17.199   7.074  12.479 -0.0814  0.2345 -0.0376
19032W        W34649   1.690   3.768  10.066 -0.1540 -0.2426  0.1978
19033W        W34650   4.592  17.289  12.718  0.2151  0.1438  0.0152
19034W        W34651  15.672   4.758  13.868 -0.1070  0.3593 -0.0285
19035W        W34652   3.048   9.790   0.376 -0.3053  0.0663  0.1151
19036W        W34653  13.328   1.326   2.098 -0.3266  0.0181  0.0019
19037W        W34654  13.380  15.702  12.129  0.2253 -0.0571 -0.1496
19038W        W34655   9.430   2.775   4.429 -0.0886 -0.4171  0.0567
19039W        W34656   1.981  11.646  14.661  0.1233  0.0792  0.4387
19040W        W34657   4.521   1.857  12.690  0.1574  0.2352 -0.3139
19041W        W34658  15.475   3.671   2.488  0.1923  0.2237  0.1622
19042W        W34659  10.342   5.296   1.709 -0.1925  0.0113 -0.2421
19043W        W34660   3.729  18.553  11.548  0.2346 -0.1967  0.1950
19044W        W34661   4.272   1.465   5.878 -0.1308  0.0218  0.1580
19045W        W34662  14.410   2.489  13.044  0.1643  0.2912 -0.0744
19046W        W34663  14.255   7.423  12.398 -0.0967  0.1554 -0.0791
19047W        W34664   0.207  18.099   4.133 -0.1111  0.0000 -0.2749
19048W        W34665   9.492   4.200  11.330 -0.1465 -0.0612 -0.2656
19049W        W34666   7.878  16.390  14.690 -0.1224 -0.3936 -0.4563
19050W        W34667   2.113   4.721   0.729  0.2182  0.0839  0.0301
19051W        W34668   9.687  18.622   2.174 -0.4210 -0.3162 -0.1817
19052W        W34669   7.730  17.067   2.673 -0.0211 -0.0076 -0.0043
19053W        W34670   0.534  10.399   4.202 -0.1702 -0.0321 -0.1141
19054W        W34671  18.585  10.279  11.197 -0.1249  0.0826 -0.2486
19055W        W34672  10.395  10.555   4.322  0.4804  0.2679 -0.0527
19056W        W34673   6.822  15.530  14.057  0.0045 -0.0045  0.1101
19057W        W34674  12.420  14.711   0.677  0.2048  0.0513  0.0328
19058W        W34675   3.858  16.941  15.060  0.1277  0.2290 -0.0305
19059W        W34676  11.498   6.615   1.182 -0.0127  0.1132  0.0297
19060W        W34677  18.105  16.236  12.245 -0.1472 -0.0476 -0.1281
19061W        W34678   4.564  14.482  14.826 -0.1672  0.3283  0.2498
19062W        W34679   0.685  14.730  13.774  0.2074  0.1565 -0.0548
19063W        W34680  15.804   0.954  14.705 -0.0543 -0.0020 -0.1134
19064W        W34681   3.454  18.273   1.907  0.1251  0.2137  0.0368
19065W        W34682   9.655   3.715   1.351  0.0425  0.2337  0.0960
19066W        W34683   2.189   8.037  12.809  0.3003  0.1074 -0.4472
19067W        W34684  10.115   0.834   0.956  0.2776  0.1450 -0.4763
19068W        W34685   9.424  14.165  13.865 -0.2579  0.2370 -0.3210
19069W        W34686  13.319   0.810  10.388  0.1098  0.0329 -0.3306
19070W        W34687  14.898  11.017   1.505  0.1967 -0.1132  0.1119
19071W        W34688   4.215   0.453   2.457  0.0871 -0.2031 -0.0551
19072W        W34689   4.698   0.681   4.058 -0.0821  0.1478 -0.2446
19073W        W34690   2.487   5.909   4.953  0.3052 -0.1650 -0.0168
19074W        W34691   0.148  11.365  13.504  0.1942 -0.1040  0.0531
19075W        W34692   2.206   5.999  14.578 -0.3204 -0.1098 -0.0049
19076W        W34693   4.713   7.099   4.960 -0.3537 -0.0358  0.4016
19077W        W34694  17.333  11.869   5.319  0.0479 -0.4208 -0.1519
19078W        W34695  17.163   1.455   3.222 -0.2956 -0.4035  0.2499
19079W        W34696   4.141   2.967  14.192 -0.0047  0.2078  0.1535
19080W        W34697   7.626  15.753  11.991 -0.1364 -0.0275 -0.0629
19081W        W34698  15.861  13.357  12.764  0.0543  0.1058 -0.1709
19082W        W34699  14.697   5.554   2.167 -0.0881  0.2116 -0.1918
19083W        W34700   8.843   5.076  12.874  0.0904 -0.3288 -0.1588
19084W        W34701   7.353  14.902   3.844  0.0585 -0.1474 -0.0923
19085W        W34702  13.583   8.546   1.944  0.0427 -0.0021  0.1218
19086W        W34703  17.398  11.030   5.264  0.0224 -0.0291 -0.5656
19087W        W34704   6.351  10.327  11.956 -0.1137 -0.0844  0.0397
19088W        W34705  11.478   4.178   1.577 -0.3702 -0.1742 -0.2709
19089W        W34706  12.556  12.623  11.637  0.3678  0.2290  0.2542
19090W        W34707  17.344   0.741  11.055  0.1266  0.0485 -0.2189
19091W        W34708  13.446   3.508  10.187 -0.0216  0.0615 -0.3113
19092W        W34709   7.270   8.682  13.803  0.1375 -0.1299  0.0607
19093W        W34710  10.064  10.656  11.328 -0.1312  0.1604 -0.2886
19094W        W34711  10.444   9.758   5.585 -0.0838 -0.1562  0.0389
19095W        W34712   0.417   0.692   0.164 -0.0174 -0.3863 -0.2576
19096W        W34713  17.170  11.530  10.583 -0.0001  0.1621  0.2461
19097W        W34714   7.635  17.457   2.934 -0.0956 -0.0597  0.2154
19098W        W34715   5.056   0.174   9.964 -0.0691 -0.2353 -0.1919
19099W        W34716  16.723  15.104   5.269 -0.3570 -0.3715  0.1608
19100W        W34717  18.735   0.364   9.668  0.3596 -0.0684 -0.0375
19101W        W34718   5.390  10.163  10.779 -0.3266  0.2925  0.1650
19102W        W34719   4.167   6.477   2.863 -0.0161  0.1960 -0.0638
19103W        W34720  12.610  11.467  11.993  0.0768  0.2161  0.1553
19104W        W34721   4.953  18.067   4.533  0.4266  0.2915  0.1109
19105W        W34722   5.348   5.345   0.226 -0.0107  0.1929 -0.0455
19106W        W34723  17.474   4.271  13.344  0.2283  0.1289 -0.3525
19107W        W34724   8.438  11.013  13.712 -0.1289  0.0803 -0.2231
19108W        W34725   4.625   5.700   1.483 -0.1291  0.2498  0.0190
19109W        W34726   1.637   5.505  11.079 -0.0122 -0.5300 -0.1469
19110W        W34727   2.685  12.778   4.697 -0.1233  0.2574  0.0499
19111W        W34728  18.998   1.477   2.959  0.2772 -0.1516 -0.1249
19112W        W34729   1.927  18.183   9.134 -0.0814  0.0122 -0.0873
19113W        W34730   9.951  13.879   4.446  0.1370 -0.2775  0.0123
19114W        W34731   8.034   8.119   3.876 -0.0586  0.3897 -0.0618
19115W        W34732   6.646  16.978   1.294  0.3297 -0.1105  0.0146
19116W        W34733   0.804   0.978   1.932 -0.1754 -0.0987  0.1192
19117W        W34734  16.200  16.746   2.576 -0.3507  0.2571 -0.0487
19118W        W34735   1.752   9.972  10.382  0.0749  0.2216 -0.0330
19119W        W34736  12.633  14.352  12.337 -0.2380 -0.0893 -0.0111
19120W        W34737   6.456   3.391   2.967  0.0293 -0.1149 -0.1406
19121W        W34738   6.104   5.816  14.225 -0.0784  0.1221 -0.2252
19122W        W34739   6.473   8.183  14.936 -0.1795  0.0010 -0.0716
19123W        W34740   3.844  18.679  15.279  0.1006 -0.0326  0.0686
19124W        W34741   4.112  16.413  11.996  0.1061 -0.1491 -0.2796
19125W        W34742   0.367  11.899   4.346 -0.3431  0.4434 -0.1713
19126W        W34743   5.262   1.131   9.761  0.0444 -0.2719  0.0081
19127W        W34744   7.901   5.455  13.836 -0.3629 -0.1954  0.1190
19128W        W34745  11.675   2.319  10.354  0.2546 -0.0850  0.4537
19129W        W34746  13.370  12.405  15.163  0.1102  0.1144 -0.0395
19130W        W34747   5.511  14.447  12.502 -0.0344 -0.2272  0.2986
19131W        W34748  14.411  11.030  12.683  0.0602 -0.2270  0.2860
19132W        W34749   2.313   4.498  12.293 -0.0637 -0.2683  0.1030
19133W        W34750  16.052  16.960  14.797 -0.4552  0.1616  0.3532
19134W        W34751  17.956  16.036  10.613 -0.2850  0.1699 -0.1885
19135W        W34752   3.627  15.948  12.084 -0.1443  0.1603 -0.2476
19136W        W34753  12.373  10.158  12.824 -0.0090  0.4074  0.0559
19137W        W34754   1.145  14.194  11.634 -0.0914 -0.1920 -0.1118
19138W        W34755   2.429   7.682   0.158 -0.0483  0.0758  0.3649
19139W        W34756   7.567  17.487   3.469  0.0094  0.0999  0.1406
19140W        W34757   9.322  11.152  13.206  0.0676  0.0792  0.1662
19141W        W34758   6.318   9.304   1.572 -0.0931  0.0214 -0.1823
19142W        W34759  10.380  17.140   0.843  0.2628  0.2671  0.1671
19143W        W34760   2.513  13.656  14.483 -0.0304  0.2055 -0.2053
19144W        W34761   1.886  10.994   4.228 -0.3418 -0.2188  0.0265
19145W        W34762  15.064  12.078   0.777  0.4829  0.0572 -0.0073
19146W        W34763  14.183  18.620   1.367  0.1411  0.2225 -0.0213
19147W        W34764   5.777  14.633   4.026  0.1210 -0.0420 -0.2092
19148W        W34765   5.928  18.030   1.587 -0.1265  0.2996 -0.0262
19149W        W34766  15.989   6.900  14.757  0.0750 -0.1665 -0.0825
19150W        W34767   3.867   9.381  11.508 -0.1703 -0.3183 -0.2444
19151W        W34768   8.049  13.086  14.499 -0.3093 -0.0262  0.0036
19152W        W34769   3.102  10.244  12.421 -0.1896 -0.3081  0.0396
19153W        W34770   7.982   2.907   4.848  0.2279 -0.3736 -0.2822
19154W        W34771  15.511   3.424  10.407 -0.0296 -0.0439 -0.2909
19155W        W34772   8.010  13.125   4.348  0.2746  0.3906  0.0974
19156W        W34773   0.266   3.641   0.243  0.0106 -0.2722 -0.4995
19157W        W34774  18.446  18.953   0.921 -0.0316 -0.2891 -0.0362
19158W        W34775  13.665  14.088   1.631 -0.0902  0.1731 -0.3792
19159W        W34776   6.541   7.519   2.260  0.1858  0.1808 -0.1469
19160W        W34777  15.709   6.558   3.568 -0.4559  0.0045 -0.2278
19161W        W34778   7.662  12.329   4.995  0.1652 -0.1122 -0.0639
19162W        W34779  14.367   3.718   1.623 -0.1854  0.0183 -0.1048
19163W        W34780  16.715  14.055   2.956  0.2626  0.1767 -0.3409
19164W        W34781   2.764   2.878   1.527 -0.0519 -0.1920  0.1002
19165W        W34782  15.710   9.521   0.357 -0.1725 -0.0514 -0.1619
19166W        W34783  14.370   8.518   2.283 -0.2190  0.4698  0.0243
19167W        W34784  17.570  17.516   3.857 -0.2018  0.1498  0.1646
19168W        W34785   3.471  17.432  12.796 -0.1011 -0.0214 -0.3755
19169W        W34786  13.080  12.201   3.850 -0.1383  0.0974  0.1412
19170W        W34787   1.401  13.296   4.335 -0.1380 -0.1742 -0.3561
19171W        W34788   7.183  14.235  14.866 -0.1028  0.0258 -0.0051
19172W        W34789   3.118  19.076  11.520  0.3411  0.0898  0.1662
19173W        W34790   8.281  10.545   1.495  0.2820 -0.1668  0.1304
19174W        W34791   4.224  18.529   1.039 -0.2244  0.0121 -0.1742
19175W        W34792   0.552   7.534   0.178 -0.0292  0.3063  0.1551
19176W        W34793  17.216  16.644   1.328 -0.0626  0.2469 -0.0555
19177W        W34794   1.623   1.819  14.624  0.2596 -0.0610 -0.2130
19178W        W34795  12.481  10.018  12.333 -0.4592  0.1256  0.5614
19179W        W34796   7.200  10.568   3.039 -0.2159  0.2320  0.2175
19180W        W34797  16.232  14.125  13.265 -0.0010  0.1009 -0.1587
19181W        W34798   3.608   3.906   4.646 -0.1620 -0.1716 -0.3028
19182W        W34799   3.343   1.560   1.453  0.1551  0.0963  0.1328
19183W        W34800  15.323   2.837  10.355  0.1399  0.0405 -0.2413
19184W        W34801   5.665   0.086   5.448  0.3682 -0.5687 -0.1990
19185W        W34802   5.354   0.933  12.714 -0.2602 -0.1471  0.0887
19186W        W34803   8.026   9.281   5.686  0.1348 -0.2242  0.1397
19187W        W34804   1.346  11.996   0.160 -0.1869 -0.1352  0.2606
19188W        W34805   0.153   6.415  11.780  0.2234 -0.0748  0.0008
19189W        W34806   9.167  18.637  12.176  0.0690  0.0817 -0.0894
19190W        W34807  12.439   9.887   1.222  0.2631  0.1788  0.2948
19191W        W34808   9.131   0.707  13.401 -0.2698  0.0541  0.0789
19192W        W34809   4.118  11.630   0.624 -0.2465  0.2667  0.1312
19193W        W34810   7.073  13.083  13.676  0.0229  0.0778  0.2159
19194W        W34811   3.946   5.478   4.103 -0.3373  0.3951 -0.1855
19195W        W34812   9.999  13.803   2.286  0.3087  0.0766 -0.0600
19196W        W34813  16.054   2.588  13.902 -0.2031  0.0660 -0.2307
19197W        W34814   3.303  13.592  14.090 -0.0972  0.0290  0.1500
19198W        W34815  10.361  16.954  11.118  0.1825 -0.1272 -0.0218
19199W        W34816   2.067   5.539  13.517 -0.1201  0.0709 -0.2437
19200W        W34817  11.338  11.637   0.044 -0.2727  0.1927  0.2312
19201W        W34818  12.415   9.547  12.298  0.2470  0.2902 -0.3015
19202W        W34819  16.713   9.541  13.436 -0.0238 -0.0682 -0.1068
19203W        W34820   2.493   9.209  10.896  0.1868  0.0610 -0.1070
19204W        W34821  17.632   8.648  13.846  0.1275 -0.2240  0.3036
19205W        W34822   8.219   5.849   3.870  0.3369 -0.0847  0.0444
19206W        W34823   7.443  17.213  11.821 -0.1653 -0.0787  0.4430
19207W        W34824  12.099   6.394   0.451  0.0408  0.0773 -0.2464
19208W        W34825   0.140  16.893   2.838 -0.0748  0.1840  0.0190
19209W        W34826  12.827  11.463  15.145  0.1793 -0.1024 -0.1007
19210W        W34827  17.401  14.963   2.176  0.4019 -0.3401  0.0394
19211W        W34828   6.064  17.715  14.281 -0.1073 -0.1277  0.0005
19212W        W34829  15.565   4.314   3.599 -0.1156 -0.2268  0.5819
19213W        W34830   0.939   6.535   1.929 -0.0471 -0.2587  0.4286
19214W        W34831   4.186   7.256  11.520 -0.2986  0.1150  0.2764
19215W        W34832   5.138  18.502   5.312 -0.0465  0.2584 -0.1412
19216W        W34833  16.952  18.204  13.696  0.0247 -0.0538  0.0164
19217W        W34834   6.130  18.820   0.392 -0.1660 -0.0921  0.0687
19218W        W34835   4.599   3.776   1.868  0.0594 -0.0356  0.0218
19219W        W34836  12.169   3.561   1.651  0.1211  0.2886 -0.4072
19220W        W34837   0.760   9.388   3.593 -0.2461 -0.0726  0.1220
19221W        W34838   4.244   1.293  15.028 -0.0591  0.4008 -0.0163
19222W        W34839   5.597   2.243   1.062 -0.2536 -0.1031 -0.0541
19223W        W34840  16.322   5.087  12.036 -0.2810  0.2209  0.3053
19224W        W34841  12.703   5.413  14.305  0.2668 -0.2317 -0.1518
19225W        W34842  14.284   0.785  12.956  0.1820  0.0578 -0.2037
19226W        W34843  18.035   2.005   2.140 -0.2009  0.1299  0.0262
19227W        W34844   3.615   6.515  11.257 -0.2335 -0.1127  0.0666
19228W        W34845   2.797  13.202  14.227 -0.0221 -0.0399 -0.1680
19229W        W34846   3.528  13.783  10.530  0.3530  0.1052 -0.1514
19230W        W34847  18.858  14.729  14.398  0.0265 -0.0197  0.0291
19231W        W34848  14.940   4.063   3.813 -0.0241  0.0815  0.4201
19232W        W34849  18.635   0.216   1.237  0.0065  0.0459 -0.1007
19233W        W34850   7.930   6.038   1.301  0.1369  0.1824 -0.3247
19234W        W34851  18.937  18.713  14.668  0.1050  0.5464 -0.2875
19235W        W34852  18.316  15.202   4.823 -0.3263 -0.3374  0.0424
19236W        W34853   9.145   5.472  13.172  0.1733 -0.0416  0.0705
19237W        W34854   4.524  11.667   0.963 -0.4030 -0.1134 -0.1574
19238W        W34855  10.459   1.463  15.053  0.0787 -0.4424  0.1300
19239W        W34856  14.302   7.957  11.478  0.0807 -0.0585 -0.3545
19240W        W34857  12.798  18.991   2.074 -0.0090  0.4263 -0.0823
19241W        W34858   9.771  17.246  14.421 -0.3769  0.0252  0.0773
19242W        W34859   0.473   9.827  14.014 -0.2302  0.1122 -0.3186
19243W        W34860   2.683   6.396  15.044  0.0881 -0.0600 -0.1325
19244W        W34861  10.414  10.736  14.548  0.1003 -0.0323 -0.0520
19245W        W34862   5.419  14.755  14.303 -0.3920 -0.3124 -0.5805
19246W        W34863   5.364   4.127   3.020  0.5261  0.0174 -0.1627
19247W        W34864   6.755   8.635  13.316  0.2876  0.0315 -0.1534
19248W        W34865   8.400  14.159   0.392  0.0907  0.0624 -0.0469
19249W        W34866  14.432   5.509  13.841  0.1655  0.2140  0.0664
19250W        W34867   4.173  18.335  11.999  0.1085 -0.0502  0.1515
19251W        W34868   8.239   9.041   3.744  0.0432 -0.2845 -0.2015
19252W        W34869   6.682  15.127   1.960  0.1707  0.0161 -0.0802
19253W        W34870   7.288   8.821   4.088 -0.1329  0.3814  0.3388
19254W        W34871   1.974   0.619  11.858  0.4205 -0.1722  0.0251
19255W        W34872  17.618   5.980   5.175  0.0137 -0.0324  0.2065
19256W        W34873   9.087   6.830   0.065  0.2642 -0.0868  0.1944
19257W        W34874  19.036   6.539  14.839 -0.3998  0.2278 -0.0216
19258W        W34875  16.423  17.691  14.577  0.2222 -0.0254  0.0026
19259W        W34876  18.043   6.111  11.540  0.0546  0.2501  0.2064
19260W        W34877  15.189  14.745  10.644  0.0784 -0.0306 -0.2702
19261W        W34878  14.524  11.812  15.161 -0.1066 -0.0529 -0.1408
19262W        W34879   3.940   6.559   2.011  0.1691 -0.0260  0.2872
19263W        W34880   5.343  10.858  15.229  0.0638  0.1159  0.2045
19264W        W34881  12.906  17.614  13.829 -0.1197 -0.0042 -0.0258
19265W        W34882   2.234  18.378  13.162  0.3314 -0.1131 -0.0710
19266W        W34883  11.524   3.217   3.072  0.3178 -0.2964 -0.0169
19267W        W34884   9.626   5.108   0.109  0.1585  0.0527  0.2374
19268W        W34885   2.645   6.850   3.937 -0.0345 -0.0673  0.0892
19269W        W34886  17.270  12.537   1.821 -0.0958  0.1077 -0.2015
19270W        W34887  16.419   5.395  14.669 -0.2057 -0.0361 -0.0962
19271W        W34888  13.620  14.371   5.103  0.5240 -0.1126  0.4358
19272W        W34889  12.599   8.787   2.990 -0.1564  0.0236  0.0568
19273W        W34890  15.511   0.493  13.050  0.4831  0.0615 -0.0505
19274W        W34891  10.160  14.736   1.299  0.1483 -0.1045 -0.1851
19275W        W34892   7.895   7.666   3.688  0.0431  0.0383  0.0760
19276W        W34893  17.980  13.984  11.770  0.1217 -0.1071  0.0615
19277W        W34894   2.234   0.338   4.966 -0.1169  0.0960  0.2366
19278W        W34895   7.679  18.473  10.385  0.0639 -0.0805  0.0187
19279W        W34896   6.602   8.856  14.139  0.0133  0.1709 -0.1138
19280W        W34897   2.661  13.227   2.784 -0.2645 -0.1109  0.1562
19281W        W34898   8.327  11.606   4.375 -0.0215  0.0542  0.3101
19282W        W34899   9.142  11.710   3.593 -0.0162 -0.2381  0.4442
19283W        W34900  17.134   6.356  15.198  0.1047 -0.3328 -0.1201
19284W        W34901  18.933  15.058  11.454  0.1190 -0.2756 -0.2109
19285W        W34902   2.550  18.748  14.196  0.2787 -0.2114 -0.0999
19286W        W34903  17.877   7.039   1.225  0.0690  0.2312  0.0437
19287W        W34904  13.941  16.445  11.930  0.1600 -0.2583  0.0065
19288W        W34905   2.414   0.981   0.591  0.4128  0.2899 -0.0537
19289W        W34906   3.458   9.529   1.857  0.1891  0.1881 -0.0696
19290W        W34907   2.131  18.350   2.960  0.0292 -0.3075  0.2711
19291W        W34908   2.824   7.770  14.233  0.0684 -0.0630 -0.3149
19292W        W34909   3.885  14.543  12.316  0.0087  0.0342  0.1176
19293W        W34910   0.847   8.147  14.818 -0.0978 -0.1359  0.0204
19294W        W34911   3.268   3.621   4.366 -0.1541  0.1382 -0.1293
19295W        W34912   3.923   9.418   3.901 -0.0730  0.2180  0.4039
19296W        W34913   1.217  17.983  10.310 -0.0887  0.0847  0.3277
19297W        W34914   1.947  18.326  15.199 -0.2754  0.3768  0.0046
19298W        W34915  15.313  13.959   4.494 -0.2123 -0.0822 -0.3400
19299W        W34916  15.600   8.337   1.708 -0.1862  0.1169 -0.1321
19300W        W34917   9.527   0.645   2.997 -0.0338  0.1904 -0.4708
19301W        W34918   9.224   2.723   2.729 -0.2935 -0.0453  0.1429
19302W        W34919   9.662   1.790   5.942  0.0263  0.3088  0.4287
19303W        W34920  13.389   3.897  14.108 -0.0725  0.0466 -0.1164
19304W        W34921   8.315   1.568   3.880  0.1074  0.3145 -0.4744
19305W        W34922  11.769  10.950   3.632  0.1278 -0.1895 -0.0610
19306W        W34923   7.289   7.751   0.134  0.1567  0.2073  0.2211
19307W        W34924   6.629   1.545  11.819  0.2388 -0.0909  0.2545
19308W        W34925  11.920   8.671   4.404  0.1870 -0.0147  0.2803
19309W        W34926  12.196   0.347   1.646 -0.2994  0.1478  0.0351
19310W        W34927   6.178  15.477   3.997 -0.2558 -0.1185  0.1406
19311W        W34928  17.731   1.025   3.062 -0.2050  0.1979  0.0765
19312W        W34929  18.033  17.126  11.962 -0.2026  0.0219 -0.0245
19313W        W34930  17.788   2.531  14.071  0.0793 -0.0211 -0.0100
19314W        W34931   1.424   5.133   4.750 -0.1767  0.0984  0.1589
19315W        W34932  11.701  17.982  15.194 -0.0894  0.1108 -0.0719
19316W        W34933   5.749   8.761  14.071  0.0293  0.0074  0.1317
19317W        W34934   8.098  11.567   3.553  0.1729  0.1855  0.1635
19318W        W34935   0.829   0.274   4.712 -0.3319 -0.1185  0.2399
19319W        W34936   6.865  12.826   0.151  0.0743  0.0170  0.0350
19320W        W34937  14.836   1.145  13.606  0.3696  0.1548 -0.1464
19321W        W34938   3.481   9.985  13.335  0.0506  0.1248  0.2050
19322W        W34939   3.453  11.744  11.141  0.4520  0.0687 -0.3033
19323W        W34940   7.718   5.221  12.100 -0.0035  0.0076  0.0726
19324W        W34941  13.664   5.916  11.723 -0.0573 -0.0509  0.0357
19325W        W34942   4.714   9.808   0.828 -0.1626  0.3323 -0.0161
19326W        W34943   2.364   3.012   4.241  0.0228  0.1418 -0.1752
19327W        W34944  10.795   7.577   1.996  0.3229 -0.1484 -0.3483
19328W        W34945   8.582  11.500  14.270 -0.2819 -0.2379 -0.1195
19329W        W34946  16.983   7.673   5.392 -0.1447 -0.0533 -0.2399
19330W        W34947   7.926  13.877   1.689 -0.0270  0.2761 -0.1154
19331W        W34948   9.274   2.169  14.218  0.0346 -0.1083 -0.1777
19332W        W34949  13.506   3.750   0.348 -0.0623  0.0277  0.1886
19333W        W34950   2.520  14.567  13.429 -0.1448  0.2047 -0.0162
19334W        W34951  18.598  17.243  13.759  0.1689 -0.2503 -0.0531
19335W        W34952  16.809   8.430   0.752  0.3091 -0.3840 -0.2523
19336W        W34953   9.436   6.073   3.288  0.3287 -0.1156 -0.0677
19337W        W34954  15.715  10.607  13.819  0.1381  0.0963  0.0811
19338W        W34955   7.486  18.025   2.053 -0.2972  0.1002  0.0033
19339W        W34956   4.623   1.567   5.035 -0.0117 -0.0319  0.3090
19340W        W34957  13.005  19.055  10.923  0.0189 -0.0331 -0.0432
19341W        W34958   0.029  11.021  14.922  0.0669 -0.1210  0.1425
19342W        W34959  17.663   1.710   0.305 -0.2002 -0.1884 -0.0653
19343W        W34960   2.226   0.340  14.036  0.2410 -0.1652 -0.1064
19344W        W34961  12.416   7.362   3.962  0.2611 -0.2007 -0.3610
19345W        W34962  13.808   9.510   4.389  0.1646 -0.2254  0.1655
19346W        W34963  16.316  13.823  15.187  0.0452  0.1964  0.0324
19347W        W34964   4.212  11.125   4.250  0.1465 -0.3296  0.1580
19348W        W34965   5.757  15.091  14.933  0.0033 -0.2393 -0.2903
19349W        W34966  13.740  13.938  13.290  0.0015 -0.2701 -0.0413
19350W        W34967   1.804   9.071   4.234  0.2079  0.1359  0.1805
19351W        W34968   4.481   3.384   4.898 -0.0598 -0.0695 -0.3083
19352W        W34969  14.535  17.158   5.010 -0.1572 -0.0331 -0.1666
19353W        W34970   9.078  16.898  12.067  0.1350  0.1131 -0.0289
19354W        W34971   6.194  17.997  12.373  0.1059 -0.0790  0.0554
19355W        W34972  17.203  13.469  13.422 -0.3602  0.2970 -0.3327
19356W        W34973   3.387  18.169   5.006  0.0261 -0.1160 -0.1289
19357W        W34974  18.225   4.140  14.413  0.2202  0.2380  0.1059
19358W        W34975   4.702  12.518   1.954  0.0950 -0.0555 -0.3755
19359W        W34976   6.779  16.007   5.082  0.0115 -0.0708  0.2452
19360W        W34977   1.147   6.162  12.271  0.1270 -0.1770  0.0558
19361W        W34978  12.076   4.647   4.173  0.0740 -0.0163  0.4217
19362W        W34979   3.704  11.904   4.326 -0.2357  0.0299 -0.1277
19363W        W34980  17.748   2.789   3.132  0.2609  0.3516 -0.2214
19364W        W34981   6.230   4.983  10.943  0.0276 -0.3154  0.1029
19365W        W34982  16.671   4.368   1.067 -0.3349 -0.1710 -0.0146
19366W        W34983  11.899   9.053   3.637  0.0805 -0.2085 -0.1105
19367W        W34984   1.469  14.426  11.166 -0.2489 -0.1823 -0.2031
19368W        W34985  15.268  14.680  11.142 -0.3879  0.3941 -0.2375
19369W        W34986   0.591  10.316   4.746  0.1108  0.3195  0.1367
19370W        W34987   1.400   1.410   1.376  0.1284  0.1588 -0.2812
19371W        W34988   2.507  13.923  10.294  0.1814 -0.2882  0.0612
19372W        W34989  11.234   6.463  13.549 -0.0010  0.0404  0.0890
19373W        W34990  16.020   7.511   1.453  0.2202 -0.1222 -0.3084
19374W        W34991  11.941  11.552  14.097  0.0595  0.2158  0.0501
19375W        W34992   0.438  15.106   5.153 -0.2918 -0.3252  0.1156
19376W        W34993  12.665  11.154  13.926 -0.4085  0.2573  0.3796
19377W        W34994  18.674  13.665   3.049  0.0891 -0.2127  0.0141
19378W        W34995   1.274   8.654   2.807  0.2807 -0.1637  0.0234
19379W        W34996   6.669  17.526   4.992 -0.2705 -0.2058 -0.1336
19380W        W34997   2.226   7.151  10.181 -0.3443  0.0690 -0.1078
19381W        W34998   6.317   6.334  14.324  0.0958  0.1760  0.2089
19382W        W34999   3.612   0.838   1.212 -0.3325 -0.1161  0.0528
19383W        W35000  17.154  17.595  10.393 -0.0615  0.1391 -0.0008
19384W        W35001  16.479   1.578   1.737 -0.1972 -0.1121 -0.0910
19385W        W35002   3.819   2.022   5.194 -0.0484 -0.1894  0.0249
19386W        W35003   6.392   5.772   3.393  0.3019 -0.2003 -0.0731
19387W        W35004  16.654  17.320  10.417 -0.1647 -0.0851 -0.0240
19388W        W35005   1.102  18.213   5.836  0.3628 -0.1010  0.0323
19389W        W35006   1.975  15.597  10.739  0.1221  0.0233  0.2864
19390W        W35007  16.738   2.885   3.388  0.0164 -0.0221 -0.0915
19391W        W35008  12.815  13.635   3.658  0.1814 -0.1264 -0.1788
19392W        W35009   8.135   7.557  13.528  0.1831 -0.0552  0.1445
19393W        W35010   3.598   6.007   3.209 -0.4758 -0.1626 -0.0139
19394W        W35011  12.035  10.963  12.475 -0.1679  0.2286 -0.1435
19395W        W35012  14.771   1.911  15.277  0.1953 -0.0240  0.2160
19396W        W35013   6.547  11.085   0.193  0.1432 -0.0758 -0.1855
19397W        W35014   1.834   9.281   1.391 -0.1826  0.2428  0.2772
19398W        W35015  11.608   3.164  10.587  0.1721  0.0413 -0.1114
19399W        W35016  16.949  17.568  11.432 -0.2032  0.1724  0.1001
19400W        W35017  14.751  11.579  13.674  0.1968  0.1010 -0.2901
19401W        W35018   4.465  10.268  10.566  0.2944 -0.2842 -0.0802
19402W        W35019  14.998   6.774   1.769 -0.0027  0.4003 -0.0076
19403W        W35020   7.149  13.899   2.891 -0.0889 -0.1494  0.0450
19404W        W35021   4.248   3.160   0.337 -0.1553  0.3178  0.2236
19405W        W35022   4.837  10.681  13.656 -0.0934  0.0458  0.1539
19406W        W35023  16.065   8.126   4.530 -0.1431  0.0156  0.2021
19407W        W35024  12.327   9.729   1.851  0.0248 -0.1533  0.2724
19408W        W35025  15.855   4.588  12.447  0.1598 -0.0398 -0.0932
19409W        W35026   2.511   6.853  13.155 -0.4207  0.1484 -0.0528
19410W        W35027   0.272  12.447  13.403  0.0956 -0.0967 -0.1424
19411W        W35028   3.650   7.356   2.980  0.0680 -0.1405 -0.4422
19412W        W35029  10.072   2.333  13.113 -0.0455  0.0529 -0.0618
19413W        W35030   7.847  15.229  12.087  0.1276  0.0624  0.0307
19414W        W35031   8.503  13.078  13.440 -0.0452  0.0288 -0.2344
19415W        W35032  18.065  13.060   0.309 -0.0942 -0.2945  0.1869
19416W        W35033   7.290  11.611  14.181 -0.1060  0.0627 -0.2367
19417W        W35034  16.289   2.285   3.982  0.1252  0.0231 -0.0152
19418W        W35035  12.412  13.575   0.457  0.2872  0.0108 -0.0472
19419W        W35036  12.600  13.643   3.101 -0.0573 -0.1224  0.1462
19420W        W35037  10.907   3.389  15.180  0.0521 -0.0375  0.0848
19421W        W35038   1.024  15.855  14.570  0.2111  0.0612  0.1713
19422W        W35039  10.614   3.692  10.812 -0.0984  0.1041  0.0775
19423W        W35040   8.038  15.363  14.791  0.0933  0.0119 -0.1074
19424W        W35041  18.489  15.139   1.778  0.0050 -0.0700  0.2424
19425W        W35042   4.025  17.913  10.637  0.0110  0.1346 -0.3084
19426W        W35043  14.137  16.739  12.421 -0.2336  0.3743  0.0390
19427W        W35044   0.417  11.707   2.274 -0.0643  0.3825  0.5355
19428W        W35045  13.231  18.084  12.055 -0.1114  0.1217  0.2426
19429W        W35046   4.046   2.953   1.700 -0.1361  0.0383 -0.1379
19430W        W35047   1.945   6.866   0.701 -0.2452 -0.1122  0.0974
19431W        W35048  15.127   8.606  12.621 -0.0682  0.0411  0.1007
19432W        W35049   0.799  14.934   0.605 -0.0776 -0.0877  0.1706
19433W        W35050  14.966   8.790  11.685  0.2575  0.0082  0.1756
19434W        W35051   6.732   7.065  15.275 -0.0253  0.1107 -0.0082
19435W        W35052   1.009  14.327   9.311 -0.1372 -0.0070 -0.0261
19436W        W35053  16.753  15.617   5.071  0.0316  0.2797 -0.1908
19437W        W35054   2.587   9.679   5.067  0.0555 -0.3612  0.2596
19438W        W35055   1.528   6.610  13.472 -0.2298  0.3810 -0.2297
19439W        W35056   5.012   0.653   1.074 -0.0888 -0.0588 -0.0932
19440W        W35057   9.489   4.652   0.202  0.0281  0.0983  0.0528
19441W        W35058  16.620  12.130  14.504  0.2175 -0.1603 -0.2603
19442W        W35059   3.179   8.634  14.757  0.2270 -0.1175  0.1622
19443W        W35060  10.526   2.962  12.434  0.0428  0.0915  0.0123
19444W        W35061  12.055  11.366   4.029 -0.3195  0.4398  0.1667
19445W        W35062  14.296   6.125   9.761  0.1495 -0.0814 -0.1273
19446W        W35063  14.070   3.267   4.231  0.1973  0.1174 -0.2463
19447W        W35064  11.422  17.246   9.729 -0.1123 -0.2807 -0.0834
19448W        W35065   5.629  11.162  12.472 -0.0968  0.4256 -0.0764
19449W        W35066   8.887  17.952  13.443  0.2067  0.2919  0.1263
19450W        W35067   0.511   9.610   2.834 -0.1817 -0.2314  0.0156
19451W        W35068   2.860  11.153   4.005 -0.1242 -0.2068 -0.0516
19452W        W35069  13.617  17.729  13.457  0.0651 -0.2231 -0.0170
19453W        W35070   6.818   0.817  12.380 -0.3517  0.0243  0.0832
19454W        W35071   0.273  10.192   0.298  0.2323 -0.1432  0.0753
19455W        W35072   7.049   0.726  15.221 -0.0532 -0.2864  0.1530
19456W        W35073  15.314   3.771  14.270  0.0788 -0.2146 -0.0693
19457W        W35074  11.926  16.022  10.835  0.1566  0.1890  0.0711
19458W        W35075   5.403   2.006   5.130 -0.3877  0.0440 -0.1014
19459W        W35076  12.269   4.185  14.599 -0.0831  0.1281  0.2400
19460W        W35077  13.539  18.793  12.611  0.0275  0.0562 -0.1318
19461W        W35078   5.980   1.631   0.771  0.0252  0.0647 -0.1362
19462W        W35079   8.708  14.388  14.049  0.0832 -0.1500 -0.0714
19463W        W35080  19.074   0.267   4.335  0.3505 -0.0263 -0.3917
19464W        W35081   4.045   3.875  13.217  0.3422 -0.4041  0.3361
19465W        W35082   4.281   6.060   4.654 -0.2230 -0.0500 -0.2493
19466W        W35083   5.661  10.636  11.427 -0.4088  0.3399  0.1623
19467W        W35084  10.923  14.768   1.251 -0.0008  0.0305 -0.1205
19468W        W35085   9.756  13.570   0.973  0.0580 -0.0042 -0.1517
19469W        W35086   8.311   1.307   1.028 -0.2074  0.0962  0.2455
19470W        W35087   9.237  16.566   4.858 -0.2720 -0.1845 -0.0848
19471W        W35088  18.212   3.822  12.706 -0.1841  0.0695  0.0396
19472W        W35089  15.000  11.337   2.819 -0.0299 -0.0154  0.3051
19473W        W35090   0.956  15.672   1.116 -0.2577 -0.0794  0.0098
19474W        W35091   5.868  11.529  11.613 -0.0091 -0.0023  0.6022
19475W        W35092   5.477  16.919   2.967  0.0552 -0.3191 -0.0347
19476W        W35093   4.004  10.213  13.587  0.1128  0.0141 -0.0404
19477W        W35094   9.671  18.624  15.101  0.0796  0.1572 -0.0379
19478W        W35095  15.464   5.953   2.432 -0.1922  0.2560 -0.1102
19479W        W35096   3.603   5.608  12.410  0.1617  0.3562 -0.2954
19480W        W35097  16.591   1.834  12.657  0.1647  0.1504  0.0334
19481W        W35098   9.628   8.746  12.755  0.0870 -0.0807  0.0506
19482W        W35099   5.629   0.077  13.117 -0.1870  0.2260 -0.0982
19483W        W35100  15.489   6.933  13.069  0.0422 -0.2366  0.0192
19484W        W35101  10.910  11.938   4.555 -0.1269 -0.1626 -0.0616
19485W        W35102   7.610  11.649   2.735  0.0626  0.1228  0.2646
19486W        W35103  13.139  15.938   1.281  0.1091  0.3026 -0.0024
19487W        W35104  13.998  11.434  11.962  0.0848  0.1141  0.2929
19488W        W35105  17.035   9.319  14.275  0.2618  0.0076  0.0028
19489W        W35106   1.967   9.609  13.583 -0.4529  0.1216 -0.0185
19490W        W35107  13.318   9.205   3.160 -0.1082 -0.0640  0.0474
19491W        W35108   4.035  17.614  11.885  0.0452  0.0114 -0.1752
19492W        W35109   5.357  15.518  11.684 -0.0606  0.1395  0.3989
19493W        W35110   6.017   0.438  12.891 -0.0239 -0.2336 -0.1331
19494W        W35111   0.836  18.900   1.354  0.0675 -0.3829  0.0178
19495W        W35112   2.739   2.317  12.179 -0.0383  0.1911  0.0859
19496W        W35113   0.761   6.448   0.192 -0.0672 -0.1158 -0.0315
19497W        W35114   1.351   2.096  13.354  0.0463  0.5858  0.0927
19498W        W35115  11.922   4.591  13.220  0.1348  0.0005  0.1212
19499W        W35116  11.830  13.355  10.836 -0.1862 -0.3349  0.3794
19500W        W35117   9.671  17.160   1.118 -0.1693 -0.2013 -0.0992
19501W        W35118   2.946   1.174  13.547 -0.5444  0.0725  0.0147
19502W        W35119  18.515  16.600  11.024 -0.1649 -0.2890 -0.1268
19503W        W35120   0.946  14.198   1.821 -0.0702  0.2900  0.1352
19504W        W35121  10.959  15.156  12.768  0.1860 -0.1634  0.2620
19505W        W35122  18.528  13.814  13.273  0.0115 -0.0353  0.0679
19506W        W35123  17.744  15.886  13.057 -0.1261 -0.2789  0.0135
19507W        W35124  10.706   1.848   4.071  0.4231 -0.0699  0.0349
19508W        W35125  13.670  17.924  12.795 -0.4438 -0.1420 -0.2686
19509W        W35126   0.385  17.030  10.522 -0.1743 -0.0128  0.3115
19510W        W35127   3.242   4.678   1.880 -0.0539 -0.0870  0.0356
19511W        W35128   6.444  17.640  13.351 -0.0894 -0.0189  0.2674
19512W        W35129  17.267   3.227   4.139 -0.0473  0.3106 -0.0399
19513W        W35130   2.897  17.435  11.811  0.0895  0.0249 -0.1442
19514W        W35131   2.343  16.154  14.445 -0.1127 -0.0621  0.3369
19515W        W35132  18.097  17.729  14.822 -0.1352 -0.0152 -0.3085
19516W        W35133  15.112  10.357   2.980 -0.0964  0.2209  0.1590
19517W        W35134  18.346  13.739  14.464 -0.0699  0.0903 -0.2255
19518W        W35135  11.090  12.427  12.832 -0.2926 -0.1292 -0.2750
19519W        W35136   4.023  10.893  10.353 -0.1325  0.4111  0.0986
19520W        W35137   7.160   8.118  11.761 -0.1694  0.1021  0.0618
19521W        W35138   0.700  11.638  13.019 -0.3142  0.0207  0.1792
19522W        W35139  10.933  14.342   0.990 -0.3308 -0.0141 -0.0583
19523W        W35140  10.521  17.263  10.207  0.4249 -0.0664  0.0119
19524W        W35141   2.009  13.347  14.499  0.1123  0.3116 -0.1040
19525W        W35142  13.450   5.336  11.806 -0.1521  0.0401  0.1747
19526W        W35143  18.746   5.798   1.244  0.0577 -0.3704  0.3409
19527W        W35144  18.538   6.155   1.593  0.0967 -0.0220  0.0701
19528W        W35145   4.183  14.213   2.260  0.3230 -0.1433  0.0563
19529W        W35146   9.928  14.685  14.830 -0.1426 -0.2464 -0.5433
19530W        W35147  18.015  12.269  11.977 -0.2908 -0.0364  0.2367
19531W        W35148  15.399   0.407   2.902 -0.0502 -0.0949 -0.0853
19532W        W35149   1.723   9.641   0.662  0.0468  0.0793 -0.0483
19533W        W35150   3.175   2.838   3.060  0.2104  0.3121  0.0987
19534W        W35151  10.601   6.752   2.339 -0.1544 -0.1058  0.0132
19535W        W35152   4.858  12.611  14.823 -0.1373  0.6179 -0.0329
19536W        W35153   7.311   2.905  12.548  0.1725  0.0290 -0.0888
19537W        W35154  13.203   6.981   4.820  0.0684  0.5853  0.0239
19538W        W35155   9.045   0.952   1.200 -0.0667 -0.0869  0.0248
19539W        W35156   9.626   5.713  14.512 -0.3231  0.1768  0.2087
19540W        W35157   5.284  16.365  14.502 -0.1097  0.0806 -0.2107
19541W        W35158   9.907  13.378   1.922  0.1327 -0.1183 -0.2000
19542W        W35159   1.666  16.155  11.016  0.1215 -0.1957 -0.2202
19543W        W35160   8.839  15.732  15.000 -0.2571 -0.0075 -0.1541
19544W        W35161  18.272  12.377   1.209 -0.2048  0.0750 -0.0775
19545W        W35162  18.018   9.089   0.413  0.5414 -0.2279  0.3730
19546W        W35163   8.753  11.562   2.004  0.1391  0.0628 -0.3091
19547W        W35164   8.030   2.668   2.857 -0.3717 -0.1545 -0.0439
19548W        W35165   6.118  17.087  10.900  0.2152  0.1451 -0.2627
19549W        W35166   2.720  14.177  11.997 -0.0279  0.3206  0.2029
19550W        W35167   4.172  10.712  12.386 -0.2838  0.2112 -0.1673
19551W        W35168   0.907  11.154  12.790 -0.1473 -0.0405 -0.0305
19552W        W35169   8.396   0.208   3.141  0.0361  0.0568  0.0352
19553W        W35170  17.270  13.316  11.674 -0.2193  0.1402 -0.0590
19554W        W35171   3.027   7.766   3.044  0.2562  0.1600 -0.0188
19555W        W35172  14.534  10.574  12.464  0.4975  0.1373  0.0342
19556W        W35173  17.102   4.424   3.363 -0.0127 -0.1859 -0.1462
19557W        W35174  13.382  13.123  13.865 -0.0875 -0.1234 -0.1612
19558W        W35175   3.840   4.860  14.388 -0.0662 -0.3499 -0.1552
19559W        W35176  10.546  12.330  13.534  0.0126  0.1158  0.0350
19560W        W35177   9.390   7.853   2.770 -0.0404 -0.0672 -0.0468
19561W        W35178  14.345  17.233  13.838 -0.2173  0.0788 -0.3153
19562W        W35179  11.840  16.414  12.472  0.0847 -0.1903 -0.2888
19563W        W35180   7.449  13.704   1.714  0.0595  0.0680  0.0489
19564W        W35181   4.667  10.675  11.533 -0.2594 -0.2555  0.2775
19565W        W35182   5.607  14.609   1.169  0.0968  0.2439  0.4800
19566W        W35183  15.053  16.347   4.219 -0.0494  0.2710 -0.3902
19567W        W35184   9.124   8.262  13.139 -0.1696 -0.0425  0.4621
19568W        W35185  16.699   6.734  14.030 -0.0068  0.0571  0.0387
19569W        W35186  16.184   7.382  14.072  0.2573 -0.5448 -0.1827
19570W        W35187  13.639  11.713   1.258  0.0455 -0.0044  0.0568
19571W        W35188   1.554  15.771   3.210 -0.1262 -0.0321 -0.2204
19572W        W35189  14.600   6.941  14.863  0.0729  0.1142  0.1167
19573W        W35190  14.740   6.881   3.201  0.1098 -0.5997 -0.2043
19574W        W35191   1.942   3.419   1.840  0.2678 -0.0183  0.0194
19575W        W35192  13.223  10.389  11.863  0.0922  0.4159 -0.4064
19576W        W35193   1.404  12.226   1.574 -0.2809 -0.0346  0.1175
19577W        W35194  11.228  16.717  13.598  0.0636  0.2641 -0.1467
19578W        W35195   6.597   5.025   5.253 -0.3302  0.0439 -0.1244
19579W        W35196  17.786  18.241  11.180  0.1505 -0.3077 -0.0846
19580W        W35197   0.222  12.481   3.173  0.1552  0.3284  0.2375
19581W        W35198   8.678   8.400  12.860  0.0642 -0.0894  0.0058
19582W        W35199   8.088   3.667  12.563  0.0868  0.1125  0.0721
19583W        W35200   3.102   9.797  11.610  0.3013  0.1083  0.2843
19584W        W35201  13.708   1.228  14.814  0.4072  0.2480 -0.0905
19585W        W35202  12.359   5.855   5.256  0.3923  0.0585 -0.1115
19586W        W35203   3.757   7.848   5.167  0.1044  0.0288 -0.2132
19587W        W35204   8.854   5.716   2.996  0.1653 -0.2217  0.0987
19588W        W35205   6.788  18.922  11.326 -0.2672  0.0060 -0.2788
19589W        W35206   7.585   9.338  11.768  0.0135 -0.0127 -0.2872
19590W        W35207  15.114  15.394  12.357  0.0621 -0.0053  0.0114
19591W        W35208   5.923  16.683   3.701  0.0072  0.1357  0.2720
19592W        W35209  11.668  10.113  11.010  0.0159 -0.2127 -0.0691
19593W        W35210  17.320  18.364   2.205  0.0837  0.1512  0.0340
19594W        W35211   7.739   6.724   1.214 -0.1890 -0.1663 -0.1624
19595W        W35212  14.251  17.540  15.240 -0.0337 -0.2491 -0.4986
19596W        W35213   9.202   3.281  13.467  0.0149 -0.0746  0.2212
19597W        W35214  12.444  10.242   1.895  0.2561 -0.0926 -0.0691
19598W        W35215   7.075   2.464   4.974  0.1894  0.0099  0.1187
19599W        W35216  10.612  14.894  11.775 -0.0105  0.1493 -0.3152
19600W        W35217  14.518   7.964   3.587 -0.1363 -0.2941 -0.0476
19601W        W35218  14.419  16.278  12.054 -0.1236 -0.1749 -0.1792
19602W        W35219   6.468  10.384  10.994  0.0621 -0.0008  0.2225
19603W        W35220  18.125  16.297   1.071 -0.0041  0.0721  0.2762
19604W        W35221  12.222  12.223  14.358  0.1823 -0.0609 -0.2832
19605W        W35222   7.452   5.343   1.583  0.1146  0.2392 -0.1099
19606W        W35223  14.514   3.902   5.420 -0.3358  0.0061  0.2357
19607W        W35224  10.195   0.116  13.302  0.1317 -0.0025 -0.2602
19608W        W35225  10.516  18.163   5.229  0.0935  0.0280  0.1166
19609W        W35226  11.953  18.378   1.999  0.0128 -0.1107 -0.0362
19610W        W35227  13.592   8.300  10.843  0.5308 -0.2320 -0.3544
19611W        W35228   8.809   2.876   1.474  0.1261 -0.0675  0.0106
19612W        W35229  19.024   8.925  12.264 -0.2362 -0.0662  0.2066
19613W        W35230  10.721  14.228   3.887 -0.3118 -0.0239  0.0538
19614W        W35231  12.097  15.186  11.973 -0.1963  0.1957  0.2230
19615W        W35232   8.046  18.554  13.692  0.1253 -0.1299  0.2923
19616W        W35233  16.340   1.303   2.860  0.4230  0.0370 -0.1205
19617W        W35234  10.935   3.667  11.924 -0.0721 -0.2766 -0.1543
19618W        W35235   5.311   2.272  13.088  0.0615 -0.1222 -0.2439
19619W        W35236  14.339   6.720   4.040 -0.0920 -0.2825  0.1933
19620W        W35237  15.648   3.200  12.425  0.1826 -0.1699 -0.2644
19621W        W35238  10.698   0.836  12.699 -0.2400  0.2236 -0.0689
19622W        W35239  17.654   4.549   4.367 -0.0055  0.4524  0.1010
19623W        W35240   0.590  12.068   2.645 -0.5222  0.0307  0.1240
19624W        W35241  15.194   0.888  11.701 -0.1389 -0.2389 -0.0148
19625W        W35242  14.383   1.487  11.909  0.0383  0.0435  0.1377
19626W        W35243  15.609   3.208  13.447  0.1895  0.2945  0.1741
19627W        W35244   3.659   5.183   0.214  0.1664 -0.1513 -0.1750
19628W        W35245   4.762  13.011   9.608  0.2751  0.7908 -0.1337
19629W        W35246   1.208  18.472   9.658  0.1276  0.1833  0.1207
19630W        W35247  15.137  14.038  12.704 -0.1896 -0.0427  0.1546
19631W        W35248   0.340   4.099   2.413 -0.3007  0.1269 -0.2142
19632W        W35249  12.276   0.500   5.754  0.1361  0.0807 -0.0026
19633W        W35250   0.840  12.838  15.105  0.0531  0.1538 -0.0196
19634W        W35251  11.018  17.457   4.054  0.0027 -0.0467  0.1942
19635W        W35252   9.612   8.406   4.348 -0.0905  0.0945 -0.0950
19636W        W35253   3.668   0.549  11.725  0.1335  0.2939 -0.1989
19637W        W35254  10.450   9.045   4.401  0.1050 -0.1072  0.3556
19638W        W35255  14.757   8.851   0.458 -0.0722  0.0279 -0.0961
19639W        W35256   7.123   1.121  12.641  0.0662 -0.1770  0.1118
19640W        W35257  16.523   1.646   4.455  0.1693 -0.0025 -0.0575
19641W        W35258   5.410   4.323   0.381 -0.0982  0.1238  0.0720
19642W        W35259   8.363   1.526  13.515 -0.4509 -0.0324 -0.2297
19643W        W35260   4.189   5.160   4.997  0.2307  0.1089  0.2515
19644W        W35261  19.004  10.227   2.880  0.2903 -0.0846  0.2892
19645W        W35262  17.788  13.418   1.237  0.2808 -0.1541  0.2416
19646W        W35263   1.789   1.350   1.028  0.0254 -0.4079  0.2248
19647W        W35264   4.599   1.256   5.537 -0.1918  0.2141  0.5264
19648W        W35265  15.186  15.052   2.407 -0.0777  0.1439  0.1267
19649W        W35266  10.799   7.213  13.036  0.0252 -0.1608  0.2573
19650W        W35267  11.672   2.076   0.009  0.0954  0.0073  0.1925
19651W        W35268   1.950  15.022   4.771 -0.2211 -0.1419 -0.0996
19652W        W35269  13.431  10.896   2.310  0.0122 -0.0444 -0.0805
19653W        W35270   0.046   4.580   5.859  0.1862 -0.0888 -0.3473
19654W        W35271   7.225  13.868   5.951 -0.1077 -0.1805  0.0515
19655W        W35272   9.008   0.018  12.120 -0.2094 -0.0095 -0.2032
19656W        W35273   6.476   1.991   0.862 -0.1266 -0.3149 -0.1939
19657W        W35274  10.926   5.284   3.571  0.0249  0.1524 -0.3235
19658W        W35275  13.295  18.830   3.468  0.1594  0.3626 -0.2784
19659W        W35276  17.213   7.774   4.159 -0.0054 -0.2019 -0.0021
19660W        W35277  10.149  11.615   4.931  0.1900 -0.0573 -0.0775
19661W        W35278   3.215   9.419   2.291 -0.0233 -0.1691  0.1408
19662W        W35279   1.254  14.469   2.112 -0.2786  0.1889  0.1972
19663W        W35280  18.566  17.550   3.336 -0.1379 -0.1048 -0.3598
19664W        W35281   4.063   5.931  10.848 -0.2361  0.3198 -0.0029
19665W        W35282  18.094   4.939  11.090 -0.2735 -0.3860 -0.1335
19666W        W35283   7.457   3.053   3.405  0.2538 -0.1154  0.1553
19667W        W35284  18.260   2.870  14.704 -0.0248 -0.0782  0.3030
19668W        W35285  16.663   7.850  10.567  0.1027 -0.1782  0.2019
19669W        W35286  16.727  11.885   3.892  0.1509  0.1421 -0.1683
19670W        W35287  10.750  10.322   2.075  0.3003  0.0053 -0.3846
19671W        W35288   3.418  13.055   1.276  0.0766 -0.0767 -0.2249
19672W        W35289   6.088   0.450   4.732 -0.1645 -0.0947 -0.4811
19673W        W35290   0.561   9.932  14.588 -0.2554  0.0243  0.0789
19674W        W35291   9.167   4.347   2.558 -0.0516  0.1407 -0.2099
19675W        W35292  18.942   8.683  14.089 -0.0496 -0.0226 -0.3372
19676W        W35293   6.127   8.959  14.398  0.0908 -0.3296 -0.1168
19677W        W35294  14.279  10.851  13.179 -0.2833  0.0888  0.1260
19678W        W35295  14.159  12.817  10.820  0.0201 -0.0697  0.2052
19679W        W35296  17.401  18.469  11.328  0.4050 -0.2348 -0.4268
19680W        W35297  15.644   5.036   4.764  0.0736  0.3823 -0.2878
19681W        W35298   0.500   0.853   2.865  0.1471  0.1758  0.1917
19682W        W35299   7.011   8.694  10.637  0.0153 -0.2406 -0.3345
19683W        W35300   4.557  14.276   4.668 -0.0604  0.2044  0.0564
19684W        W35301   9.382   9.375   3.070 -0.0342 -0.2395  0.2781
19685W        W35302   8.215   2.199  15.204 -0.0613 -0.0653  0.0165
19686W        W35303  16.373   6.485   4.628  0.1621  0.0677 -0.1401
19687W        W35304   1.787  10.542  13.162 -0.0790  0.0739  0.2132
19688W        W35305   8.900  11.438  11.871  0.3214  0.1489 -0.1248
19689W        W35306  18.328   0.785  13.060  0.1003  0.0417 -0.2754
19690W        W35307   5.781  16.087  13.801  0.0254 -0.0282 -0.0295
19691W        W35308  10.187   9.117   3.942  0.2490 -0.0732 -0.2858
19692W        W35309   6.424  11.365  14.010 -0.4447 -0.2141  0.2459
19693W        W35310   1.852  15.474  13.440 -0.0377  0.2004  0.0768
19694W        W35311   8.009   6.091  12.474  0.1611  0.0852 -0.3550
19695W        W35312   4.303  13.579  13.510  0.1507  0.2206  0.3256
19696W        W35313  17.298   5.179   1.214 -0.3048 -0.0306 -0.0106
19697W        W35314  15.803   4.963  11.338  0.0465 -0.2731 -0.0590
19698W        W35315   1.061   1.528  14.948  0.1195  0.0832 -0.2449
19699W        W35316   4.849  10.912  15.220  0.1140 -0.2206 -0.1829
19700W        W35317   7.756   5.141   4.296  0.2321  0.2088  0.0576
19701W        W35318  17.783   7.765  14.000 -0.2427 -0.1553  0.0135
19702W        W35319   7.982  12.887  15.218  0.2305  0.1546  0.1979
19703W        W35320   6.683   9.589  14.769 -0.1175  0.0200  0.0483
19704W        W35321   0.529   0.066  14.221 -0.1180 -0.0563  0.3573
19705W        W35322  10.447   9.344   1.558  0.0663 -0.1221 -0.0151
19706W        W35323  15.195   1.948   4.810  0.2083  0.0733  0.0320
19707W        W35324   7.400  15.007   2.249  0.0248 -0.0508  0.2415
19708W        W35325   5.182   1.339   4.247  0.0616 -0.0804  0.0681
19709W        W35326  11.734   7.397  14.458  0.4293  0.4072  0.0386
19710W        W35327  13.135   4.529  14.667  0.0115  0.0011  0.2496
19711W        W35328  17.961   3.882   2.239 -0.3238 -0.3150  0.0858
19712W        W35329   6.122  14.248   3.417  0.2852 -0.1438 -0.0798
19713W        W35330   3.540   9.921   1.090  0.2045  0.0639  0.1896
19714W        W35331  12.393  18.599  11.151  0.0868  0.2152  0.0289
19715W        W35332   0.013   0.059   5.262  0.0903  0.1150 -0.3190
19716W        W35333   8.595  14.283   2.599  0.1228  0.1197 -0.3522
19717W        W35334   8.044   3.865   9.967  0.1468 -0.0558 -0.1289
19718W        W35335   9.874  17.004  10.839 -0.0096  0.1588  0.4197
19719W        W35336   0.507   6.688  11.985  0.1439  0.1560 -0.0253
19720W        W35337  16.396  18.319   1.758 -0.0594  0.2234  0.1522
19721W        W35338  14.059   2.386  14.306  0.1285  0.1322  0.1103
19722W        W35339  19.054   8.870   0.534  0.0034 -0.0535  0.0875
19723W        W35340  12.996   4.445  10.670  0.0002  0.0293 -0.2208
19724W        W35341  12.403   8.685   4.752  0.0783  0.0250  0.0310
19725W        W35342   7.942   5.621  10.678  0.1554 -0.4225 -0.2049
19726W        W35343  17.403   4.646   1.238 -0.3460 -0.2507 -0.3911
19727W        W35344   7.940   7.901   1.609  0.0213 -0.3855 -0.2943
19728W        W35345   3.766  10.590   3.875 -0.2399  0.1509 -0.0433
19729W        W35346  14.906   9.075  10.752  0.3733  0.0616 -0.1585
19730W        W35347   8.155  12.472   2.184 -0.1422 -0.0542 -0.0795
19731W        W35348   3.652  10.575  13.825 -0.0207 -0.3218 -0.0658
19732W        W35349   4.564  13.850   4.925 -0.3342 -0.2413 -0.2631
19733W        W35350   5.312   5.734  11.580  0.1470  0.2175 -0.1288
19734W        W35351   6.621   5.924   0.207 -0.0269  0.1705  0.1408
19735W        W35352  14.918   4.516   0.164  0.0025  0.2367  0.1172
19736W        W35353  18.671  15.043  14.880  0.2008  0.0391 -0.1980
19737W        W35354   3.228   9.003   2.939 -0.0838 -0.4078 -0.4658
19738W        W35355  16.005   8.305  10.717 -0.0051  0.0581 -0.2218
19739W        W35356  12.625  10.904  14.436 -0.3139  0.1616 -0.1912
19740W        W35357  12.334  10.238  11.410 -0.0817  0.3331 -0.2420
19741W        W35358   9.047   0.213   0.243  0.1291  0.3006  0.1353
19742W        W35359   0.017   6.987  11.324 -0.2136  0.2314  0.0318
19743W        W35360   4.707   6.624  12.267  0.1863 -0.2138 -0.0029
19744W        W35361   9.437   9.723   0.495 -0.2174 -0.2999  0.0937
19745W        W35362  10.022  15.457  14.192 -0.0032 -0.0262 -0.1339
19746W        W35363   6.244  11.854  12.704  0.0948 -0.0599 -0.5322
19747W        W35364  13.116   5.773   1.901  0.3920 -0.2103 -0.2118
19748W        W35365   2.744  16.772   3.482 -0.1545  0.1043  0.3093
19749W        W35366  11.669   9.118  13.199  0.0513  0.0187 -0.0215
19750W        W35367  18.973  16.264   0.487  0.0093 -0.0180 -0.0634
19751W        W35368  11.860  10.461   0.719  0.3402  0.1856 -0.3108
19752W        W35369  17.236   0.274  14.470 -0.0530  0.0307 -0.1491
19753W        W35370  16.846   7.665   3.686  0.1271  0.1744  0.0226
19754W        W35371   8.030   0.072   3.406  0.2694 -0.0480 -0.3482
19755W        W35372   6.409  17.373   4.149 -0.1007  0.0152 -0.1940
19756W        W35373  16.891   9.991   3.921  0.0506 -0.0254  0.3826
19757W        W35374   3.234  16.480   4.891  0.0082 -0.4486  0.0146
19758W        W35375   9.532   8.316   0.952 -0.0854 -0.1469 -0.2467
19759W        W35376   1.627  11.581  15.100 -0.3654  0.0148  0.0372
19760W        W35377   4.855  13.400  11.113  0.0156  0.0443 -0.0813
19761W        W35378  11.144   1.890   3.186 -0.1240  0.1944  0.2597
19762W        W35379   0.659   0.575  11.307 -0.2265  0.3515 -0.0328
19763W        W35380  16.266   1.723  14.358  0.0705  0.1492  0.2643
19764W        W35381   4.545  16.689   3.836 -0.0152  0.1327 -0.0946
19765W        W35382   6.773   4.620   0.477  0.0983 -0.1949  0.0973
19766W        W35383   2.177   9.767   2.478  0.0267 -0.3404  0.1588
19767W        W35384   1.394  18.712   2.650 -0.4194  0.3462  0.4977
19768W        W35385   2.180  12.652   9.493  0.1117 -0.0861 -0.0169
19769W        W35386   1.140   4.446   1.989 -0.3401 -0.0458  0.0121
19770W        W35387   1.163   1.409  13.411  0.2501  0.0307  0.1250
19771W        W35388   6.643   2.342   0.171  0.2054 -0.0040  0.0273
19772W        W35389   7.323   0.653  13.096 -0.1736  0.3043 -0.1529
19773W        W35390  14.331  10.136   1.285 -0.0334  0.1949  0.0482
19774W        W35391  12.863   1.406   3.819 -0.2217  0.3789 -0.2754
19775W        W35392   9.798   2.791   2.697  0.1351  0.2482 -0.2552
19776W        W35393   7.310  10.959   1.768 -0.0040 -0.0493 -0.1314
19777W        W35394  13.915  13.785   3.358 -0.2632  0.0782 -0.0180
19778W        W35395  18.478   7.443   3.877  0.0569  0.2038 -0.0708
19779W        W35396  12.172   6.338   3.361 -0.1366  0.0842 -0.1540
19780W        W35397  18.800  14.098   5.348 -0.1756  0.1331  0.1791
19781W        W35398   2.069  10.872   0.854 -0.1026 -0.1500  0.1204
19782W        W35399  11.351   8.232  12.828 -0.0080  0.0570 -0.3704
19783W        W35400  12.234   9.903  13.729  0.0794 -0.1258 -0.0697
19784W        W35401   6.172  12.687   5.551 -0.1103 -0.1049 -0.1162
19785W        W35402   1.696   9.955  11.144  0.1907  0.1435  0.2497
19786W        W35403   2.904  12.612  12.323 -0.1336 -0.2996  0.0581
19787W        W35404  10.496   4.363  14.560 -0.1105 -0.0754  0.3341
19788W        W35405  17.501  10.147  13.687 -0.0886  0.0137  0.0340
19789W        W35406   6.340   5.303   3.485  0.2908 -0.0244 -0.1224
19790W        W35407  18.105   7.136  11.399  0.3144 -0.1009  0.2118
19791W        W35408  11.437  16.388   3.700 -0.0619  0.2431 -0.0433
19792W        W35409   4.892   9.641  11.598  0.1498  0.0799  0.0688
19793W        W35410   7.401  14.916  13.071 -0.1130  0.2683 -0.1782
19794W        W35411  15.256   1.547  15.264  0.0661 -0.1474 -0.3886
19795W        W35412   2.539   1.049  12.297 -0.0096 -0.0999 -0.2391
19796W        W35413   3.112  11.294   1.021 -0.4573 -0.0153  0.3421
19797W        W35414   5.354  14.009   3.944 -0.2357  0.1285  0.1866
19798W        W35415   6.578  11.945   3.911 -0.3285 -0.0585 -0.1955
19799W        W35416   6.168  17.002   1.474  0.0587  0.0778  0.0902
19800W        W35417  11.173   3.636  10.764  0.2251  0.0011  0.0232
19801W        W35418  16.838  10.597   5.166 -0.2535 -0.1837 -0.1138
19802W        W35419   4.701   9.751   0.234 -0.0985 -0.0934  0.2463
19803W        W35420  17.096  10.272   4.815  0.2615 -0.0295  0.1520
19804W        W35421   2.151  16.340   3.912 -0.3180 -0.0088  0.0253
19805W        W35422   1.490   6.580   0.792  0.3413 -0.3096  0.2534
19806W        W35423  12.752  13.690  13.201  0.1300  0.3025  0.0649
19807W        W35424  15.142   0.153  11.074  0.0443 -0.0305  0.4377
19808W        W35425  12.272  17.172  10.931  0.0084 -0.1402 -0.0187
19809W        W35426   9.223  17.713  11.808 -0.1421 -0.0324  0.0770
19810W        W35427  16.709  17.334  13.540 -0.2505 -0.3426 -0.1324
19811W        W35428   4.995   0.778   5.571 -0.0250  0.1170 -0.0275
19812W        W35429   7.320   0.530   3.292 -0.0134  0.1132  0.1088
19813W        W35430  14.291   5.162  14.751  0.0138  0.1779 -0.0386
19814W        W35431  11.339  12.299  10.367  0.1736 -0.1276 -0.5630
19815W        W35432   5.022  11.120  13.543  0.0965 -0.1907 -0.1600
19816W        W35433  16.121   9.098  11.914 -0.1501 -0.2354  0.0121
19817W        W35434  11.371  13.121  10.952  0.2798 -0.2938 -0.0758
19818W        W35435   3.570   4.765  15.269  0.0685 -0.2822  0.2788
19819W        W35436  18.474   7.309   2.515  0.1636 -0.0607 -0.3172
19820W        W35437   7.352   6.975  10.867  0.2572 -0.2286 -0.1598
19821W        W35438  14.382  12.775   2.400  0.2071  0.1001 -0.2375
19822W        W35439  12.975   4.006  11.749 -0.3520 -0.1517  0.1489
19823W        W35440  14.664   0.486  13.153 -0.2339  0.1135  0.0477
19824W        W35441  11.882  12.952  13.717 -0.3628  0.0705  0.3940
19825W        W35442   7.668  18.258   1.168  0.2558  0.0453 -0.0370
19826W        W35443   4.046   9.080   2.395  0.0246 -0.0645 -0.0047
19827W        W35444  17.718  18.309   5.080 -0.0355 -0.0268  0.0378
19828W        W35445  11.059  13.928   1.308 -0.0348  0.0658  0.3236
19829W        W35446   4.530   5.841   2.480 -0.1592 -0.0516 -0.1857
19830W        W35447  15.477   6.766  14.842 -0.3937  0.1914  0.3588
19831W        W35448  10.071  16.268   4.897  0.0668  0.1846  0.0588
19832W        W35449   5.408   1.034  13.514 -0.2994 -0.2744 -0.2793
19833W        W35450  13.393   2.291  11.421 -0.1598  0.0636  0.2812
19834W        W35451   8.805   1.344  15.012  0.5935 -0.0875  0.1074
19835W        W35452  15.067   2.541  14.188 -0.1348  0.4052 -0.4424
19836W        W35453  11.478  14.691  10.582 -0.2340 -0.1420  0.0094
19837W        W35454  18.866  16.847  10.766 -0.3379 -0.2182 -0.4337
19838W        W35455   4.293  10.706  12.864  0.2903  0.1501 -0.3036
19839W        W35456  16.532  14.702   2.626 -0.1620 -0.0431 -0.2288
19840W        W35457   8.057  15.075  11.626 -0.1241  0.4265  0.0583
19841W        W35458  17.232  10.184  12.728  0.1446 -0.1004  0.0200
19842W        W35459  13.355  16.788  12.753 -0.0878 -0.0149  0.0345
19843W        W35460   7.539   2.176   4.094  0.3492  0.1721  0.0602
19844W        W35461  13.214   9.447  10.657  0.1159  0.1848  0.0730
19845W        W35462   0.463  17.097   4.673  0.0779  0.1291  0.0155
19846W        W35463   2.980   2.410   0.247 -0.1532 -0.1069 -0.2095
19847W        W35464   2.368  12.439  14.593 -0.1120  0.0861  0.1286
19848W        W35465  15.777   7.866   3.160 -0.4708  0.0554  0.1520
19849W        W35466   3.641  10.871  14.244  0.0806 -0.0303  0.0965
19850W        W35467  13.295   5.757  14.998 -0.3870 -0.3837 -0.1730
19851W        W35468  11.725   6.987  11.470 -0.0391  0.0575  0.2130
19852W        W35469   9.484   3.013   3.879 -0.1321  0.0229 -0.1280
19853W        W35470  10.692   7.587  14.193  0.1887  0.0740  0.0227
19854W        W35471  10.847  18.330  11.372 -0.0464 -0.1878 -0.1987
19855W        W35472   9.910  10.873  11.832  0.0888 -0.1089  0.0776
19856W        W35473   5.175  12.717  11.241 -0.0730 -0.3250 -0.0353
19857W        W35474   3.981   9.927   5.052  0.1152  0.4011 -0.0656
19858W        W35475  15.412   4.661   1.151  0.0833 -0.2866  0.2013
19859W        W35476   1.261   7.876  11.586  0.0159 -0.0017 -0.0367
19860W        W35477   7.865   9.298  13.283 -0.1243  0.0048  0.1816
19861W        W35478   4.791  15.801   3.749 -0.0072  0.3781 -0.3430
19862W        W35479  14.697  12.720  14.091 -0.3497  0.0345  0.1426
19863W        W35480   1.638  14.787   2.273 -0.0874  0.2182 -0.0124
19864W        W35481   1.181  12.195  12.311  0.2454  0.3858  0.1813
19865W        W35482   5.451   4.283   3.522 -0.2436 -0.0734 -0.2961
19866W        W35483   7.158  13.569   4.620 -0.0256  0.0767 -0.0244
19867W        W35484  12.256  13.523  12.726  0.0398 -0.3205 -0.0331
19868W        W35485  16.055   7.036   0.024  0.3406 -0.1006 -0.2750
19869W        W35486  13.445  16.540  12.216 -0.2179  0.1468  0.1208
19870W        W35487   4.127   7.725   3.541  0.1547 -0.1669  0.2067
19871W        W35488   2.780  14.943   1.899 -0.4023  0.0120 -0.1547
19872W        W35489   7.055  18.884  13.561 -0.1086 -0.2264  0.4607
19873W        W35490   6.197   4.341   1.260  0.3954  0.1190 -0.1096
19874W        W35491  13.713  15.970  11.053  0.1662  0.3610 -0.0782
19875W        W35492   7.313   2.969   0.031  0.0467 -0.0384  0.3401
19876W        W35493   2.485  13.189   4.808  0.2079  0.0350 -0.1165
19877W        W35494   4.291  14.511   5.023  0.1469 -0.2531 -0.0681
19878W        W35495   6.610  11.456  13.511  0.2467 -0.0766  0.1612
19879W        W35496   8.243  16.485  11.791 -0.3327 -0.0185 -0.0685
19880W        W35497  14.044  15.969  13.461  0.0756 -0.1750  0.1532
19881W        W35498  19.022   3.937   1.660 -0.3324 -0.1593  0.2800
19882W        W35499   2.116  16.289  10.614  0.2356 -0.0735 -0.2898
19883W        W35500  12.109  16.948  13.651  0.1209 -0.2094 -0.2288
19884W        W35501   4.327   6.429  13.031  0.0085  0.0046 -0.1371
19885W        W35502   3.574   5.609  15.171  0.2092 -0.1578  0.0166
19886W        W35503   7.436  10.691   4.320  0.1693  0.2382 -0.2169
19887W        W35504  17.467  10.386  14.667 -0.0032  0.0151  0.0110
19888W        W35505  10.616  17.108  11.853  0.3521 -0.0905  0.1184
19889W        W35506  11.678  17.559   5.063 -0.0051  0.0596 -0.0022
19890W        W35507   2.817   3.272   1.145 -0.1829 -0.0914 -0.0600
19891W        W35508   0.261   9.520   2.277  0.2755 -0.1238 -0.0860
19892W        W35509   8.581  16.282   4.320 -0.2805  0.0804 -0.0031
19893W        W35510  15.722  14.539  12.104  0.1902  0.0030  0.0390
19894W        W35511   0.418  17.749  13.461 -0.1364 -0.0829 -0.1334
19895W        W35512  10.790   1.854  10.987  0.1126 -0.0640 -0.0233
19896W        W35513  10.817  11.714  10.612 -0.1610  0.0370 -0.0373
19897W        W35514   5.826  12.629  13.760 -0.2647  0.3101 -0.0916
19898W        W35515   4.316  17.141  11.740  0.0446  0.2500  0.1299
19899W        W35516  18.505  18.328  10.348 -0.1307 -0.0079 -0.1658
19900W        W35517   9.546  13.075   1.428 -0.2443 -0.2842  0.0880
19901W        W35518  14.270  14.374  12.131 -0.1492 -0.0115 -0.3393
19902W        W35519  12.987  11.431  13.445 -0.1626 -0.2205 -0.2184
19903W        W35520   2.106  15.232  13.819  0.0244  0.2375  0.2377
19904W        W35521   0.603  10.722  12.941 -0.0122  0.2739 -0.0251
19905W        W35522   5.290   3.413   2.429 -0.0692  0.2462  0.0977
19906W        W35523  14.606   9.585   3.164  0.1152 -0.0881 -0.0956
19907W        W35524   3.077   9.639  15.094 -0.1627  0.0645 -0.3518
19908W        W35525   1.165   2.793  11.237  0.1636  0.0924 -0.1508
19909W        W35526  15.491  16.350   0.121 -0.1617  0.0079 -0.1315
19910W        W35527  12.959   7.067  12.027 -0.1526  0.0683 -0.0509
19911W        W35528   3.150   9.613  13.110 -0.1481  0.1224 -0.0962
19912W        W35529   7.832   6.764  14.542  0.0510 -0.1552  0.3189
19913W        W35530   8.582  13.202  12.172 -0.1328 -0.0255  0.4987
19914W        W35531   4.953  17.971  11.939  0.2554  0.3092  0.0797
19915W        W35532   6.866  15.375  12.624 -0.2630  0.0042  0.2358
19916W        W35533  18.639   7.404  10.877 -0.0574  0.2019 -0.4061
19917W        W35534  14.480   6.042   0.806  0.6598  0.0524  0.3963
19918W        W35535   5.908  10.543  11.886 -0.1635  0.1914 -0.1215
19919W        W35536  16.238   7.790  14.846 -0.0222 -0.1921 -0.0084
19920W        W35537   4.627  13.025  12.909 -0.1599  0.3219  0.2687
19921W        W35538  17.012   5.670  14.143 -0.1483 -0.3841 -0.0972
19922W        W35539   7.592  11.868  12.651 -0.0111 -0.0651  0.1309
19923W        W35540  11.049  11.960   9.734  0.3609 -0.1233  0.1292
19924W        W35541   8.185   8.249   4.334 -0.1174  0.0401 -0.2293
19925W        W35542  16.906  10.093   4.393  0.1853 -0.2129  0.3994
19926W        W35543  13.794   5.985   9.481 -0.1135  0.2445  0.0218
19927W        W35544   1.580  10.946  11.605  0.1871  0.3252 -0.1923
19928W        W35545   2.508   2.023  14.480  0.1061 -0.1489 -0.3369
19929W        W35546  18.510  10.447  11.913  0.1857  0.0856 -0.1399
19930W        W35547  17.183   6.589  13.988 -0.1830 -0.1634  0.0959
19931W        W35548  11.776   7.380  13.980  0.3950 -0.2024  0.0482
19932W        W35549   0.065   0.574   2.482  0.2481 -0.1599  0.1307
19933W        W35550  16.077  18.197  14.562 -0.0369 -0.1836 -0.1799
19934W        W35551  17.029  17.702   1.322 -0.0160  0.0273 -0.0497
19935W        W35552   7.424   0.258  11.458  0.0017  0.0555  0.0799
19936W        W35553  11.007   2.986  10.082 -0.3784  0.1101  0.0509
19937W        W35554   2.292   5.660  11.961 -0.0051  0.0664 -0.1479
19938W        W35555   6.978  17.843   2.840  0.3417 -0.1917  0.0571
19939W        W35556   4.990   3.049   3.285 -0.0886  0.0836 -0.1634
19940W        W35557   6.536   0.667   2.589 -0.0595 -0.0333 -0.2470
19941W        W35558   5.696  18.040  12.429  0.1181 -0.2042  0.2040
19942W        W35559   1.977   1.432  11.416  0.1173  0.3066  0.1341
19943W        W35560   9.856   0.768  13.463 -0.0110  0.1137  0.0287
19944W        W35561   9.837  15.853   3.359 -0.0991  0.0611 -0.0848
19945W        W35562  14.330   4.095   3.372  0.1505 -0.0058  0.0449
19946W        W35563  13.117   2.514   5.143  0.1659 -0.1770 -0.2579
19947W        W35564  12.757  10.856  10.312 -0.1808 -0.2011  0.0553
19948W        W35565  11.466   3.211   3.623  0.0174 -0.0931  0.1284
19949W        W35566  16.112  14.322  11.551  0.0651 -0.3071  0.3837
19950W        W35567  13.078   0.653   2.841  0.1484  0.0834 -0.0508
19951W        W35568  14.646  15.881   0.271  0.0412 -0.5025  0.1888
19952W        W35569   1.738  12.583   1.360  0.1487 -0.1172 -0.0214
19953W        W35570   1.305  11.129  10.762 -0.3036 -0.2737  0.1429
19954W        W35571   8.362  12.873   0.857  0.1233 -0.0796 -0.0647
19955W        W35572   8.538   7.060  11.780 -0.0132  0.1733 -0.1325
19956W        W35573   9.358  16.372  12.212 -0.0338  0.1514 -0.0312
19957W        W35574   6.391   2.597  14.889  0.0403 -0.1650 -0.1023
19958W        W35575   3.596   3.619  13.287 -0.1447  0.0475 -0.0785
19959W        W35576  18.373   7.801   2.257 -0.1886  0.0792  0.2558
19960W        W35577   5.716   3.758   5.479 -0.0350 -0.0098 -0.1604
19961W        W35578  19.020   7.111   3.329 -0.2697 -0.3412  0.1105
19962W        W35579   9.967  16.155   2.676  0.3904  0.3805  0.0345
19963W        W35580  13.896   2.855   0.604  0.0266 -0.2285  0.0591
19964W        W35581  13.186   5.030   1.145 -0.0269 -0.1526 -0.1215
19965W        W35582   7.972  11.392   3.066  0.1242  0.0316  0.3061
19966W        W35583  15.500  15.364  14.995  0.2553 -0.0566 -0.1207
19967W        W35584  17.065  11.084   2.144  0.1798  0.2456 -0.3188
19968W        W35585   5.698  19.060   2.984  0.4716 -0.1298 -0.0046
19969W        W35586  10.604   3.814   5.148 -0.3675  0.1280 -0.1260
19970W        W35587   7.766  11.558  13.948 -0.0804  0.1714  0.0647
19971W        W35588   1.794   9.560  12.963 -0.0016 -0.1676 -0.1392
19972W        W35589  16.001  12.927   0.148  0.3463  0.1501  0.0354
19973W        W35590   6.103   3.945   0.784 -0.1579 -0.1176  0.1774
19974W        W35591   2.247  14.228  14.624  0.0428 -0.4107  0.1203
19975W        W35592   9.530   6.677  11.498  0.0519 -0.3616  0.0585
19976W        W35593   8.844  15.023   1.503  0.2022 -0.2125  0.1728
19977W        W35594   9.635   5.097   3.492 -0.4260 -0.2577  0.3403
19978W        W35595   5.544   6.460  10.884 -0.1477 -0.2478 -0.3532
19979W        W35596  15.545  17.177   1.589  0.0422  0.0723  0.0721
19980W        W35597  15.245  16.625  12.501 -0.5022  0.0503  0.1177
19981W        W35598  10.560   8.035   4.639  0.1934 -0.1054 -0.0894
19982W        W35599   8.956   2.558   4.918 -0.1789  0.0156  0.1129
19983W        W35600   1.420  17.847   3.289 -0.1635 -0.2898  0.0328
19984W        W35601   1.776   8.358  10.993  0.0804  0.0472 -0.1837
19985W        W35602   6.044   7.465   5.560  0.0704  0.1034  0.1390
19986W        W35603   9.244   8.824   5.567 -0.0977 -0.3399 -0.1932
19987W        W35604   1.427   3.159  12.137  0.1582 -0.2071 -0.1699
19988W        W35605  15.369   6.186   0.226  0.0616 -0.0936 -0.1077
19989W        W35606  16.985   8.051   5.033  0.0401 -0.0268  0.2909
19990W        W35607   8.299  11.713   2.225 -0.3054  0.2635 -0.0101
19991W        W35608   2.092   8.838   1.232  0.3524 -0.1436 -0.3315
19992W        W35609  11.867   1.861  10.742 -0.0053 -0.0158  0.1056
19993W        W35610   7.654   6.498   3.738  0.0425 -0.1973  0.0457
19994W        W35611   8.568  14.736   0.425 -0.0884  0.1912  0.2208
19995W        W35612   8.888  12.835   9.952  0.4254  0.0720 -0.0118
19996W        W35613  14.795   4.094  12.993  0.1562  0.0801 -0.1531
19997W        W35614  19.006   1.455   5.228 -0.0888  0.2624  0.1894
19998W        W35615  14.419   3.866  13.259 -0.2443  0.1982  0.1616
19999W        W35616  11.376  15.856   5.336 -0.0962 -0.4439 -0.0556
20000W        W35617  15.396  16.180  10.341  0.4789 -0.0359  0.1570
20001W        W35618   9.140   4.240  10.951 -0.2075  0.0522 -0.0126
20002W        W35619   3.735   2.712   3.846 -0.2648  0.2656  0.1316
20003W        W35620  19.052  10.476  11.957 -0.0306 -0.0290 -0.1404
20004W        W35621  16.962   2.448  10.827 -0.1288  0.0547 -0.1293
20005W        W35622  11.350   6.120   3.612 -0.0797  0.0932  0.0021
20006W        W35623  11.693  16.913  10.625 -0.2497  0.0787 -0.2411
20007W        W35624  13.272  10.077  14.937 -0.4402 -0.1161 -0.1194
20008W        W35625   6.435  12.824  12.608 -0.2200  0.0920 -0.1511
20009W        W35626   7.647   8.366  11.703  0.0660  0.1798 -0.0942
20010W        W35627  11.789   6.322  10.806  0.0763 -0.0938  0.0357
20011W        W35628  11.381  10.804   5.071  0.1783  0.0522  0.1436
20012W        W35629   1.788   0.602  13.954  0.0721 -0.1670  0.1312
20013W        W35630  11.678  14.613   2.354 -0.1564 -0.2970  0.1157
20014W        W35631  10.783  15.025   0.897  0.0583 -0.0059 -0.0204
20015W        W35632   5.736  10.844  14.865  0.1513 -0.1069 -0.2830
20016W        W35633  14.498   1.611  13.643  0.1236 -0.0545 -0.0159
20017W        W35634  17.241  16.936   2.447 -0.1560  0.1161 -0.1496
20018W        W35635   7.746  15.294   0.435 -0.1245 -0.0961 -0.1809
20019W        W35636  14.950  10.650  14.445  0.1614 -0.1203  0.2123
20020W        W35637  15.809  18.751  12.636 -0.1583 -0.0042 -0.1032
20021W        W35638   7.365   0.879   3.630  0.1712  0.0215 -0.1573
20022W        W35639   9.780  13.487  13.864  0.1877  0.5243 -0.1522
20023W        W35640   9.537  17.079  11.174  0.0545  0.3349 -0.3905
20024W        W35641   4.903  14.467   0.466  0.2545 -0.0687 -0.2075
20025W        W35642   2.676   1.539   4.984 -0.1360  0.0938  0.3328
20026W        W35643  14.376  15.176  13.986  0.2569  0.1414 -0.2609
20027W        W35644   4.799   0.531   4.964  0.0369  0.1124  0.0681
20028W        W35645   8.861   8.272  14.899  0.1084  0.1246 -0.0251
20029W        W35646  16.790   8.047  13.932  0.1273 -0.2517  0.0865
20030W        W35647  15.839   8.161  11.747 -0.1214 -0.1882  0.0834
20031W        W35648   5.323  10.313  15.236  0.0645  0.2483  0.0841
20032W        W35649  18.856  18.895   3.257 -0.2697 -0.0049 -0.0910
20033W        W35650   4.492  10.259   1.804  0.1888  0.0335 -0.0485
20034W        W35651  18.865  18.196   0.643  0.0784  0.3186 -0.0464
20035W        W35652   3.733   6.099  13.033  0.0560 -0.0028 -0.0650
20036W        W35653   8.545  13.312   3.125  0.0145 -0.1629 -0.1172
20037W        W35654  13.353   3.140   2.403 -0.1229 -0.0291 -0.0144
20038W        W35655   4.998   9.440   1.081  0.0064 -0.1413  0.3747
20039W        W35656  12.632   9.230  12.697 -0.1252 -0.3034 -0.3158
20040W        W35657   2.680   9.084  13.919 -0.2761  0.1208  0.1042
20041W        W35658  15.479   9.487  14.112  0.1004 -0.2475  0.2694
20042W        W35659   5.248  11.604   4.208  0.0627  0.1883 -0.1496
20043W        W35660  16.895   4.761  12.614  0.1811 -0.1357 -0.2572
20044W        W35661   2.110   7.014  14.685 -0.2775 -0.1673  0.0196
20045W        W35662   1.739  11.640   4.005 -0.0147 -0.0745 -0.0100
20046W        W35663   0.494   1.091   4.037 -0.1317 -0.2015  0.1287
20047W        W35664  12.784   9.948  14.185  0.1057  0.1914 -0.1211
20048W        W35665  10.184  10.127  11.618 -0.0149 -0.1030 -0.0822
20049W        W35666  17.162   4.658  11.067 -0.0045 -0.2800  0.0193
20050W        W35667  12.791  12.619  14.953  0.4024 -0.3213 -0.0956
20051W        W35668  15.515   6.100  10.578 -0.1018  0.2650  0.0776
20052W        W35669  18.623  10.188  13.529  0.0028 -0.1336 -0.2038
20053W        W35670   0.905  18.679   2.248  0.0749 -0.0076  0.0178
20054W        W35671   6.566   7.158  11.020 -0.0947  0.1765 -0.0341
20055W        W35672  16.960  10.592  13.824 -0.0398  0.1203  0.0712
20056W        W35673   4.921   7.584   4.866  0.0965 -0.3901 -0.4288
20057W        W35674  13.599   4.307  14.057  0.0988 -0.1623  0.0938
20058W        W35675   9.035   4.035  13.043 -0.2687 -0.1782 -0.0370
20059W        W35676   7.180  15.638   2.181  0.0457  0.0606 -0.0268
20060W        W35677  10.729  12.494  10.993  0.0949  0.0786  0.1934
20061W        W35678   5.808  15.541  12.120  0.0157 -0.1722  0.1520
20062W        W35679   1.335  16.132  12.831  0.4332 -0.1366 -0.0006
20063W        W35680   0.814  10.421  10.897  0.2527  0.1342  0.1925
20064W        W35681   9.513  15.858  10.140 -0.2324 -0.2508  0.0716
20065W        W35682  13.207  15.481  13.146 -0.0952 -0.0211 -0.0851
20066W        W35683   3.306   0.872  12.658 -0.0349  0.1195  0.4257
20067W        W35684  17.566   7.707   0.000  0.0079  0.0100 -0.1134
20068W        W35685  13.519   2.272   1.204 -0.0416 -0.1960 -0.0057
20069W        W35686   0.205  18.802  13.041  0.0953 -0.1965 -0.0516
20070W        W35687  18.793   7.903  13.041 -0.0718 -0.0830  0.2215
20071W        W35688   8.288   4.383   1.221  0.0854 -0.0015 -0.1558
20072W        W35689  12.858  11.400  12.583 -0.1767 -0.0067  0.0837
20073W        W35690   4.031   6.174  13.968  0.3523  0.3817  0.2818
20074W        W35691  15.467   2.220   2.414 -0.1570 -0.1113 -0.0022
20075W        W35692  12.471  14.179   3.667  0.0210 -0.0427 -0.2228
20076W        W35693   5.998   9.101  13.158  0.2812 -0.1844  0.1933
20077W        W35694   7.098   6.209  10.747  0.0698  0.1846 -0.1282
20078W        W35695   1.465  16.026  10.459 -0.2183  0.1142  0.0863
20079W        W35696   9.517  11.133  13.645 -0.2419  0.1555 -0.2347
20080W        W35697  18.639   2.942  10.211 -0.0871 -0.3548  0.1485
20081W        W35698  16.253  11.466   4.593  0.1979 -0.0461 -0.2298
20082W        W35699  15.163  11.414   0.679  0.3010  0.1473  0.2525
20083W        W35700   3.713   1.200   5.061  0.0899  0.1594  0.3460
20084W        W35701  13.362   7.797   0.538 -0.0808 -0.2455  0.0984
20085W        W35702   1.912  17.000   1.105  0.3470 -0.0895 -0.0228
20086W        W35703   1.052   7.794  12.025  0.0421  0.0811  0.0048
20087W        W35704  13.062  16.715  13.126  0.0405 -0.0957  0.1136
20088W        W35705   3.931   8.864   0.769  0.0294 -0.3078  0.0367
20089W        W35706   6.988  16.694   3.022  0.3045  0.1202 -0.0488
20090W        W35707  12.856  16.667   5.043  0.0744  0.1891  0.1031
20091W        W35708  14.944   2.882   1.966  0.2253  0.0616  0.4214
20092W        W35709  12.346   4.968   5.258  0.2411  0.1644 -0.0022
20093W        W35710   6.053  11.768  10.983 -0.0385  0.1223 -0.2558
20094W        W35711  14.760  14.056  14.864 -0.0968 -0.1159  0.0343
20095W        W35712  14.936  11.787  11.661  0.1367 -0.1059  0.1374
20096W        W35713  18.800   4.159  14.405  0.4910 -0.1931 -0.2010
20097W        W35714   1.774  17.293   4.740  0.0895 -0.1684 -0.1243
20098W        W35715   7.586   2.822   4.489  0.2171 -0.2534  0.0789
20099W        W35716   4.539  11.133  13.635  0.0403  0.3921  0.0545
20100W        W35717  14.820   6.030  14.834 -0.2926  0.1536 -0.2113
20101W        W35718   1.724  15.078  14.278  0.1394  0.1583 -0.0192
20102W        W35719  12.990   3.888   1.953 -0.0535 -0.1024 -0.0210
20103W        W35720  13.845  14.297   1.183  0.0150 -0.2447  0.2118
20104W        W35721   8.496   4.736   5.343 -0.2348 -0.4202  0.2209
20105W        W35722   1.385   0.465  13.794 -0.0351  0.2136  0.0150
20106W        W35723   2.115   5.300   2.897 -0.1582 -0.0895  0.3353
20107W        W35724  16.902  18.656  13.454 -0.0026  0.2376  0.0764
20108W        W35725  12.094  16.222  15.079  0.1917 -0.3125  0.0568
20109W        W35726  14.372  14.947   0.171  0.1856 -0.4157  0.0254
20110W        W35727  12.853   4.050  12.233 -0.0179 -0.3169 -0.0765
20111W        W35728   0.325   6.051  14.645  0.0858 -0.0352  0.1667
20112W        W35729   2.498  15.738  11.052  0.1243 -0.1876 -0.0431
20113W        W35730   4.271   6.758  12.553 -0.1309 -0.0671 -0.2599
20114W        W35731   1.975   7.753   9.790  0.0343 -0.0875 -0.0482
20115W        W35732   4.141  18.743   3.608 -0.0296  0.1640  0.0655
20116W        W35733  12.460  11.667   4.749 -0.0224  0.2758 -0.2385
20117W        W35734   8.547   5.379  13.819 -0.2052 -0.1093 -0.1290
20118W        W35735   2.987   1.374  12.391  0.4523 -0.2545  0.1723
20119W        W35736   5.475  18.698  13.559  0.0256 -0.1231 -0.1255
20120W        W35737  14.906   9.073   0.024 -0.0132 -0.1394  0.2576
20121W        W35738  11.796   3.767   1.933 -0.0099 -0.2852  0.0238
20122W        W35739   8.310  18.462   1.782 -0.0457 -0.2462  0.3517
20123W        W35740   0.055   5.707   2.869  0.2805 -0.3401  0.0064
20124W        W35741  10.284  15.825  11.836  0.3142 -0.1211  0.1558
20125W        W35742  17.541   1.216   2.430 -0.2080  0.1449 -0.1055
20126W        W35743  18.411   3.797   3.575  0.0114  0.0804  0.2975
20127W        W35744   5.868  11.830  14.226  0.1506 -0.3252 -0.1128
20128W        W35745  12.005  12.200  12.188  0.4289 -0.0836 -0.2767
20129W        W35746  15.014   9.420  13.869  0.1794  0.2877  0.0393
20130W        W35747  14.051   0.780   2.587  0.3339 -0.0216 -0.0354
20131W        W35748   5.090   7.664   3.282  0.0494  0.2986 -0.0326
20132W        W35749   9.641  12.175  14.423 -0.0892  0.0875 -0.0428
20133W        W35750   3.939   9.651   9.644  0.0676  0.0016 -0.0187
20134W        W35751   8.089  16.771   2.818  0.2160  0.0830 -0.0175
20135W        W35752  16.126  16.987   4.737  0.0223  0.0627 -0.3906
20136W        W35753   7.498  13.063  14.354  0.3697 -0.0529 -0.2451
20137W        W35754  13.623   3.033  13.504 -0.1945 -0.1968  0.0727
20138W        W35755   8.074   8.904   1.576  0.1390  0.0418  0.0265
20139W        W35756  13.002   0.480  11.774 -0.1217  0.0254  0.0632
20140W        W35757  17.981   8.040   4.370  0.1449 -0.0308  0.0810
20141W        W35758   8.433  10.987   5.064 -0.3873 -0.2681  0.0484
20142W        W35759   7.731  15.311  13.651 -0.0035 -0.0188 -0.1794
20143W        W35760  14.003   9.778  12.128 -0.0329  0.1485  0.0908
20144W        W35761  11.561   8.138   2.550  0.0432  0.0427  0.1925
20145W        W35762   6.818  17.170   4.400 -0.2696 -0.0513 -0.0790
20146W        W35763   3.552   4.391   3.869 -0.0075 -0.3606 -0.1268
20147W        W35764   7.846  17.281  11.495  0.0570 -0.3215 -0.2567
20148W        W35765   7.915   3.576  13.007 -0.2793  0.0046  0.0893
20149W        W35766  14.279  18.773  13.813 -0.0824 -0.1988 -0.2618
20150W        W35767   6.134  18.167   5.173 -0.0167  0.4409  0.1276
20151W        W35768  10.053   6.918  14.940  0.2097 -0.0276  0.2628
20152W        W35769  16.232  12.149  15.004 -0.0154 -0.0904 -0.3227
20153W        W35770  15.971   8.573  13.823 -0.0705 -0.2144 -0.1435
20154W        W35771  12.874  13.922  12.221 -0.0813 -0.0711  0.1257
20155W        W35772   6.139  13.074   0.934 -0.0057  0.0853 -0.3105
20156W        W35773   1.559  12.932   2.850 -0.0473 -0.2031  0.0278
20157W        W35774   7.537   4.675  13.323 -0.0976 -0.0454  0.0244
20158W        W35775  11.465   2.025  11.321 -0.0449 -0.0253 -0.1410
20159W        W35776  12.229   1.993   0.799 -0.1185  0.2359 -0.0102
20160W        W35777  13.812  17.479   1.522 -0.0156 -0.3598 -0.0294
20161W        W35778   7.699  14.972  11.175 -0.1334 -0.0270 -0.1802
20162W        W35779  17.915   2.215   2.871  0.0546  0.1736  0.2643
20163W        W35780   5.944  16.888  12.188 -0.0929 -0.2229  0.0558
20164W        W35781   3.915  14.799  13.528  0.1171  0.1697 -0.0605
20165W        W35782  15.596  15.136   2.662 -0.0652  0.1821 -0.2304
20166W        W35783   1.333  18.998   1.423  0.0449 -0.1807  0.1954
20167W        W35784   7.571  14.789   1.183  0.3302  0.4517 -0.0468
20168W        W35785  14.402   4.083  10.534  0.1969  0.1501  0.2552
20169W        W35786  10.960   2.138  13.443  0.1330 -0.1450 -0.1761
20170W        W35787  16.573  11.969   1.637 -0.0915 -0.0700 -0.1611
20171W        W35788  10.947   1.244   0.763  0.0673  0.2479  0.0502
20172W        W35789  16.824   5.372  13.776  0.0092  0.1343 -0.0774
20173W        W35790  11.362  16.519  12.464  0.3154 -0.2437  0.0325
20174W        W35791  12.003  12.663   4.497 -0.0990  0.2661  0.0551
20175W        W35792  18.355   9.674   1.513  0.1463 -0.0558  0.3522
20176W        W35793   2.938  17.216   5.039  0.0361  0.0480  0.3822
20177W        W35794   7.931   4.485  12.267  0.2041  0.2876  0.1536
20178W        W35795  18.748   6.217  15.206  0.1129 -0.0450  0.3052
20179W        W35796  11.076   5.840   2.067 -0.1043 -0.1681 -0.0155
20180W        W35797  12.018   4.134   1.580 -0.2943 -0.0299  0.0304
20181W        W35798  13.639   6.206   1.017  0.0726  0.0364 -0.1815
20182W        W35799   2.010  19.035   0.624  0.1331 -0.1435  0.0236
20183W        W35800  12.578  16.236  13.926  0.1568  0.1386 -0.0705
20184W        W35801  11.554  18.015   1.081 -0.0708 -0.5779 -0.1775
20185W        W35802   5.507   7.197  14.638  0.2036 -0.1924 -0.0995
20186W        W35803  10.094  12.147   1.138  0.0559 -0.1367 -0.0735
20187W        W35804  17.149   8.779   0.645  0.0704  0.1090  0.1998
20188W        W35805   3.590  13.689  12.428  0.1163  0.0891 -0.1185
20189W        W35806   0.055   0.915   2.116  0.0450  0.5334  0.3158
20190W        W35807  12.183  17.574   5.185 -0.2321  0.0818  0.2299
20191W        W35808  12.771  15.010  15.214 -0.1097 -0.1035 -0.0946
20192W        W35809   7.572   7.019  13.487  0.1768 -0.0609 -0.1349
20193W        W35810  17.608  10.223   3.562  0.1360  0.0653 -0.3222
20194W        W35811  10.470   8.295  11.220  0.1499  0.2092  0.0479
20195W        W35812   2.279  14.821  10.860 -0.1842  0.2655 -0.0861
20196W        W35813  14.892   8.672   2.016 -0.2186 -0.0023 -0.1057
20197W        W35814   1.354   2.046   4.364  0.0660  0.3251 -0.1312
20198W        W35815  15.814   1.061   2.099  0.3988  0.1416  0.0959
20199W        W35816   9.036   0.567  12.255 -0.2515 -0.0807 -0.2716
20200W        W35817   9.964  10.397  13.666 -0.3875  0.1134 -0.1154
20201W        W35818   4.189  17.965   3.633  0.2268  0.0472  0.0491
20202W        W35819   2.654   3.857   2.267  0.1613 -0.1150 -0.0047
20203W        W35820   7.252   0.485  11.016 -0.0651 -0.0265 -0.1699
20204W        W35821   6.936   3.120   3.234  0.2711  0.2383  0.1449
20205W        W35822  15.990   8.000   0.058  0.1633 -0.0839 -0.2019
20206W        W35823   1.587  14.740   3.405  0.1591 -0.2419  0.1005
20207W        W35824  14.540  10.695  11.904  0.1105  0.0242  0.1015
20208W        W35825  18.716  18.315   0.159 -0.3864 -0.1137 -0.1681
20209W        W35826  14.051  18.697  11.252  0.3302 -0.1632  0.0725
20210W        W35827   1.181  14.915  14.462 -0.4489 -0.3476  0.3083
20211W        W35828   9.784  16.707   2.505 -0.0952  0.1774 -0.0771
20212W        W35829   3.082   5.219   5.248 -0.1636  0.0947 -0.1635
20213W        W35830   2.061  12.161   1.886  0.2364  0.1990 -0.1390
20214W        W35831   7.063   3.301  12.382  0.0191  0.0153  0.0124
20215W        W35832  10.265  14.752   1.828 -0.0437 -0.1314  0.1045
20216W        W35833   3.160   5.938  11.025 -0.2503 -0.0665 -0.2357
20217W        W35834   8.211  17.512  14.080 -0.0398  0.2727  0.7348
20218W        W35835   0.445  14.696   0.275 -0.0869 -0.1485  0.0337
20219W        W35836   3.509  18.839  14.437  0.1637  0.1749 -0.1364
20220W        W35837   0.250  10.105   3.683 -0.2133  0.0681 -0.0856
20221W        W35838  17.275  15.674  12.964  0.0710  0.2193 -0.1421
20222W        W35839   5.575   3.314  13.881  0.2221  0.0803 -0.2727
20223W        W35840  13.773   7.330  12.345  0.1071  0.1361  0.4786
20224W        W35841   7.520  16.958   1.937 -0.0557  0.4769 -0.2232
20225W        W35842  11.195  15.933  12.049 -0.3857  0.0935  0.1134
20226W        W35843  11.087  18.363   5.275  0.1861 -0.0337  0.0754
20227W        W35844  10.576   8.606  12.550 -0.2769 -0.0383 -0.1209
20228W        W35845  13.142   1.260  13.390  0.1925  0.0586 -0.0017
20229W        W35846  15.568  18.657   3.407 -0.0333 -0.1855  0.1089
20230W        W35847  15.633   6.365  14.302 -0.0304 -0.0449  0.1473
20231W        W35848  16.491   2.512   5.180  0.1440 -0.1407  0.2540
20232W        W35849   4.757   0.003  13.174  0.2202 -0.2392 -0.2227
20233W        W35850  15.349  14.269   3.020  0.0757 -0.1876  0.0807
20234W        W35851   3.779  18.281   2.426 -0.2882  0.4308 -0.3115
20235W        W35852  14.266   5.849  11.487  0.0049  0.1450 -0.0182
20236W        W35853  11.827  11.815   0.002 -0.1665  0.2757 -0.0505
20237W        W35854  13.330  13.829  14.879 -0.0009  0.6027 -0.1071
20238W        W35855  11.272  10.325   2.024 -0.0072  0.3982 -0.1571
20239W        W35856   3.579   7.190  13.848  0.3292  0.1205 -0.0092
20240W        W35857  12.696   8.665  10.425  0.3718  0.1469  0.0850
20241W        W35858  16.965   2.979  15.159 -0.1363  0.0663  0.0973
20242W        W35859   8.775   1.293  11.512 -0.2734  0.1759 -0.0971
20243W        W35860  10.294   9.574   4.732 -0.1816  0.0203 -0.2274
20244W        W35861   6.140  10.136   2.516  0.2799 -0.1143  0.2854
20245W        W35862   4.528   6.874  11.685  0.1729 -0.4454 -0.0152
20246W        W35863  13.515  12.642  13.096 -0.0251 -0.1670 -0.0771
20247W        W35864  11.719   0.349  14.138  0.3341  0.0393  0.0902
20248W        W35865  13.318  14.577  10.031 -0.2699 -0.1673 -0.2679
20249W        W35866  11.035   2.974   3.286 -0.0995 -0.1127 -0.1671
20250W        W35867   5.552  12.847  12.456  0.7422 -0.2134 -0.1035
20251W        W35868   3.767  16.227  11.627 -0.2008 -0.1215  0.1510
20252W        W35869  12.272  12.763  15.119  0.3082 -0.2189  0.0736
20253W        W35870   9.763  18.320   3.098 -0.1431  0.0078  0.0719
20254W        W35871   5.037  11.328   1.795  0.3818 -0.2466 -0.1690
20255W        W35872   4.204   6.977   3.558 -0.1552  0.1774 -0.0002
20256W        W35873   4.416  18.616   2.501 -0.0852 -0.0893 -0.1577
20257W        W35874  10.959  17.887  13.126 -0.2184  0.1802 -0.2541
20258W        W35875  11.930  18.474  13.975 -0.1248 -0.2988  0.1102
20259W        W35876  15.603   8.849   0.726 -0.2721 -0.0368 -0.1186
20260W        W35877  18.545  11.245   9.570 -0.0645  0.0178  0.1398
20261W        W35878  15.617  16.835   4.472 -0.4960  0.0148 -0.1821
20262W        W35879  13.213   4.587  13.699  0.0714  0.2632  0.2550
20263W        W35880   9.809  12.776  15.212 -0.1067  0.1377 -0.0494
20264W        W35881   5.244   1.780  11.417 -0.3759  0.1869  0.0187
20265W        W35882  11.115  16.892  12.718 -0.3323  0.2350 -0.1053
20266W        W35883  11.300   8.610  15.078 -0.2808  0.1054 -0.1344
20267W        W35884  14.639   3.308   3.655  0.0696 -0.1755 -0.0415
20268W        W35885  14.898   1.551  13.243  0.2568 -0.0691 -0.0528
20269W        W35886  16.407   2.273  13.936  0.0711  0.3625 -0.0043
20270W        W35887  18.180   0.703  14.459 -0.1298 -0.1639  0.1370
20271W        W35888   6.969  15.212   2.647  0.1255  0.1722 -0.0278
20272W        W35889   1.679  17.830  12.711  0.3694 -0.2100 -0.0455
20273W        W35890   5.277  13.839  11.266  0.2348 -0.2280 -0.0600
20274W        W35891   7.124   9.658   3.571 -0.0349 -0.0771 -0.1246
20275W        W35892   3.922   3.445  14.276 -0.0215 -0.0501 -0.2990
20276W        W35893  15.616  14.497  12.612  0.2108  0.0341  0.1542
20277W        W35894   7.722  12.265   2.763 -0.0300 -0.0253  0.1366
20278W        W35895   4.536   7.043  11.201 -0.0768 -0.0667  0.1348
20279W        W35896   5.640   8.913  11.264  0.3141  0.0467 -0.1085
20280W        W35897   2.634   1.847   2.073 -0.1913 -0.4067  0.2647
20281W        W35898  16.061   7.898  10.398 -0.0389  0.1310 -0.1115
20282W        W35899   0.317  14.517  14.702 -0.0144 -0.1404  0.0982
20283W        W35900  13.896   7.461  12.804  0.5917 -0.2154  0.0703
20284W        W35901   5.358   2.247   4.699  0.1581 -0.2211  0.2648
20285W        W35902  13.859   7.074  14.942 -0.0604  0.2399  0.4697
20286W        W35903   7.431  10.518  12.825  0.0504 -0.0942  0.1138
20287W        W35904  18.774  17.472  12.755 -0.0581 -0.4264 -0.0196
20288W        W35905  15.988  17.236  13.893 -0.1119 -0.1805 -0.1770
20289W        W35906   7.956   0.547  12.180 -0.1977 -0.1820  0.2922
20290W        W35907   0.321  15.105  11.398  0.1739  0.2785  0.0004
20291W        W35908   4.928   3.504  12.718 -0.1088  0.0676  0.2256
20292W        W35909  16.315  10.053  13.267  0.0429 -0.0657 -0.0079
20293W        W35910   2.462  13.552   0.157 -0.1674  0.2462  0.0137
20294W        W35911  18.194   2.700  13.244  0.0083  0.1524 -0.0004
20295W        W35912  12.965  10.548   0.517  0.1288 -0.3825 -0.0426
20296W        W35913   3.662   9.981   1.574 -0.3957 -0.1248 -0.0285
20297W        W35914   5.221  16.163   2.730 -0.2044  0.2545 -0.0183
20298W        W35915   6.107  10.803  12.314  0.0998  0.0448 -0.2280
20299W        W35916   6.534  10.249  12.399 -0.1799 -0.0025  0.0398
20300W        W35917  14.183   6.112   1.655  0.3586  0.1174  0.0487
20301W        W35918   0.539  10.828   4.572 -0.1515  0.1262 -0.1646
20302W        W35919   2.595   7.739  12.430  0.4286  0.1078  0.0225
20303W        W35920  10.170   4.055   0.055 -0.2166 -0.1792 -0.1322
20304W        W35921  12.195   4.107  13.365 -0.1526 -0.0390 -0.1698
20305W        W35922   9.313   6.389   4.657 -0.1240  0.0473  0.0511
20306W        W35923   1.565   5.470  13.433 -0.0210 -0.2255  0.0514
20307W        W35924  14.763  13.687  10.424  0.2427 -0.2413  0.0032
20308W        W35925   6.775  11.576  12.997 -0.0821  0.1124  0.2187
20309W        W35926  15.266   8.654  12.094  0.2206  0.1322 -0.0233
20310W        W35927  18.709  17.728   0.948 -0.1784 -0.0295  0.1890
20311W        W35928  13.227   6.494   4.885  0.0084 -0.0917 -0.2880
20312W        W35929   0.699   9.592  12.463  0.0870  0.1015 -0.1812
20313W        W35930   3.286   7.187   4.632  0.0860 -0.0249 -0.0009
20314W        W35931   3.472  14.275   3.937  0.1526 -0.0526  0.1219
20315W        W35932  11.921   9.281   3.122 -0.0932  0.2768  0.1362
20316W        W35933  16.455  14.966  13.868  0.0168 -0.2792 -0.0702
20317W        W35934   4.345  17.619   5.096  0.2758 -0.2369  0.0416
20318W        W35935  17.467  18.383   0.456 -0.3591  0.0382 -0.1555
20319W        W35936   2.296   7.976  15.098 -0.2427 -0.2334 -0.3155
20320W        W35937   0.373  17.592   0.075 -0.1933 -0.0390  0.1892
20321W        W35938  16.362   4.041  10.524 -0.0375  0.1465  0.1642
20322W        W35939  17.517  15.189  11.230 -0.0515  0.1387  0.1629
20323W        W35940   7.514   4.488   4.438 -0.0611  0.0697 -0.1370
20324W        W35941  10.529  18.610  12.491 -0.1094  0.0488  0.2908
20325W        W35942   5.074   0.421   5.911  0.0329 -0.2322  0.1875
20326W        W35943  16.013   1.250   1.687  0.1147 -0.0321  0.0347
20327W        W35944  10.458  13.331  10.936  0.1851 -0.0376  0.0738
20328W        W35945  14.211   3.159   1.305 -0.3270 -0.0005  0.0764
20329W        W35946   9.249   0.741   3.447 -0.0937  0.1920 -0.1726
20330W        W35947   2.049  13.910   1.883 -0.1320 -0.3324  0.2067
20331W        W35948  10.583   7.317  11.283 -0.1003 -0.1522  0.0856
20332W        W35949  11.431  15.366   1.570 -0.2186  0.0596  0.0139
20333W        W35950  10.560  13.970   1.548  0.0537 -0.1115 -0.2262
20334W        W35951   2.104  14.527   4.033 -0.0284  0.0314 -0.0101
20335W        W35952   5.265  17.784   4.773 -0.1677  0.1960  0.3598
20336W        W35953   2.489   0.089   0.756  0.0230  0.2616  0.0326
20337W        W35954   4.523  18.348   4.838  0.2323 -0.1120  0.0516
20338W        W35955  12.234  17.552   1.690  0.1782  0.3613  0.1877
20339W        W35956   4.869   3.303  13.868  0.4500  0.2077  0.3324
20340W        W35957  11.593   4.486  12.846 -0.1665 -0.0826 -0.0823
20341W        W35958  16.146   9.298   5.728 -0.2258 -0.0809 -0.2255
20342W        W35959   0.947  11.555   2.645 -0.1306  0.0039  0.3042
20343W        W35960  13.116  16.156   2.385  0.1623  0.1620 -0.3722
20344W        W35961  16.089  14.442  12.380  0.1394 -0.4631 -0.1911
20345W        W35962   7.925  11.076  11.109 -0.2560 -0.0997 -0.0625
20346W        W35963  10.734  10.315  11.007 -0.1533 -0.1038  0.0815
20347W        W35964   3.724  10.594  12.545 -0.0328 -0.1424 -0.4688
20348W        W35965  18.573   9.928  13.109 -0.2579 -0.0201  0.0104
20349W        W35966   4.074   9.000  14.142  0.2545  0.0276 -0.1348
20350W        W35967   3.578  10.591   3.100 -0.0635 -0.2058 -0.4016
20351W        W35968   5.446   2.881  12.391 -0.1034 -0.2991 -0.0116
20352W        W35969  11.170   4.907  10.179  0.1494 -0.1088 -0.0654
20353W        W35970  12.689   1.980   1.006 -0.1806  0.2015 -0.1113
20354W        W35971   3.586   8.805   0.383 -0.1245 -0.0889  0.0920
20355W        W35972  16.291   9.364   2.975 -0.0535 -0.1816 -0.2816
20356W        W35973   9.271  15.585   2.668 -0.2059  0.0067  0.0280
20357W        W35974   8.541   4.984   0.535 -0.1695 -0.3773  0.0160
20358W        W35975  12.218   9.622  12.795  0.2489 -0.1584 -0.2840
20359W        W35976  14.276  18.291  14.645  0.3924 -0.4278 -0.0289
20360W        W35977  11.439   2.071   2.526 -0.0060 -0.0040  0.0726
20361W        W35978   1.329  11.688   3.122  0.2241 -0.0765 -0.0703
20362W        W35979  13.160   6.346  15.143  0.0733 -0.2111  0.0796
20363W        W35980  11.309  14.336   1.423 -0.3576  0.2968 -0.2667
20364W        W35981   2.918  13.528  15.042  0.1291  0.0262  0.0412
20365W        W35982  10.364   2.229  12.714  0.0924 -0.0743 -0.0123
20366W        W35983   0.447   0.651   1.867 -0.2075  0.1560 -0.0513
20367W        W35984  17.785   7.439  11.803 -0.2608 -0.0026 -0.1440
20368W        W35985  14.703   9.698   4.725  0.0012  0.0299 -0.0057
20369W        W35986   7.931   9.051  11.937 -0.3130 -0.0254  0.2302
20370W        W35987  13.030  10.870  13.178 -0.3332  0.3065 -0.0226
20371W        W35988   0.470   0.797   2.375 -0.1475 -0.0030  0.0045
20372W        W35989   5.639  13.169   0.454 -0.0800  0.1390 -0.1144
20373W        W35990   0.473   4.764   3.565 -0.0876  0.3806  0.0920
20374W        W35991  18.490   8.221  13.594 -0.1878  0.0709  0.1533
20375W        W35992   6.734   6.036   2.035 -0.1934 -0.0726 -0.1812
20376W        W35993   0.525  17.550   3.352  0.0296  0.0348 -0.1688
20377W        W35994  13.283   2.473  12.888  0.3267  0.1824  0.0669
20378W        W35995   1.076  18.484  15.104  0.0032  0.0003  0.1420
20379W        W35996   8.153   4.881   1.008 -0.0811 -0.2902 -0.0611
20380W        W35997  16.791  18.630   4.322 -0.0539  0.0669  0.0159
20381W        W35998   0.513  13.534  14.584  0.1387 -0.0466  0.0575
20382W        W35999   1.279   9.856   0.843  0.0470  0.1045  0.2677
20383W        W36000   5.772   7.671   9.987 -0.1490  0.1703 -0.2784
20384W        W36001  17.453  12.613   3.083 -0.2085  0.3879 -0.3274
20385W        W36002   3.541   2.035   2.275  0.0569 -0.3380 -0.0196
20386W        W36003   3.112  14.036  14.557 -0.2342  0.2306 -0.2696
20387W        W36004   1.153   3.194   2.156  0.0502  0.3248  0.0930
20388W        W36005  18.849  13.828  12.344  0.0224 -0.2958  0.5128
20389W        W36006  12.037  10.756  13.495 -0.3391 -0.0781 -0.0406
20390W        W36007  14.612   4.413  11.680  0.1089 -0.1570 -0.2681
20391W        W36008  14.926  17.572  12.684  0.3684  0.2440  0.0442
20392W        W36009   7.936   0.677  14.613 -0.2635 -0.2666 -0.1781
20393W        W36010  17.450  13.198  10.236  0.1816  0.1306 -0.3372
20394W        W36011  10.968   9.734   2.187  0.0623 -0.0538  0.2074
20395W        W36012  14.676  10.055   2.954  0.1774 -0.1900 -0.0260
20396W        W36013  18.590   1.151   2.896 -0.2996  0.1273 -0.1608
20397W        W36014  12.201   9.863  11.849  0.1637 -0.0141  0.0758
20398W        W36015  16.607  10.470   2.509 -0.0309 -0.1415  0.1872
20399W        W36016   1.577   8.381  14.112  0.0783  0.3150  0.0466
20400W        W36017   4.196  11.177  14.902  0.2405 -0.1941 -0.1131
20401W        W36018  17.468   9.375  14.477  0.0373  0.1182 -0.2174
20402W        W36019   0.514  12.306   4.759 -0.1967 -0.1112  0.1746
20403W        W36020  15.298  12.096  11.509 -0.2084 -0.1518  0.2508
20404W        W36021   2.219  13.784   5.873 -0.2715  0.5388  0.0098
20405W        W36022  10.323  17.502   2.469 -0.0609 -0.3334 -0.3095
20406W        W36023  13.141  17.928  13.490 -0.3338  0.3719  0.1067
20407W        W36024   3.675  11.504   3.460 -0.1100  0.1380  0.4189
20408W        W36025  10.384  14.091   2.490  0.1601 -0.1000  0.1652
20409W        W36026  15.700  17.145  10.827 -0.0006  0.0690 -0.2387
20410W        W36027  15.770  12.692   1.495 -0.4275  0.0017 -0.0794
20411W        W36028  14.756   9.846  12.793  0.2390 -0.1310 -0.1716
20412W        W36029  16.271   8.611   1.722  0.1802 -0.1123  0.3325
20413W        W36030  16.899  12.278   1.406  0.1976  0.0357 -0.3335
20414W        W36031   9.781  14.328   3.953 -0.0733 -0.2031  0.1083
20415W        W36032  10.016  13.765   3.278 -0.0291 -0.0329 -0.1971
20416W        W36033  12.832   6.083   4.068  0.0508  0.0636 -0.0147
20417W        W36034  12.139   6.174   1.961  0.4281  0.3479  0.2764
20418W        W36035  10.785  12.120   0.827 -0.1556  0.0560  0.1862
20419W        W36036   8.478  16.131  10.502 -0.0047 -0.0379 -0.2642
20420W        W36037   4.918   7.324  10.967 -0.2012  0.1419 -0.1651
20421W        W36038  17.982   4.127   9.633  0.0720 -0.1604  0.3211
20422W        W36039   3.953  10.249   3.274  0.3494  0.1677 -0.2119
20423W        W36040   3.477  15.574   1.359 -0.1134  0.1257 -0.0073
20424W        W36041   3.480  17.198  14.121  0.0672  0.1359 -0.0425
20425W        W36042   5.036   7.950   0.184 -0.1739  0.0734 -0.0808
20426W        W36043   0.375  10.863  13.540 -0.2730 -0.1477 -0.0792
20427W        W36044   9.798   8.212   1.394  0.2095 -0.4415  0.1195
20428W        W36045   3.806   7.976  13.259  0.0428 -0.0581  0.4218
20429W        W36046   1.240  15.892   3.601  0.0623 -0.0002 -0.0414
20430W        W36047  15.859  17.586   3.714 -0.0245 -0.0842 -0.0719
20431W        W36048   9.924   7.712   3.193 -0.0616  0.0506 -0.0668
20432W        W36049   9.502   7.948  12.037 -0.1082 -0.0426 -0.2899
20433W        W36050  18.423   4.287   3.466 -0.0656  0.1746  0.2526
20434W        W36051  18.733   7.176   0.682  0.2533  0.1508  0.0719
20435W        W36052   2.901   1.032   1.669  0.0207  0.1412 -0.0819
20436W        W36053   5.809  18.574  11.693 -0.1269  0.0179 -0.3423
20437W        W36054  12.623  14.361  13.930 -0.0696  0.1045  0.0303
20438W        W36055  18.077   1.404   0.513  0.3491  0.2022 -0.1575
20439W        W36056   7.662   6.739   2.003  0.0876 -0.0396 -0.0412
20440W        W36057  11.282   7.456   2.028 -0.3328 -0.1972  0.1241
20441W        W36058  18.294   1.030  12.490  0.0027 -0.3026  0.0488
20442W        W36059   9.574  15.300   6.153  0.2000  0.0236  0.0372
20443W        W36060  14.283  16.291   0.240 -0.1139 -0.1247  0.1348
20444W        W36061   1.904  11.784  12.805 -0.3570  0.0937 -0.2469
20445W        W36062   7.129   7.232  13.734 -0.0037  0.2753  0.0023
20446W        W36063  14.931  15.779  11.108 -0.2214 -0.0741  0.2085
20447W        W36064   0.429  11.096  10.885 -0.0783 -0.0203 -0.0251
20448W        W36065  10.627  13.671   5.153  0.3854 -0.3074  0.0205
20449W        W36066  13.642  14.069   5.483  0.3232 -0.0902  0.1203
20450W        W36067  16.617  14.481   2.042  0.1494 -0.2248 -0.0368
20451W        W36068  11.964  14.740   0.429  0.1339 -0.0685 -0.0649
20452W        W36069  15.249   5.748  10.311 -0.1265 -0.0548  0.1471
20453W        W36070  19.047  10.458  13.709 -0.1576  0.1252 -0.1365
20454W        W36071   0.546   5.681   9.962 -0.2553  0.3057  0.0967
20455W        W36072   5.667  10.240  13.174 -0.0880  0.1488  0.0373
20456W        W36073   6.864  14.909   0.774  0.3708  0.0967 -0.0034
20457W        W36074   0.427  11.539  12.256 -0.1237  0.2889 -0.1173
20458W        W36075   9.834  13.254  14.901 -0.0148  0.3187 -0.3450
20459W        W36076   3.284  13.911   4.795 -0.0328 -0.0209  0.2335
20460W        W36077  17.117  13.272   4.687  0.1294  0.0067 -0.2953
20461W        W36078   4.119   0.640   1.864 -0.3143  0.2685 -0.0295
20462W        W36079  11.965   6.211  14.443 -0.2947  0.1307  0.0889
20463W        W36080   8.496  16.289   1.321 -0.0856 -0.0165 -0.4174
20464W        W36081  12.079   5.514  10.327 -0.0986 -0.2316 -0.0728
20465W        W36082   1.160  14.028  12.231  0.2840 -0.3370  0.0274
20466W        W36083  18.959  16.305   0.960 -0.0422  0.1784  0.1738
20467W        W36084   4.803  16.453   0.183  0.0478  0.0994 -0.1250
20468W        W36085   0.752  16.848  12.989  0.3162  0.1177  0.1086
20469W        W36086  13.243  12.651   4.647 -0.0350 -0.0042 -0.0672
20470W        W36087   2.681  16.653   0.393 -0.0638  0.2855 -0.2800
20471W        W36088  17.643  15.937  13.793  0.1376 -0.1869  0.1471
20472W        W36089  18.467   9.458  14.216 -0.1030  0.0595  0.0736
20473W        W36090   4.174  14.182  14.954  0.1855 -0.1276  0.1613
20474W        W36091  11.813   9.137   4.122 -0.2827 -0.0002 -0.0070
20475W        W36092  15.289   7.384  13.106 -0.0293  0.1657 -0.2204
20476W        W36093   0.733   3.348   2.042 -0.0743  0.3185 -0.0980
20477W        W36094  16.778   6.768   3.205 -0.1969  0.2954 -0.0726
20478W        W36095  15.123  19.046   2.763  0.1431 -0.1820 -0.0182
20479W        W36096  11.996   3.714  13.124  0.0387  0.1661  0.0004
20480W        W36097  15.830   0.621   3.175  0.1254  0.1545  0.2519
20481W        W36098  18.044   9.636  10.834 -0.0159 -0.0836  0.1600
20482W        W36099   1.305   0.568   3.947 -0.1136 -0.0120 -0.1106
20483W        W36100   7.135  12.776   5.709 -0.0987  0.0758 -0.4281
20484W        W36101  18.466  11.944  14.387 -0.1650 -0.2211 -0.2989
20485W        W36102   8.872   6.732  14.418 -0.1078  0.0391  0.0032
20486W        W36103   7.764   1.628  10.371  0.0560  0.1091 -0.2042
20487W        W36104   6.011  11.061  12.978 -0.0262 -0.1743  0.2674
20488W        W36105  11.231   7.673   3.300 -0.0735 -0.0347  0.1456
20489W        W36106   0.638  18.227   4.036 -0.1237 -0.4857  0.2979
20490W        W36107  10.547   8.032  13.626  0.3119 -0.0852  0.0707
20491W        W36108  18.948  18.764   0.798 -0.0399  0.0975 -0.0241
20492W        W36109   0.885   8.915   2.491 -0.2717  0.1825 -0.2024
20493W        W36110  10.691  16.128   1.449  0.0978  0.1905  0.1201
20494W        W36111   2.952   5.042  14.675  0.1927 -0.0056 -0.2024
20495W        W36112  15.784   5.584   3.604  0.2098  0.4343  0.1375
20496W        W36113   8.894   6.223   1.150  0.1191 -0.2994  0.3818
20497W        W36114  16.284  12.565   3.620  0.1482 -0.2821  0.0851
20498W        W36115   3.493   8.680  11.300  0.2829  0.2369 -0.1076
20499W        W36116  14.299   1.909  10.939 -0.1470  0.1734  0.0914
20500W        W36117   6.979   1.788  11.511 -0.1528  0.2296 -0.0255
20501W        W36118   1.431  18.150  13.417 -0.0896  0.2668  0.1605
20502W        W36119  16.093   8.338  12.677 -0.0445 -0.0388  0.4045
20503W        W36120   8.548  13.486   3.629  0.3968  0.0577  0.2241
20504W        W36121  12.549  11.138   4.714  0.0338  0.1717  0.0059
20505W        W36122   2.332  11.851  15.111  0.0623  0.3085 -0.3481
20506W        W36123  12.554   9.217   0.044 -0.3350  0.2414  0.1914
20507W        W36124  17.851   5.927   0.485  0.0262 -0.0763 -0.0563
20508W        W36125  11.027   2.029  14.018  0.0571  0.0312 -0.2777
20509W        W36126   8.927  11.623   4.080  0.0929  0.1759 -0.0243
20510W        W36127  13.703  15.159   2.984 -0.0517 -0.0100  0.2524
20511W        W36128  11.672   2.387  10.874 -0.0111  0.1154  0.1502
20512W        W36129  10.950  14.873   2.755 -0.0610 -0.0170  0.1506
20513W        W36130  17.404   7.555  13.079  0.0489 -0.4107  0.0717
20514W        W36131  18.284   8.758   2.110  0.1815 -0.2619 -0.3170
20515W        W36132  17.101  12.981   3.218  0.1913 -0.0580  0.1625
20516W        W36133  11.371   3.468   1.651  0.3353 -0.1581 -0.0846
20517W        W36134   0.881  10.276  13.114 -0.0591  0.2043 -0.2127
20518W        W36135  13.169   6.787   4.256  0.1809  0.0690  0.1758
20519W        W36136  14.961  10.857  12.723  0.2382 -0.0413  0.0774
20520W        W36137   9.776   4.458  12.171 -0.0654 -0.5306 -0.0648
20521W        W36138  15.055   7.540   2.464  0.0495 -0.2495 -0.0533
20522W        W36139  17.688   9.736   3.438 -0.0407  0.0901  0.1773
20523W        W36140   7.627  15.871   1.226 -0.2177 -0.2523 -0.2331
20524W        W36141  17.632   1.602   9.248  0.0272  0.1162 -0.0518
20525W        W36142  12.241  15.049  12.735 -0.0213 -0.1827  0.2542
20526W        W36143   8.564   1.618   0.602  0.0827  0.3922  0.1196
20527W        W36144  12.588  15.393  14.999  0.2337  0.1254  0.3624
20528W        W36145  11.507   0.628  14.460 -0.3264  0.1554  0.1663
20529W        W36146  17.367  10.838   0.068 -0.0864 -0.1009 -0.1458
20530W        W36147  11.651  13.436   6.089  0.0089 -0.1010 -0.3899
20531W        W36148  17.652   5.634  15.264  0.1784 -0.3489  0.1476
20532W        W36149   9.522   4.729  14.775  0.3723  0.0154  0.0631
20533W        W36150   7.675   3.307   5.085 -0.0134  0.0928 -0.0050
20534W        W36151  11.474  10.213   3.306 -0.0270  0.0035  0.2488
20535W        W36152  16.087  11.663   3.120 -0.0392 -0.1527 -0.1233
20536W        W36153   2.918   7.386  10.860  0.0045  0.0850 -0.3932
20537W        W36154   1.049  13.844  10.668 -0.3342 -0.0115  0.1209
20538W        W36155  18.249   3.482   3.154 -0.0265 -0.3009  0.1753
20539W        W36156   3.956   6.299   0.946 -0.0800  0.2617 -0.2492
20540W        W36157  13.183  15.774   3.406  0.3043  0.4362 -0.1057
20541W        W36158  10.386   0.323   4.825 -0.0679  0.0929 -0.2704
20542W        W36159  17.496   0.144  11.800 -0.0310  0.3853  0.2979
20543W        W36160   8.851   7.838   3.490  0.1965 -0.1313 -0.0614
20544W        W36161   1.388  12.329  13.626  0.1018  0.0732 -0.0519
20545W        W36162   9.373   5.788  10.952 -0.2308  0.0727  0.0007
20546W        W36163   0.810  13.237   0.752 -0.1573  0.1845  0.0863
20547W        W36164  18.147   7.774  11.661  0.2478  0.0769 -0.2436
20548W        W36165   1.146  18.549  12.500 -0.2166 -0.1105  0.6240
20549W        W36166  15.697  11.116  13.990  0.0767  0.2747 -0.0344
20550W        W36167   6.647  14.977  13.329 -0.1860 -0.2040  0.0874
20551W        W36168  10.393   5.407   9.894 -0.2563  0.1177  0.0002
20552W        W36169  11.270  18.670  14.241  0.0666  0.0974  0.2084
20553W        W36170   2.312   3.142  13.752 -0.1851 -0.0294 -0.0833
20554W        W36171   0.931  17.902   3.683 -0.0753  0.0013  0.1349
20555W        W36172  15.646   7.095   0.389 -0.0203 -0.1140 -0.2371
20556W        W36173   6.733  16.981   3.380 -0.4135 -0.0809 -0.0833
20557W        W36174   0.743   6.986   5.071 -0.0058  0.0584  0.2113
20558W        W36175   4.500   3.038   1.487 -0.1326 -0.1587 -0.0226
20559W        W36176  16.938   8.212  10.805 -0.1362  0.0462  0.1102
20560W        W36177   8.268   3.482   3.915  0.1529  0.0491 -0.1862
20561W        W36178   8.642   4.727   1.121 -0.0091 -0.2663 -0.1846
20562W        W36179  12.712  16.516   3.596  0.4447  0.4217 -0.0855
20563W        W36180   5.830   7.035   2.889 -0.0052 -0.1403  0.0455
20564W        W36181   1.516  17.688   2.399 -0.0116  0.1837 -0.1414
20565W        W36182  16.695   2.968  14.682 -0.0286 -0.0352  0.0981
20566W        W36183   0.141   6.556   1.226  0.0451  0.0498  0.1172
20567W        W36184  11.111  16.065   3.910  0.0190 -0.0092 -0.3768
20568W        W36185  11.807  11.449  14.796 -0.1562 -0.1425  0.1960
20569W        W36186   2.410  15.334   2.403 -0.4229  0.0377  0.0115
20570W        W36187   2.364   2.058  11.026 -0.1528 -0.0161 -0.3313
20571W        W36188   8.595   9.646   1.786  0.4552  0.1429 -0.0738
20572W        W36189  17.169   9.418  11.113  0.2133 -0.2819  0.1273
20573W        W36190   3.532   9.725   5.566  0.1386 -0.1495 -0.0213
20574W        W36191   9.720  13.648   1.478  0.1016 -0.0874 -0.0177
20575W        W36192  18.449   2.950   0.317 -0.0957  0.0871  0.0156
20576W        W36193  13.825   1.608   2.213 -0.1428 -0.0305 -0.2134
20577W        W36194   6.464  12.285   4.644 -0.0067  0.1841 -0.1208
20578W        W36195   4.670   8.357   2.848 -0.1993 -0.0577  0.1223
20579W        W36196   6.245  18.281  14.168 -0.0328 -0.2530 -0.0275
20580W        W36197   2.802   1.968   2.528  0.0439  0.0001 -0.2679
20581W        W36198  16.999  17.691  12.953 -0.0539  0.0250 -0.1384
20582W        W36199  14.806  17.626   4.369 -0.3705  0.0493  0.0955
20583W        W36200  18.410   3.380   2.275 -0.2303 -0.1692  0.0645
20584W        W36201   0.963  16.876   2.396 -0.0076  0.0385 -0.1345
20585W        W36202  14.600   4.771   5.474  0.2647  0.1371  0.0077
20586W        W36203   2.582   5.883  12.911  0.3032  0.2993 -0.2299
20587W        W36204   6.038   8.769   0.980 -0.0335 -0.2960  0.3309
20588W        W36205   4.400   8.229   0.888  0.0681  0.0536 -0.1167
20589W        W36206  17.149  18.844   2.060 -0.0079 -0.3079 -0.2107
20590W        W36207   9.814  12.374   3.419  0.1728  0.1761 -0.1888
20591W        W36208   2.676   9.941   3.901  0.2375 -0.0462 -0.2237
20592W        W36209   9.822  16.530  10.828 -0.1987 -0.0666  0.1437
20593W        W36210  18.562   6.268  14.399 -0.0032  0.0723  0.2333
20594W        W36211  15.518   4.989   2.309 -0.0544 -0.0024 -0.1621
20595W        W36212  12.843   9.717   0.106 -0.1218 -0.1954  0.0380
20596W        W36213  15.794   3.320   2.029  0.2636 -0.3184  0.1643
20597W        W36214  16.536   4.060   5.347 -0.2050 -0.1031  0.0362
20598W        W36215   5.303  16.001  13.979 -0.1852 -0.2210  0.0729
20599W        W36216   0.873  10.195  14.216  0.1887 -0.1832 -0.1567
20600W        W36217  14.572  10.376   2.316 -0.0448  0.0766 -0.1356
20601W        W36218  15.889   3.836  14.396 -0.0189 -0.0587  0.0857
20602W        W36219  10.311  18.106   0.631  0.0671 -0.0567 -0.3499
20603W        W36220   1.090  12.079   2.773 -0.2972 -0.0439 -0.0908
20604W        W36221  12.649   1.295  13.903 -0.1522 -0.0731 -0.0168
20605W        W36222   6.296  15.862  11.462  0.1323  0.0226  0.5988
20606W        W36223  16.594   3.436  13.875 -0.1014 -0.1336 -0.1306
20607W        W36224  11.972  15.206  14.036  0.1430  0.3634  0.3812
20608W        W36225  12.066  15.222   0.488 -0.0003 -0.1968  0.1094
20609W        W36226   8.472  15.984  11.028 -0.0203  0.0198 -0.0133
20610W        W36227   6.332  15.575  14.290 -0.0214  0.1517  0.1073
20611W        W36228  13.392   3.433   1.311 -0.0264  0.0893  0.0720
20612W        W36229  11.720   1.412   5.325 -0.0424 -0.3166 -0.2429
20613W        W36230  12.692  15.562   1.182  0.4044 -0.0524 -0.1773
20614W        W36231   0.505  13.080   4.631  0.0837 -0.1110  0.0234
20615W        W36232  16.888  12.957  11.487  0.0114  0.1499  0.0701
20616W        W36233  14.298   5.462  11.085 -0.0760 -0.0638 -0.2862
20617W        W36234   1.575  15.807   2.285  0.1735 -0.0365 -0.1238
20618W        W36235  10.944  13.321  12.682 -0.0295 -0.1302  0.1963
20619W        W36236   7.472  12.133   1.919  0.0817 -0.1629  0.3077
20620W        W36237  13.286   8.285  12.702 -0.1743  0.2527  0.1602
20621W        W36238  14.521  16.390  14.581 -0.1127 -0.2760  0.0666
20622W        W36239   4.499   2.100  13.635 -0.0685 -0.0704  0.0489
20623W        W36240   6.757   4.044  11.952  0.0601 -0.4020 -0.1931
20624W        W36241  12.194  11.947  13.599  0.0327 -0.0836  0.2789
20625W        W36242   1.663   7.184  12.694  0.0654 -0.1497 -0.2152
20626W        W36243  14.406   2.343  11.240  0.1112  0.0153 -0.0817
20627W        W36244  10.051   5.763   3.084 -0.1407 -0.0703  0.0954
20628W        W36245   0.931   6.679   2.532  0.0299 -0.1657 -0.0895
20629W        W36246  15.749  18.076   4.255  0.0804  0.2747 -0.2462
20630W        W36247  16.897   0.464   1.240  0.2279  0.0434 -0.1104
20631W        W36248  14.295  15.456   0.371  0.1265 -0.1345  0.2833
20632W        W36249   9.314   3.535   0.963  0.1589  0.0073  0.0233
20633W        W36250  19.074  13.291   2.593  0.0729  0.0599  0.3892
20634W        W36251   1.010   0.215  12.960 -0.1207 -0.0195  0.0837
20635W        W36252  18.812   0.746   1.631 -0.1508 -0.2072 -0.0890
20636W        W36253  15.105  18.217  15.006 -0.2695  0.0687  0.1408
20637W        W36254   1.974   5.401   0.184  0.1565 -0.0813  0.0137
20638W        W36255   8.772  10.625  13.534  0.1511  0.3492 -0.2353
20639W        W36256  13.673  11.939   4.253  0.1895  0.3615  0.1418
20640W        W36257   7.352  16.506   3.329 -0.0048 -0.0632 -0.0197
20641W        W36258  13.817   0.055   1.928 -0.0820 -0.1969 -0.0701
20642W        W36259   9.660   8.301   1.873  0.2209  0.0014  0.2979
20643W        W36260   9.776  11.678  12.290  0.3337 -0.0518 -0.0427
20644W        W36261  15.676   9.367   3.720 -0.0072 -0.0163  0.0217
20645W        W36262   6.361   6.588   1.569  0.0025 -0.3500 -0.0890
20646W        W36263   3.858  14.631   1.500  0.0922  0.2748 -0.1691
20647W        W36264  13.998   7.961   5.382  0.1718 -0.0193 -0.1401
20648W        W36265  13.837   5.662   2.429 -0.1210 -0.1159  0.1484
20649W        W36266  15.888  13.662  14.833  0.1624  0.3107 -0.5363
20650W        W36267  14.707  11.000  13.602  0.1128 -0.1538  0.0405
20651W        W36268   9.528   5.671   4.203  0.1506  0.0419  0.0066
20652W        W36269   2.261  11.677   1.152  0.0832 -0.1407  0.2965
20653W        W36270  10.607   9.735  11.091  0.1315  0.1727  0.1830
20654W        W36271  14.736   3.686  10.535  0.1024 -0.3897  0.1175
20655W        W36272  13.308  12.232   4.946  0.0154  0.3045  0.1980
20656W        W36273  11.064   9.860  12.152 -0.2067 -0.2053  0.0814
20657W        W36274   7.269  17.192   0.489 -0.3170  0.1745  0.0875
20658W        W36275  17.741   8.873  12.706  0.0864 -0.1446  0.3832
20659W        W36276  14.404  13.169   3.178 -0.0662  0.3604  0.0910
20660W        W36277   5.381  12.703   0.451  0.2503  0.2282 -0.2374
20661W        W36278   4.485  18.217   0.717  0.1045  0.1847  0.0526
20662W        W36279   2.187   3.440   3.508  0.1760  0.4404  0.2336
20663W        W36280  11.034  14.389   3.561  0.0137 -0.0028 -0.0739
20664W        W36281   7.075   8.782   3.127 -0.2618  0.2486  0.1860
20665W        W36282   3.652   1.503  12.888  0.0692  0.2293 -0.4942
20666W        W36283  11.202  15.939  14.114 -0.0486  0.0493 -0.0490
20667W        W36284  14.461  11.988   0.670 -0.1442 -0.0296  0.2837
20668W        W36285  16.271   9.829  13.735 -0.2318  0.1183 -0.0683
20669W        W36286   7.968   5.204   3.232 -0.1927  0.0122 -0.0853
20670W        W36287   7.738  12.620  10.479  0.3076  0.2861  0.0116
20671W        W36288  18.647  18.918   4.896 -0.0534  0.1569 -0.0580
20672W        W36289   9.760   2.678  10.160 -0.1544 -0.2519 -0.0116
20673W        W36290  14.495   6.615  13.499 -0.3201 -0.0593  0.0623
20674W        W36291  16.227  15.807  14.976  0.1127 -0.2461  0.2557
20675W        W36292  16.950   7.237  12.879 -0.0223  0.1480 -0.0963
20676W        W36293  11.409   0.120   2.528  0.3468  0.1016 -0.1587
20677W        W36294  18.923   2.154  13.199 -0.2062 -0.1694  0.0978
20678W        W36295  18.567   1.887  12.906 -0.0733  0.0663 -0.0289
20679W        W36296  17.473   3.502  11.427 -0.0901 -0.3254  0.3287
20680W        W36297  14.500  12.493  11.151  0.1771 -0.3299  0.2597
20681W        W36298  17.285  18.030  14.060 -0.1452  0.0835 -0.1917
20682W        W36299   9.294  17.277  14.123 -0.0666  0.1370 -0.1579
20683W        W36300   1.509   4.056   2.130  0.1019  0.0577 -0.0228
20684W        W36301  14.375   3.154  15.089  0.1530 -0.1313 -0.0951
20685W        W36302   5.329   5.495   0.775 -0.1736  0.0150  0.1477
20686W        W36303   0.730   3.137   3.744 -0.0999  0.3436  0.1567
20687W        W36304  15.225   5.502   0.735  0.3261  0.0751  0.2683
20688W        W36305  18.560   5.346   0.491 -0.1357  0.0397 -0.2381
20689W        W36306  18.305  17.885   1.380  0.1489 -0.0116 -0.3181
20690W        W36307  12.023   1.311   4.338 -0.1287 -0.1461  0.1646
20691W        W36308   8.768   4.011  14.960 -0.3322  0.0514  0.1831
20692W        W36309  17.353   7.396   3.349  0.2084  0.1974 -0.0411
20693W        W36310  16.533   6.582  11.637  0.0475 -0.0822  0.3188
20694W        W36311  11.252   6.122  11.900 -0.5051 -0.0965 -0.0163
20695W        W36312   5.814   6.483   4.332  0.1725  0.2266 -0.2116
20696W        W36313   6.834   3.663   5.135 -0.0027  0.0125  0.0806
20697W        W36314  16.901   5.150  12.218  0.1200 -0.0836  0.2719
20698W        W36315  11.211  15.415   0.747 -0.3562 -0.4387 -0.0548
20699W        W36316   1.479   3.200   3.984 -0.1515  0.0536  0.0993
20700W        W36317   7.068  17.353   2.098 -0.3211 -0.0588  0.0835
20701W        W36318   4.930   2.667   5.561  0.0713  0.0715 -0.0742
20702W        W36319  12.158   9.511   4.267 -0.0189 -0.0593 -0.0064
20703W        W36320   5.671   0.454  15.235  0.2708  0.1681 -0.1290
20704W        W36321  18.379  14.610  14.220 -0.0748 -0.1940 -0.0841
20705W        W36322   3.367  14.436  12.486 -0.0819 -0.0252 -0.0035
20706W        W36323  11.850  12.278  13.975  0.2839 -0.3364 -0.1849
20707W        W36324   8.195  13.730  11.313  0.0288  0.3219  0.1141
20708W        W36325   0.169   2.062  10.164  0.0264  0.0806 -0.0828
20709W        W36326  17.221   0.864   0.233 -0.0928  0.0693 -0.1950
20710W        W36327  11.405   0.357   3.041  0.0768 -0.0706  0.0408
20711W        W36328   4.562   8.801   2.214  0.0718  0.0962 -0.0358
20712W        W36329   1.032   2.165  12.000 -0.0303  0.3130  0.1234
20713W        W36330   5.403  12.993   2.584  0.4417  0.1068 -0.0787
20714W        W36331   9.556  17.641   3.904 -0.1552  0.1475 -0.1193
20715W        W36332  15.326   5.257  15.177  0.2763  0.1910  0.0998
20716W        W36333  11.506   8.284   5.260  0.3925 -0.1707 -0.0907
20717W        W36334   2.143  11.186  11.558 -0.0262  0.3346  0.1418
20718W        W36335  13.135  18.917  11.689 -0.0051 -0.1456 -0.1264
20719W        W36336   7.600  15.909   2.658  0.2195 -0.3495  0.0826
20720W        W36337  16.555   4.800   4.438  0.1613  0.4370 -0.1864
20721W        W36338  11.496  17.176  14.310 -0.1291  0.3364 -0.1898
20722W        W36339  10.693  12.585   0.411 -0.1183 -0.0841  0.0139
20723W        W36340   3.147   7.867   0.318 -0.1431  0.1343  0.3190
20724W        W36341  12.394   8.085  11.402  0.2383  0.0388 -0.1916
20725W        W36342  12.852  11.344   1.247  0.0624 -0.2061  0.2308
20726W        W36343  14.828  15.407   4.526  0.1616 -0.0633  0.0356
20727W        W36344   7.006  11.088   4.345  0.0327 -0.1523 -0.0409
20728W        W36345   0.198   9.896   4.984  0.0872  0.2468  0.3102
20729W        W36346   9.592  15.026   1.372  0.0994 -0.2255 -0.0414
20730W        W36347   2.132   1.814   1.021 -0.0470  0.2479  0.0251
20731W        W36348   3.576   9.801   2.271  0.2121  0.0997 -0.0937
20732W        W36349   3.397   3.881   1.720 -0.2056  0.1883 -0.1052
20733W        W36350  18.153   7.653  11.135  0.1073  0.1951  0.1600
20734W        W36351  10.703   4.932   4.376  0.0723  0.0189  0.2702
20735W        W36352   8.661  17.419   2.770  0.0766  0.0138 -0.1285
20736W        W36353   7.051   5.787   4.228 -0.1708 -0.1141  0.0550
20737W        W36354   7.168   7.341  14.525  0.2483 -0.1930 -0.3648
20738W        W36355   6.963  16.754  14.412  0.0656  0.2632  0.0881
20739W        W36356  18.825  10.807   2.246 -0.1652  0.0546  0.1976
20740W        W36357  15.152  11.187  13.783  0.0852  0.1709  0.2071
20741W        W36358  18.638  14.559   5.358  0.1323  0.2772 -0.0950
20742W        W36359   8.889   6.964  13.630  0.1549  0.1448 -0.1634
20743W        W36360  12.824   1.480   2.111  0.2004  0.0185 -0.0222
20744W        W36361  11.198   2.514  13.955  0.1899 -0.1838 -0.0072
20745W        W36362   7.306  13.438  13.974 -0.2624 -0.0712  0.3041
20746W        W36363   2.251   0.986  11.035 -0.1809  0.1001  0.2864
20747W        W36364   0.999  16.760  13.390 -0.2502  0.1075  0.0815
20748W        W36365   5.633  10.908  13.393 -0.3898 -0.0335  0.1688
20749W        W36366  10.584   9.858  14.300 -0.0534  0.1061 -0.1082
20750W        W36367   5.066  15.492   4.349  0.4033  0.3715 -0.2305
20751W        W36368   5.172  11.491  10.968 -0.0503 -0.1289 -0.0922
20752W        W36369   4.840   8.021   5.042  0.2129 -0.1346  0.2069
20753W        W36370   0.442  16.921   2.390 -0.0207  0.2232 -0.5057
20754W        W36371   2.088   8.920   4.760  0.2747  0.1553 -0.1713
20755W        W36372  13.103  18.877  14.550 -0.1219  0.0648 -0.0975
20756W        W36373   4.562  10.158   0.530 -0.4091  0.0527  0.0932
20757W        W36374  18.293   1.160  14.612 -0.0625 -0.1307 -0.1153
20758W        W36375  13.257  18.331   2.594 -0.0842  0.1470 -0.5611
20759W        W36376   0.134   0.022  12.142 -0.0246 -0.0252  0.0193
20760W        W36377  10.252  13.271  14.474 -0.1382 -0.1286 -0.0871
20761W        W36378   1.186  14.848   2.422  0.0920  0.2178  0.0251
20762W        W36379  13.913  13.286   0.175  0.2503 -0.0989 -0.1023
20763W        W36380  14.256  16.731   0.615 -0.1295 -0.1042 -0.1357
20764W        W36381  17.794   1.594  12.106  0.2410  0.1381  0.0622
20765W        W36382  13.946  12.507   3.210  0.0469 -0.3780 -0.0057
20766W        W36383   3.767  14.233  10.201 -0.3254  0.3224 -0.1623
20767W        W36384   2.256  12.318   0.152 -0.0771  0.2078 -0.0701
20768W        W36385   1.314  12.358   4.236 -0.1126 -0.0320  0.0775
20769W        W36386  10.479   6.471  12.642  0.2290  0.2559 -0.2912
20770W        W36387   1.897   1.163  11.913  0.2766 -0.0217  0.1244
20771W        W36388   5.117   5.274  11.751 -0.2085 -0.0707  0.0075
20772W        W36389  17.956  16.692   0.703 -0.1367  0.2331 -0.1183
20773W        W36390   6.417   9.938  11.606 -0.3187  0.0507  0.2730
20774W        W36391   3.812   3.306   3.376  0.2718  0.1358 -0.1908
20775W        W36392   1.484  13.095  12.122  0.0748 -0.2504  0.0335
20776W        W36393  18.999  10.335   3.408  0.0814 -0.4850 -0.0924
20777W        W36394   1.860   2.576  14.742 -0.0549  0.0169  0.1465
20778W        W36395   3.497  16.157   0.033 -0.0073 -0.0124  0.0252
20779W        W36396   0.303   4.940   0.347 -0.0493  0.1144  0.2356
20780W        W36397  11.315  17.602   1.440  0.1881 -0.0724 -0.1243
20781W        W36398  18.556   2.778  13.787  0.1287 -0.0259  0.3150
20782W        W36399  16.899   1.326   0.185  0.1472  0.0354  0.2985
20783W        W36400  13.287   6.865  14.037  0.0070  0.3116  0.0901
20784W        W36401   0.200   8.197   9.873  0.0425  0.4647  0.1742
20785W        W36402   6.464   2.351  13.891 -0.4136  0.0296 -0.2117
20786W        W36403  17.691  10.937   0.773 -0.0621  0.0137  0.1922
20787W        W36404   5.985   9.854  10.136 -0.0897  0.1226  0.1504
20788W        W36405   2.157   2.299   4.916  0.0272  0.0139  0.0693
20789W        W36406   8.035   6.895  13.567 -0.0326 -0.0646  0.0839
20790W        W36407  10.642  18.229   2.971  0.0768  0.0721 -0.3886
20791W        W36408   0.558  13.777   3.234 -0.2392  0.3196 -0.2998
20792W        W36409  18.597  13.827   1.952  0.1827 -0.2127  0.1632
20793W        W36410  15.335   0.740   1.341 -0.0305 -0.0118  0.1223
20794W        W36411   2.893  12.232   2.134 -0.2117 -0.1809 -0.1201
20795W        W36412   2.922   8.658  10.727  0.0648 -0.0229 -0.1433
20796W        W36413  13.350   4.873   4.420 -0.0663 -0.1454  0.1139
20797W        W36414  13.284  14.854  10.788  0.0361 -0.0536 -0.0526
20798W        W36415  18.432  15.175   1.057 -0.1276  0.3128  0.0251
20799W        W36416   6.363   1.057  14.655  0.0059 -0.0117  0.2295
20800W        W36417   7.630  16.703   5.983  0.2059 -0.0699  0.0226
20801W        W36418  16.704  16.880   3.514  0.1208 -0.1886  0.0560
20802W        W36419  12.208   4.643  15.227  0.0513  0.1783  0.2137
20803W        W36420  12.358   0.707   5.313  0.3272 -0.1152 -0.0504
20804W        W36421  18.088   9.029  13.975  0.1211 -0.1432  0.0114
20805W        W36422  11.450   3.775  11.891 -0.0036  0.1967  0.0943
20806W        W36423  15.897  17.278   1.161 -0.0711  0.0471  0.0333
20807W        W36424  13.389  13.987  12.204 -0.1945  0.0102 -0.2923
20808W        W36425   8.147  16.262   0.698 -0.3184 -0.1767 -0.1181
20809W        W36426   3.672   9.661  12.658  0.2421 -0.0034  0.1236
20810W        W36427   4.059  18.877  11.222  0.3667  0.2961 -0.3113
20811W        W36428  17.933   5.474  13.783  0.2002  0.0310  0.1642
20812W        W36429   6.453  14.540  12.122 -0.1685 -0.0888 -0.2535
20813W        W36430  15.000   4.532  13.026 -0.2563 -0.2739  0.3367
20814W        W36431   9.078   2.446   1.664 -0.1171 -0.0267  0.0585
20815W        W36432  16.159  15.280   0.955  0.0988 -0.1887  0.1086
20816W        W36433   3.541   6.046   5.407  0.0594 -0.1524  0.0676
20817W        W36434   8.346   0.367   0.655  0.1062 -0.0886  0.0170
20818W        W36435   1.834   3.602   3.092  0.0740 -0.2484 -0.0561
20819W        W36436   1.659  14.435   5.005  0.0117 -0.1650 -0.0166
20820W        W36437   1.782   6.985   3.677  0.0124  0.0370  0.1786
20821W        W36438  13.445   5.802   2.829  0.1760  0.1963  0.0088
20822W        W36439  14.545   8.829  14.233 -0.0261 -0.2030  0.1656
20823W        W36440  11.177   9.275  12.918  0.0474  0.3257 -0.0437
20824W        W36441   7.135  12.561   4.319 -0.2223  0.2952  0.1469
20825W        W36442  10.239  14.150   3.682 -0.0591  0.0001 -0.2058
20826W        W36443  11.808   6.096  14.970 -0.0804  0.1153 -0.2684
20827W        W36444  10.008   5.620   5.451 -0.3749 -0.1134 -0.1807
20828W        W36445   7.193   9.975   4.437  0.0353 -0.1194 -0.2090
20829W        W36446  18.260  11.302   4.607 -0.0271 -0.0964 -0.0428
20830W        W36447   3.817  12.360  13.582  0.2591  0.1306 -0.0299
20831W        W36448  17.040  15.351   0.543  0.1186  0.3624  0.0179
20832W        W36449   3.020   6.225  12.731 -0.3496 -0.1703 -0.2684
20833W        W36450   1.406   5.633   4.795  0.2836  0.0906 -0.0721
20834W        W36451   1.493   5.276   0.865  0.0924  0.0024 -0.0244
20835W        W36452   7.561   4.846   3.390 -0.1910  0.0441  0.0594
20836W        W36453   8.997  16.303   4.119  0.1036  0.0006 -0.1126
20837W        W36454   7.328  17.735   3.174 -0.2642 -0.0551 -0.1420
20838W        W36455   8.939  17.038   4.844  0.3512 -0.3610  0.2354
20839W        W36456   5.190   7.080   2.130 -0.0055 -0.3407 -0.1475
20840W        W36457  17.880  10.010   3.973 -0.3219  0.2784 -0.0775
20841W        W36458   4.152  11.875   3.507 -0.2157 -0.0292 -0.1876
20842W        W36459  11.014  13.681  12.011 -0.0586  0.0256  0.1291
20843W        W36460   9.383   9.870   4.254  0.1310 -0.0373  0.0144
20844W        W36461  16.253   4.489   1.278 -0.1839 -0.1505  0.1424
20845W        W36462  18.558   9.354   3.437 -0.0049  0.0971 -0.3532
20846W        W36463   4.682  10.599   1.444 -0.2346 -0.0404 -0.2845
20847W        W36464  15.047   5.067   2.472  0.3045 -0.1067  0.0099
20848W        W36465   5.362   0.828   0.313  0.1295 -0.1251  0.1735
20849W        W36466   2.191  11.776   5.713  0.0775 -0.1349  0.1427
20850W        W36467   1.669   0.094  12.080  0.0991  0.0473 -0.1541
20851W        W36468   9.245   0.170  13.197 -0.1222 -0.0167 -0.0161
20852W        W36469  15.489   9.035   3.273 -0.0879  0.1144 -0.0164
20853W        W36470   5.008  11.151  11.343 -0.0815  0.2909 -0.2735
20854W        W36471  19.014  16.265  14.118  0.1677  0.1861 -0.1493
20855W        W36472  12.021  16.908   4.839 -0.0055 -0.0945 -0.1953
20856W        W36473  17.508   7.790   4.682 -0.2227 -0.0812 -0.0731
20857W        W36474   1.968  17.930   5.602  0.2172  0.1557 -0.1915
20858W        W36475  14.831   4.138  13.533 -0.0193  0.0633  0.1758
20859W        W36476   7.813   7.769   4.646 -0.0784 -0.0051 -0.1141
20860W        W36477   3.204   1.198   0.946 -0.1697 -0.1198 -0.2182
20861W        W36478  11.317   3.673   3.879 -0.2688 -0.2562 -0.2468
20862W        W36479   2.455  18.712   4.284 -0.0817  0.0756  0.3181
20863W        W36480   2.812  10.143   1.423  0.1300  0.2326 -0.0890
20864W        W36481   7.165  15.227  14.464 -0.0328  0.5986  0.1715
20865W        W36482  16.956   5.826   1.593 -0.2382  0.1146  0.1038
20866W        W36483   4.071   9.363  12.532 -0.1550 -0.2829 -0.0113
20867W        W36484  11.818   8.049   4.840  0.0015  0.1308  0.0601
20868W        W36485   9.519  15.130  12.625 -0.1499  0.1853  0.3426
20869W        W36486   6.497  10.214   0.389  0.5709  0.1746  0.0934
20870W        W36487  12.650  14.920  10.573  0.1004  0.0097  0.3609
20871W        W36488   6.960  11.585   3.641  0.0776  0.0465 -0.1252
20872W        W36489  15.270   2.553  12.842  0.0053  0.3686 -0.0485
20873W        W36490  17.712  16.572   2.745  0.0506  0.1070 -0.1528
20874W        W36491   3.095  11.892   3.584 -0.0190  0.1907 -0.0131
20875W        W36492   3.925   2.019   0.851 -0.1006  0.0970 -0.1989
20876W        W36493   3.942   1.748   2.226 -0.1600  0.0970  0.1795
20877W        W36494  14.175   9.912  13.643 -0.1438 -0.1543  0.0828
20878W        W36495  16.568   4.477  14.172 -0.0484 -0.1576  0.4112
20879W        W36496   0.237   3.600   4.661  0.3245  0.1655  0.0770
20880W        W36497  10.317  10.367   1.791 -0.2146 -0.0032 -0.1459
20881W        W36498  16.585  12.487  14.881  0.0449  0.2159  0.1331
20882W        W36499   5.812   1.317   1.933 -0.1897 -0.2397 -0.1289
20883W        W36500   1.862   0.147   1.548 -0.2284  0.3065  0.3311
20884W        W36501   5.462  12.641  10.861 -0.0055  0.1611  0.2021
20885W        W36502  13.830  17.862  14.789 -0.2245  0.0173 -0.2343
20886W        W36503  15.358   4.463   1.663 -0.2000  0.2040 -0.0892
20887W        W36504  10.410  12.971   5.042 -0.1355 -0.1807 -0.3333
20888W        W36505   7.905  16.523   4.723 -0.2520 -0.3293 -0.1932
20889W        W36506   4.051   8.785  13.471 -0.1242 -0.0197  0.0275
20890W        W36507   5.564  14.361   0.448  0.1272  0.1507  0.1561
20891W        W36508  14.251  10.096   2.569  0.1179 -0.1266  0.1018
20892W        W36509  16.474  17.282   5.057  0.1103  0.0789  0.0028
20893W        W36510   0.641  13.246   5.463  0.2370  0.3449  0.2313
20894W        W36511   2.261  15.077   0.015 -0.3938 -0.2829  0.2679
20895W        W36512   8.099  10.090  12.340 -0.1105  0.2518  0.3040
20896W        W36513   1.275   3.935   0.816 -0.0808  0.0861 -0.0530
20897W        W36514  11.053  12.163  10.791  0.3575  0.5984  0.2271
20898W        W36515   9.377   6.075  14.732 -0.3282  0.3177 -0.1640
20899W        W36516  12.051  16.784  13.133 -0.0874 -0.0537  0.0096
20900W        W36517   7.914  11.500   4.595  0.1193  0.0697 -0.1235
20901W        W36518   0.697   1.488  11.290 -0.0314 -0.0593  0.0750
20902W        W36519  12.348   0.124   0.214 -0.0649 -0.1791 -0.1545
20903W        W36520   9.855   1.504   4.034  0.1510  0.1922 -0.0921
20904W        W36521   5.643  11.722   1.480 -0.0361 -0.0911 -0.2000
20905W        W36522   4.990   5.944   5.912  0.0336 -0.2737  0.1318
20906W        W36523  16.462  15.839  12.588 -0.3213  0.2552  0.2694
20907W        W36524   1.548   6.707   4.107 -0.1173 -0.4152  0.1019
20908W        W36525   9.271   3.892  15.022  0.1716  0.2040  0.0170
20909W        W36526   5.377  17.867  13.547 -0.1680  0.1001 -0.0804
20910W        W36527   0.087  16.797   1.979  0.0287  0.4003 -0.1772
20911W        W36528   0.293  15.840  12.167 -0.3043  0.2797 -0.0399
20912W        W36529   3.135   5.221   0.269  0.1611  0.2085 -0.0975
20913W        W36530  14.094   4.662   1.622  0.2125 -0.0498 -0.0614
20914W        W36531  12.250  11.687  14.640  0.1060  0.0778 -0.3345
20915W        W36532  12.070   7.310  11.734 -0.1634  0.1617  0.0222
20916W        W36533  18.596   1.386   9.737 -0.0822 -0.1578 -0.0613
20917W        W36534  15.369   8.955   1.518 -0.0601 -0.1660 -0.2887
20918W        W36535   2.668  16.989  11.998 -0.1027 -0.1922 -0.2811
20919W        W36536   4.706   3.069  11.976  0.3158  0.3651  0.2421
20920W        W36537   0.530   0.382   1.377  0.0724 -0.1550  0.1606
20921W        W36538  10.968  17.936   3.871  0.1043 -0.2232 -0.0314
20922W        W36539  19.040  13.356  12.398 -0.0692 -0.1826 -0.0276
20923W        W36540   2.118  17.546   0.381 -0.1442 -0.0427 -0.0915
20924W        W36541  12.597  14.735   2.638 -0.1745 -0.0075  0.0350
20925W        W36542  17.678   2.977  11.653  0.3019  0.2642  0.0002
20926W        W36543  17.893  16.247   2.030 -0.1932 -0.0971  0.0661
20927W        W36544  12.117   7.453   3.077  0.3624  0.2403  0.0656
20928W        W36545   0.371   2.634  10.006 -0.6147 -0.1158 -0.1130
20929W        W36546   7.520   9.863  10.802  0.0995  0.1019  0.2425
20930W        W36547  16.837   7.225   0.493  0.1730 -0.1393 -0.2348
20931W        W36548  18.381  13.974   0.146 -0.0222 -0.1350 -0.3275
20932W        W36549   1.323   7.796   2.963  0.1590 -0.0735 -0.1970
20933W        W36550   0.948  13.841  13.797 -0.2627 -0.1372 -0.0297
20934W        W36551  17.893   5.574   4.958  0.3470  0.1391  0.3297
20935W        W36552   3.866   8.271   2.227  0.0360  0.2219 -0.1651
20936W        W36553  13.891   8.187   1.650 -0.2233  0.3165 -0.1868
20937W        W36554   1.378   2.934  13.323  0.0994  0.1595 -0.0906
20938W        W36555   0.324   5.146   1.581 -0.0920 -0.2718  0.0479
20939W        W36556   5.279   3.062  13.415  0.0035  0.2914  0.4956
20940W        W36557   4.321   0.970   5.968 -0.0017  0.0725 -0.2924
20941W        W36558  18.796  13.935  14.168  0.1902  0.3143 -0.1652
20942W        W36559   5.404   1.721   6.499  0.0358  0.0128  0.1150
20943W        W36560  12.036  13.110  14.552 -0.1037  0.3293 -0.1846
20944W        W36561   3.285  15.684  11.717  0.3981  0.3027 -0.3249
20945W        W36562  13.314   0.319   0.409 -0.0539 -0.2519 -0.0428
20946W        W36563  11.224  12.715  11.865  0.2359  0.0333 -0.0205
20947W        W36564   8.321   4.940  12.963  0.0347  0.0334 -0.3749
20948W        W36565  14.160   0.543  14.783 -0.0402 -0.0007 -0.0808
20949W        W36566   6.486  11.230  12.836 -0.1454  0.1001 -0.1349
20950W        W36567   7.227   6.009  14.647  0.0444  0.2031 -0.1942
20951W        W36568   9.425   6.030  11.853 -0.0597  0.1733  0.0057
20952W        W36569   5.239   4.492   2.250 -0.0460  0.2675 -0.0535
20953W        W36570   9.867   0.834   5.457  0.2804 -0.2751  0.1126
20954W        W36571  10.902  17.402   1.822 -0.0414 -0.1406 -0.3058
20955W        W36572  17.672   1.651  14.128 -0.1622  0.0361 -0.0444
20956W        W36573   5.344   3.412   3.392 -0.2253 -0.3002 -0.0144
20957W        W36574  15.629   5.820   0.067  0.0696 -0.3593  0.3221
20958W        W36575   7.752  12.198  11.756 -0.3072  0.0609  0.0108
20959W        W36576  13.102   9.072  11.490  0.1719  0.0619  0.2283
20960W        W36577   1.191  16.035  14.994  0.0542  0.1756  0.0643
20961W        W36578   0.046  18.991   3.988  0.3235  0.4667  0.2545
20962W        W36579   2.988   3.515   0.418 -0.0208 -0.0650 -0.1398
20963W        W36580  17.045   9.112   3.501  0.2723 -0.0038  0.0639
20964W        W36581   9.107  15.926   0.180 -0.2352 -0.1325 -0.1789
20965W        W36582  16.363  13.330  13.812 -0.0972  0.2177 -0.2387
20966W        W36583  12.149  14.739  11.748 -0.2536  0.1955  0.1166
20967W        W36584   7.930  12.529  11.393 -0.3960  0.2374  0.0367
20968W        W36585   8.388   7.539  11.764  0.0571 -0.0387 -0.1984
20969W        W36586   7.403   6.382  15.023  0.0364 -0.0740 -0.0438
20970W        W36587   1.188  16.259  10.892 -0.2622  0.3721 -0.0343
20971W        W36588   8.871   4.169   3.628 -0.1436  0.1894  0.2182
20972W        W36589   1.247   7.826  14.730  0.2580  0.0932 -0.2100
20973W        W36590   6.762   4.302  13.873  0.1446  0.1225 -0.1701
20974W        W36591   5.150   7.266  12.963 -0.3227 -0.1909 -0.1753
20975W        W36592  11.387   7.974   2.068 -0.0017 -0.0997 -0.0361
20976W        W36593   3.940  16.199   1.982  0.1193  0.0658  0.0513
20977W        W36594   1.668   9.892   9.878  0.1005 -0.0309 -0.1526
20978W        W36595  18.537   2.537   4.875 -0.2097  0.1908  0.2574
20979W        W36596   8.906   6.555  13.925 -0.2029  0.0805  0.1923
20980W        W36597   8.528  14.639   2.219 -0.2196  0.3193 -0.2450
20981W        W36598  12.564   4.402  12.604 -0.3720 -0.1402 -0.0893
20982W        W36599   5.301  17.185   0.331  0.0541 -0.1131 -0.0977
20983W        W36600  10.107  16.115  10.753 -0.1539  0.0172  0.0569
20984W        W36601  18.963   1.244  10.083 -0.1364  0.0693  0.4601
20985W        W36602   0.885   8.905  13.848 -0.0804  0.1007  0.0534
20986W        W36603  12.990  11.651  12.163  0.0481  0.3221 -0.4851
20987W        W36604   1.789   2.170  11.945  0.0133 -0.3373 -0.1553
20988W        W36605   5.220   2.048   0.773  0.1795 -0.0703 -0.1192
20989W        W36606  13.079  17.708  12.524  0.1953 -0.0024  0.0366
20990W        W36607   2.064  13.087   2.789 -0.1538 -0.0487  0.1233
20991W        W36608  11.131  15.728   1.527 -0.0530 -0.0719  0.0772
20992W        W36609  12.797  12.496   1.735 -0.0951 -0.1414  0.0193
20993W        W36610   7.308  10.664  12.219  0.2960  0.1315  0.2163
20994W        W36611  11.335  14.543  13.576  0.4924 -0.0176  0.1805
20995W        W36612   2.992   3.616   3.611 -0.0790 -0.2744 -0.1440
20996W        W36613   7.123  11.501   1.961 -0.0954 -0.4373  0.2221
20997W        W36614   7.232   5.008  11.246 -0.1016 -0.2244  0.1327
20998W        W36615  16.415  16.919  11.743  0.0274 -0.5664 -0.3663
20999W        W36616  13.715  16.531  11.055  0.1574  0.0401 -0.0248
21000W        W36617   0.572   5.420  13.570 -0.0390 -0.2137 -0.1483
21001W        W36618   6.562   6.594   4.795  0.0460 -0.0637  0.0298
21002W        W36619  12.871  11.594  14.081 -0.0717  0.0002 -0.1684
21003W        W36620   9.518  15.238   0.342  0.4800 -0.4575 -0.0070
21004W        W36621   7.387   3.806   4.969 -0.0808 -0.0140 -0.1186
21005W        W36622  10.501  15.654   3.804  0.0147 -0.1407  0.0363
21006W        W36623   1.744   4.890   2.773 -0.3351  0.2539 -0.0616
21007W        W36624   7.227  16.468   4.100 -0.0660  0.4283 -0.0686
21008W        W36625  13.474   3.478  12.792  0.0099 -0.1683 -0.0339
21009W        W36626   4.578   7.567  11.432 -0.0667 -0.0629 -0.4186
21010W        W36627  11.498  14.608  11.133 -0.1680 -0.0596 -0.0877
21011W        W36628  16.519  10.166  12.140  0.0655 -0.1113 -0.3329
21012W        W36629  11.703   6.773  12.904  0.3401  0.2895 -0.1295
21013W        W36630  15.415  15.857  13.107 -0.1307  0.0096  0.2974
21014W        W36631  17.754   1.922   4.232  0.4967  0.0467 -0.2100
21015W        W36632  10.490  15.529   5.140  0.1070  0.0825  0.0786
21016W        W36633  12.629   0.825   3.620 -0.0063  0.0059  0.3655
21017W        W36634   1.527   1.314  12.171 -0.2867  0.4008 -0.1742
21018W        W36635   9.066   8.367   2.196  0.0485  0.2397 -0.0267
21019W        W36636   4.605   8.789  14.813 -0.2996  0.4080 -0.1045
21020W        W36637  11.012   1.695  13.235 -0.0939  0.0762  0.1935
21021W        W36638  14.097  14.801  13.619  0.1027 -0.3260 -0.1691
21022W        W36639   3.707   4.666  13.504 -0.1636  0.0524 -0.1373
21023W        W36640   1.970   7.251   3.260 -0.0256  0.0791 -0.1926
21024W        W36641  11.889  13.071   0.123  0.2545 -0.0651  0.1403
21025W        W36642   1.090   7.237   4.817  0.0136  0.0264 -0.0573
21026W        W36643  13.484  15.794   4.345  0.2794  0.0243 -0.0697
21027W        W36644  16.575   5.501  10.894 -0.0848  0.0388 -0.0819
21028W        W36645   8.488  15.027   3.074 -0.0366  0.0223 -0.0180
21029W        W36646  16.675  17.928   0.291 -0.0109 -0.1505  0.1703
21030W        W36647  14.899   3.812  14.575 -0.2919  0.2531  0.0517
21031W        W36648  18.056   7.906   4.922  0.2170 -0.0693 -0.2676
21032W        W36649  15.941   6.450  13.915  0.1862  0.0407  0.1652
21033W        W36650  12.619  15.513  11.772  0.3749 -0.0658 -0.4881
21034W        W36651   0.993  14.003  14.240  0.1865  0.1412 -0.0371
21035W        W36652   8.832  18.814  13.464  0.4174  0.0957 -0.0404
21036W        W36653   8.007  11.868  14.978 -0.0532  0.1042  0.2590
21037W        W36654  15.974   0.002   4.596 -0.0823 -0.0718 -0.2759
21038W        W36655  13.352   9.310   4.481 -0.1672  0.3004 -0.2139
21039W        W36656  15.639  12.903  11.902  0.0904  0.2021 -0.1614
21040W        W36657  12.484  18.869  11.571  0.1627 -0.3110 -0.1062
21041W        W36658   1.865  18.964  14.871  0.0575 -0.2933 -0.1544
21042W        W36659   9.067   2.396   4.288  0.0127  0.1275  0.1917
21043W        W36660   3.696  18.614  10.796 -0.1942 -0.4523 -0.3071
21044W        W36661   1.569   6.210  13.896 -0.1821 -0.0425  0.1937
21045W        W36662   5.425   6.748   4.932  0.1371  0.2565  0.2477
21046W        W36663  14.393  18.967   1.076 -0.0504 -0.1187 -0.0179
21047W        W36664   7.869   2.581   1.420  0.2077  0.1480  0.0388
21048W        W36665   8.427  18.352  12.476 -0.0454 -0.1257 -0.2065
21049W        W36666   9.952  15.308  13.716 -0.1494  0.0472  0.2338
21050W        W36667   5.550   6.541  11.782 -0.0253  0.1746 -0.0946
21051W        W36668  17.456   0.864   1.012 -0.0255 -0.0424  0.1280
21052W        W36669   4.001   3.639  12.376  0.1142 -0.0404 -0.3775
21053W        W36670   3.839  16.098  12.476 -0.1220  0.1109  0.4402
21054W        W36671   2.014   0.885   0.829  0.1016 -0.0021 -0.1350
21055W        W36672   2.039   9.646   3.783  0.2565 -0.0008 -0.0960
21056W        W36673  15.345  18.489  12.553 -0.0486  0.0138  0.1239
21057W        W36674   1.276  16.796  12.970 -0.1209 -0.0989  0.1728
21058W        W36675  16.925   4.212  14.340  0.1504 -0.1269 -0.0264
21059W        W36676  14.867   9.885   9.732 -0.3916 -0.0983 -0.2982
21060W        W36677  10.425  10.206  13.349 -0.1034  0.4464  0.0742
21061W        W36678  15.920   0.049  14.573  0.2434  0.4634 -0.1745
21062W        W36679   5.082  10.287   1.654  0.1873 -0.2699 -0.0658
21063W        W36680   3.653   0.068  11.128 -0.1479  0.2217 -0.1273
21064W        W36681   4.895  11.251   4.462 -0.0661 -0.1144 -0.0279
21065W        W36682   4.622  11.633   3.436  0.0466  0.0945  0.1395
21066W        W36683  14.320  16.453  15.054  0.1684  0.2100 -0.0694
21067W        W36684   9.437  13.422   1.997 -0.3495 -0.0463 -0.1160
21068W        W36685  10.173   4.055   5.115  0.2778 -0.4558 -0.1076
21069W        W36686   5.828   8.301   4.150 -0.0377 -0.1172  0.0465
21070W        W36687   4.992  14.892   3.864 -0.2601  0.4383 -0.0478
21071W        W36688  17.895  11.804   5.225  0.0756  0.0510 -0.0319
21072W        W36689   6.349  16.314   0.645 -0.0384 -0.0087 -0.0272
21073W        W36690   6.205  14.649   3.794 -0.2441 -0.1524  0.0134
21074W        W36691  13.326   5.544   0.781 -0.0848  0.3100  0.1587
21075W        W36692   2.312   2.049  12.347 -0.0032  0.2384  0.0743
21076W        W36693   8.564   7.013  14.068  0.3941  0.2609  0.0859
21077W        W36694   0.589  12.204   3.488  0.0785 -0.1034 -0.0055
21078W        W36695   2.342  14.295   2.584 -0.0068  0.1989  0.0251
21079W        W36696  16.887   7.407  15.269  0.0445 -0.1919 -0.0633
21080W        W36697  11.304  17.602  13.311  0.1500 -0.4140 -0.1056
21081W        W36698  12.968  11.088   4.955  0.1038  0.0067 -0.1682
21082W        W36699  10.005   8.601   0.855  0.0880  0.1098  0.0821
21083W        W36700   6.592  15.257   3.243 -0.3344 -0.1269  0.0398
21084W        W36701  15.737  15.201   0.747  0.1224  0.1959  0.1166
21085W        W36702  16.409  14.259   0.227 -0.0470  0.3126 -0.1079
21086W        W36703   0.494   5.255  10.159 -0.1642  0.1246  0.3383
21087W        W36704  18.424  11.735   1.875 -0.0696  0.0732 -0.0835
21088W        W36705   3.446   5.139   2.588  0.3114 -0.2886  0.1100
21089W        W36706  11.281  16.690  11.447 -0.1026 -0.0930  0.1622
21090W        W36707   8.669  15.153   2.175  0.5626 -0.1037 -0.2270
21091W        W36708  10.952   5.173   3.064  0.0096 -0.2512  0.0212
21092W        W36709  15.131  13.074   3.183 -0.1420 -0.1257 -0.2145
21093W        W36710   9.157   7.085  10.096 -0.0591  0.3944  0.1360
21094W        W36711   7.012  13.045   4.533 -0.1910  0.0591  0.1297
21095W        W36712   7.046  14.761  11.813  0.0359  0.0056  0.0599
21096W        W36713   5.548   6.151   0.917  0.1381  0.0424 -0.2921
21097W        W36714   8.341   1.412  10.445  0.4791 -0.0345 -0.0365
21098W        W36715   0.999   5.024  13.720  0.0458 -0.3132  0.0212
21099W        W36716  16.561   8.031   5.362  0.2007 -0.2380 -0.0018
21100W        W36717   8.589   0.292  12.153 -0.0790  0.1528  0.3014
21101W        W36718   9.382   8.386   2.750  0.1048  0.2404 -0.5686
21102W        W36719  13.279   0.247   2.714  0.0881  0.3891  0.0144
21103W        W36720   5.500   3.787   5.061  0.2682 -0.0908  0.4497
21104W        W36721  15.070   5.987   0.549 -0.1806 -0.0031  0.0213
21105W        W36722  16.259   3.201  14.707 -0.0386  0.1614 -0.0982
21106W        W36723  12.027   6.350   0.972  0.0317  0.0581  0.1393
21107W        W36724  14.945   3.624  12.850  0.1620 -0.1770 -0.0379
21108W        W36725   3.916   5.869   0.693  0.1342  0.2133 -0.1716
21109W        W36726   1.680   9.976  11.708 -0.2354  0.2004 -0.0793
21110W        W36727  11.766  17.759  10.308 -0.3183  0.0025 -0.1243
21111W        W36728  12.892   5.427   1.038  0.0654 -0.1027  0.0822
21112W        W36729  15.941  14.754   0.282 -0.2845 -0.1138 -0.0186
21113W        W36730   0.478   0.016   1.751  0.0493  0.3176 -0.2302
21114W        W36731  12.165  14.134  13.071 -0.2194  0.0553 -0.0371
21115W        W36732   8.154  17.644   5.508  0.1047  0.2250  0.0292
21116W        W36733  15.525   9.499  11.457 -0.1888 -0.3437  0.1667
21117W        W36734  11.618  12.911   4.697 -0.1556 -0.0070 -0.0657
21118W        W36735  11.852  11.505   3.024 -0.2476 -0.0593 -0.0594
21119W        W36736  12.843  14.144   4.215  0.2069  0.0666 -0.0691
21120W        W36737   2.323   6.799   4.778  0.1846 -0.0008  0.2042
21121W        W36738   0.126   6.915  11.783 -0.0964 -0.1920 -0.2531
21122W        W36739  14.721  11.691   0.358 -0.2968  0.4577  0.5102
21123W        W36740   9.329  18.073  13.976  0.0741  0.1783  0.1058
21124W        W36741  17.593   1.387  10.725 -0.2637  0.1294  0.2019
21125W        W36742   3.838  13.138  11.209  0.2373 -0.0323  0.3121
21126W        W36743   5.666  11.881  13.381 -0.2577 -0.3042 -0.0665
21127W        W36744  17.500  18.130   1.744 -0.1864  0.4119 -0.0284
21128W        W36745   0.808  17.211  14.030  0.0643 -0.0142  0.3103
21129W        W36746   6.620  12.725   1.939  0.1186 -0.1912 -0.0105
21130W        W36747   2.627   0.408  14.284  0.3342  0.0208  0.0103
21131W        W36748   3.175  14.917   4.556 -0.2642 -0.2412  0.2238
21132W        W36749  11.798  18.677   2.339  0.2570 -0.3873 -0.2494
21133W        W36750   7.447   0.223   0.734 -0.1175  0.2695 -0.2379
21134W        W36751   6.369  11.274  11.635 -0.1414  0.3443 -0.0098
21135W        W36752   5.138  15.431  10.464 -0.0365 -0.1759 -0.3575
21136W        W36753  18.504   1.604   2.803  0.3103 -0.2375 -0.0043
21137W        W36754   2.467  11.003   3.634  0.3702 -0.1390 -0.2940
21138W        W36755  11.418  10.262   5.290 -0.1425 -0.1907  0.4118
21139W        W36756  15.093  10.254   2.033 -0.0215 -0.1878  0.1294
21140W        W36757   5.310  11.528  12.533  0.1850 -0.3332 -0.1324
21141W        W36758   3.821   6.914   3.197 -0.2116  0.0801 -0.3018
21142W        W36759   8.204   7.245   3.305 -0.0193 -0.3105 -0.1250
21143W        W36760   7.541   3.633   5.477 -0.0135 -0.1135 -0.2082
21144W        W36761   7.184  10.766  13.835 -0.4555  0.2261  0.2506
21145W        W36762  13.951   8.055  11.119 -0.1902 -0.4174 -0.0311
21146W        W36763  12.039  18.536   4.252 -0.4732  0.1895 -0.1372
21147W        W36764   8.604  10.564   3.460 -0.1459 -0.0792 -0.1062
21148W        W36765   4.163  14.123   4.145 -0.4334  0.2957 -0.1790
21149W        W36766   2.066  14.636  13.137 -0.1818  0.0478  0.1842
21150W        W36767   6.066   6.236   2.631 -0.1048 -0.0253  0.3883
21151W        W36768   4.665   6.967   3.838  0.1308 -0.3322  0.3615
21152W        W36769  14.275   5.572   0.939  0.0090  0.0664  0.1109
21153W        W36770  19.073   2.793   0.817 -0.0463  0.1435 -0.2836
21154W        W36771   5.614   9.544   4.773  0.3669  0.1420 -0.0603
21155W        W36772   3.788   5.333   0.756  0.0743  0.0329  0.0542
21156W        W36773   9.972  11.594   1.134 -0.1946  0.1090 -0.0817
21157W        W36774   9.037  13.748   2.427  0.0607 -0.0337  0.1003
21158W        W36775  10.438  17.765   3.983 -0.1136 -0.0831 -0.0547
21159W        W36776   9.710   6.750   1.249  0.0590  0.1411 -0.1369
21160W        W36777  16.593  17.108   3.002  0.0299  0.2943 -0.0720
21161W        W36778  13.060   0.974   9.978 -0.0816 -0.0735 -0.0114
21162W        W36779  16.048  18.917   3.085  0.4000 -0.0578 -0.2973
21163W        W36780  16.420  10.714   4.376  0.1951 -0.1257 -0.1070
21164W        W36781  11.004   6.295   2.284  0.1667 -0.2398 -0.1395
21165W        W36782   2.909   4.830  13.406 -0.2193  0.1035 -0.0455
21166W        W36783   6.906  18.691   3.090  0.0465 -0.1160  0.2551
21167W        W36784  16.069  10.399  11.921 -0.1036  0.2534 -0.0455
21168W        W36785  14.470   2.852  11.176  0.0616  0.0670  0.0289
21169W        W36786   1.536   6.123   1.838 -0.1729  0.0235 -0.0865
21170W        W36787  13.013   7.379   3.294  0.3514 -0.0961 -0.3496
21171W        W36788   2.231   6.326  10.795 -0.0958 -0.0551  0.4601
21172W        W36789  13.999   4.714  14.006 -0.1401  0.2977  0.0119
21173W        W36790   1.524   3.315  12.846  0.2408 -0.2534  0.0223
21174W        W36791   5.648   2.246  14.486 -0.2815  0.1984  0.5361
21175W        W36792   5.397  11.049  13.844  0.2726 -0.0973  0.2022
21176W        W36793   0.820  12.144   9.450 -0.0753 -0.0768  0.1566
21177W        W36794  14.419  12.759  12.773  0.1585  0.2057 -0.1973
21178W        W36795  15.116   9.564   2.378 -0.0547 -0.0565 -0.0663
21179W        W36796   7.231  14.092  12.420 -0.0980  0.0254  0.1933
21180W        W36797   3.881  17.536   3.236 -0.0382 -0.1192  0.0789
21181W        W36798  11.970   4.179   4.052 -0.1116  0.0503  0.3684
21182W        W36799   4.532  11.438   0.430  0.2538 -0.0920 -0.1716
21183W        W36800  18.096  12.284   4.422 -0.1049  0.0563 -0.3155
21184W        W36801  16.529   7.463   1.447  0.3674 -0.0693  0.2510
21185W        W36802   5.380   2.254  12.377 -0.1141  0.1343 -0.0808
21186W        W36803   7.354   7.626   3.296  0.1957  0.1246 -0.0192
21187W        W36804   3.855   3.298   6.445  0.2293 -0.1425 -0.1361
21188W        W36805   9.184   7.467  13.524  0.2014 -0.0108  0.1904
21189W        W36806  11.824   3.866   5.259  0.0639  0.4690 -0.0546
21190W        W36807   0.988   2.989   1.180  0.1423  0.0973  0.1820
21191W        W36808   9.991   3.628  14.975 -0.2940 -0.0236 -0.1587
21192W        W36809   2.846   5.090   0.767  0.2729 -0.0278 -0.3897
21193W        W36810   0.691   5.141  11.076 -0.1420  0.0114 -0.0946
21194W        W36811   7.050   9.244  14.623 -0.3327 -0.3503  0.2668
21195W        W36812  15.623  16.094   3.084 -0.0185 -0.1076  0.3408
21196W        W36813   9.235  14.491   4.594  0.0656  0.0466 -0.1339
21197W        W36814  12.561  12.004   3.777  0.2303  0.2017  0.0138
21198W        W36815   7.948  11.891  13.517 -0.3401  0.4083  0.1110
21199W        W36816  17.727  12.845  12.632  0.1755  0.0909 -0.2237
21200W        W36817  17.456   5.631  14.578  0.4956 -0.1573 -0.0081
21201W        W36818   7.019   9.778   4.829  0.0315 -0.1732  0.2490
21202W        W36819  11.881  10.402  13.109  0.0576 -0.2246  0.1472
21203W        W36820   1.980  13.061  13.752  0.0748  0.0714  0.1896
21204W        W36821   9.218  15.150  12.152  0.1538  0.0796  0.1853
21205W        W36822   5.530  10.649   0.758  0.0589  0.1375  0.1570
21206W        W36823   4.100  13.923  13.123 -0.1187  0.2032  0.3137
21207W        W36824   8.755   0.187  10.985  0.2623  0.2322 -0.1788
21208W        W36825  12.102   7.998   9.512  0.0062  0.2367  0.0600
21209W        W36826   9.136  10.149   1.086 -0.1656  0.2732 -0.0971
21210W        W36827  10.559   5.042  11.020 -0.2367 -0.0362  0.3055
21211W        W36828   3.237  16.191  11.728 -0.0806 -0.0049 -0.1045
21212W        W36829  13.513   5.236   4.812  0.3572 -0.0197 -0.1211
21213W        W36830  17.472   4.120  14.545 -0.3150 -0.1661  0.1388
21214W        W36831  14.758   4.601  14.091 -0.1180  0.1296 -0.1094
21215W        W36832   8.734  18.201  10.961 -0.0380  0.2546 -0.3080
21216W        W36833  10.440   0.406   0.861 -0.0920 -0.0249 -0.2304
21217W        W36834  18.190   2.563   3.846  0.0775 -0.1184 -0.1556
21218W        W36835  12.227   5.295  12.825 -0.1564  0.1972  0.3540
21219W        W36836  15.287  18.808  10.770 -0.0265 -0.1886 -0.2319
21220W        W36837  11.280   2.484  11.134  0.2646  0.0739  0.2653
21221W        W36838  14.037   6.693   0.082  0.1346  0.1225 -0.0343
21222W        W36839  18.976   0.422  14.760 -0.0133  0.2630  0.3076
21223W        W36840   8.360  17.872  13.341  0.0716  0.2257 -0.1994
21224W        W36841  11.871  15.652  12.813 -0.4600 -0.0926  0.1080
21225W        W36842  12.553   8.447   2.544  0.0706 -0.1790 -0.1280
21226W        W36843  17.281   4.172   4.389 -0.1605 -0.3448  0.3196
21227W        W36844   8.774   2.097   2.204 -0.0782  0.1589  0.2841
21228W        W36845   9.255  11.768  12.575 -0.1626  0.2527  0.0111
21229W        W36846  18.464   3.303   1.661 -0.2881 -0.1495  0.0102
21230W        W36847  15.914   2.399   3.236  0.3385 -0.1269 -0.1925
21231W        W36848   0.106  12.822   2.436 -0.3554 -0.0013 -0.1717
21232W        W36849  16.483   0.257   4.216 -0.0154 -0.2764 -0.1273
21233W        W36850  17.392  12.906  11.912  0.1520  0.1694 -0.0031
21234W        W36851  18.908   5.850   3.311  0.1446 -0.2165  0.0352
21235W        W36852  13.320   8.016   3.750 -0.1955 -0.1029  0.1429
21236W        W36853  13.617   6.667  15.015 -0.0537 -0.1070  0.0086
21237W        W36854   1.043  13.553   3.180 -0.0607  0.3443 -0.2395
21238W        W36855   1.026  16.758   9.962 -0.0958  0.2718  0.0960
21239W        W36856   6.272  17.999   1.160 -0.1162 -0.1846 -0.4222
21240W        W36857   3.323  17.044  13.142  0.1210 -0.0185 -0.1615
21241W        W36858  10.317   2.637   0.196 -0.1183 -0.0717 -0.1213
21242W        W36859   4.483  14.297  14.125  0.0813 -0.0519 -0.0521
21243W        W36860   5.745  18.204  13.444  0.1494  0.0641  0.4411
21244W        W36861   6.225   4.166  15.164 -0.0961  0.0473 -0.0309
21245W        W36862  18.031   4.956  13.133  0.0477  0.1297  0.2896
21246W        W36863   9.044  10.601   3.692  0.4696 -0.0005 -0.1319
21247W        W36864   1.703   3.663   2.543  0.5643  0.0128 -0.1152
21248W        W36865   5.188  15.156   2.321 -0.0505 -0.0754 -0.1333
21249W        W36866  17.883   5.130   2.726 -0.0634 -0.0075 -0.0795
21250W        W36867   6.902   5.516  11.977 -0.0028  0.1702  0.1312
21251W        W36868   8.925  13.953   1.437 -0.0371 -0.2441  0.0897
21252W        W36869   3.907  13.240  12.255  0.2106 -0.2065  0.0044
21253W        W36870  11.027   2.233   1.684  0.0031  0.0555 -0.0367
21254W        W36871  16.219   5.280  12.936 -0.0543 -0.0133 -0.0728
21255W        W36872   9.730   8.848   1.807  0.1563 -0.2350  0.0522
21256W        W36873   4.267   5.924   1.074  0.0334  0.0484  0.1605
21257W        W36874   8.294  11.181   4.658 -0.0537  0.2314  0.0933
21258W        W36875   4.865  10.582  14.486  0.1461  0.2770 -0.0271
21259W        W36876   8.785  17.185   2.116 -0.3571 -0.4329 -0.1245
21260W        W36877   9.263  11.340  14.696 -0.0601  0.2084 -0.2402
21261W        W36878  13.650   1.987  11.038  0.2666 -0.1547 -0.2643
21262W        W36879   7.430  12.718   4.718 -0.1518  0.1020 -0.3364
21263W        W36880  14.464  17.764  13.882 -0.0340 -0.1291 -0.0606
21264W        W36881   8.830   9.225  15.245 -0.2232  0.1173 -0.2697
21265W        W36882  15.886  11.360   1.255  0.1547 -0.0137  0.3891
21266W        W36883   2.396   7.224   0.903  0.1132  0.1319 -0.3837
21267W        W36884  18.428   2.928   5.605 -0.0224  0.0403  0.1093
21268W        W36885  18.140   4.612   3.107  0.0595 -0.3520  0.1729
21269W        W36886  12.400  11.764  12.300  0.0253 -0.3939 -0.1535
21270W        W36887  10.488  13.840  11.023 -0.4787  0.0720  0.0755
21271W        W36888   6.630   9.623   0.294 -0.0991  0.2520 -0.0271
21272W        W36889   7.946   4.392   0.025  0.1584  0.1052 -0.0260
21273W        W36890   9.795  14.579   3.432  0.0131 -0.0759  0.0020
21274W        W36891  10.596   4.686  12.827  0.0321 -0.1750 -0.0177
21275W        W36892  17.842  12.987  14.428  0.2918  0.1162  0.1261
21276W        W36893  18.491   2.158   3.009  0.0808  0.2255  0.0472
21277W        W36894  16.091   5.117   4.499  0.0476  0.1468  0.3471
21278W        W36895   6.310  19.066  12.601 -0.3664  0.2597 -0.0864
21279W        W36896  15.806   0.434   1.362 -0.2399 -0.0301 -0.1231
21280W        W36897   3.675   4.747   5.693  0.0596 -0.1875  0.4683
21281W        W36898  15.932   4.891  10.458  0.0773  0.0532  0.1358
21282W        W36899  17.038  11.971   1.997  0.0962 -0.2161  0.0544
21283W        W36900  15.572  17.640  11.408 -0.3093  0.2416 -0.0929
21284W        W36901  11.790  16.670  14.327  0.1886  0.1429 -0.1140
21285W        W36902   0.425  14.591   1.222 -0.2873 -0.0881 -0.3532
21286W        W36903   2.117  12.296   3.187  0.0836 -0.3808  0.1245
21287W        W36904  15.204   1.193  13.044 -0.3969  0.1012 -0.0136
21288W        W36905   3.289  10.227   0.813 -0.1752  0.1958  0.4338
21289W        W36906   9.196   3.137   3.438 -0.4278 -0.2723 -0.0836
21290W        W36907  17.463  16.761   3.201 -0.0722 -0.2194 -0.2764
21291W        W36908  11.642  14.252  10.243  0.0156  0.0400  0.2034
21292W        W36909  12.987  14.420  10.539 -0.0936  0.2462  0.0124
21293W        W36910   9.466  11.014   0.785 -0.3019  0.3346  0.1724
21294W        W36911   6.672  11.382   1.055  0.0794 -0.1413  0.0666
21295W        W36912   6.253  17.271  12.311 -0.1912  0.0358  0.0729
21296W        W36913   6.061   1.696  11.319  0.0237  0.0813  0.2431
21297W        W36914   8.913   0.149   3.531 -0.1264  0.3625  0.1052
21298W        W36915  11.511  10.748   3.300  0.3090  0.1103  0.2648
21299W        W36916   8.117  14.425   1.802 -0.3848 -0.1389  0.1074
21300W        W36917  14.581   3.914  11.042  0.1628 -0.1826  0.2991
21301W        W36918   6.286   5.506   3.960  0.1326  0.0232  0.2889
21302W        W36919   8.968  15.786  10.859 -0.0187  0.1838 -0.2007
21303W        W36920  16.295   4.797   3.241 -0.0789  0.1217 -0.0781
21304W        W36921   4.814   0.019   4.675 -0.0970  0.1335 -0.2188
21305W        W36922  14.169  10.823  12.259  0.1319 -0.0310 -0.0561
21306W        W36923  11.598   2.442  14.787 -0.0805 -0.0077  0.4359
21307W        W36924   6.454  17.612   2.080  0.0140  0.0142  0.0120
21308W        W36925  10.285  14.508  13.519 -0.0043 -0.1194 -0.0846
21309W        W36926   1.300   4.049   2.897  0.1548 -0.1082 -0.0955
21310W        W36927  17.192   3.248  11.794 -0.1226 -0.1522  0.1846
21311W        W36928  15.437  16.039   4.072  0.1534  0.1168 -0.1026
21312W        W36929  11.071  12.103  13.223  0.0711 -0.1331  0.3146
21313W        W36930   9.374  12.587  14.500 -0.2299 -0.4558  0.0397
21314W        W36931   8.961   6.485   2.094  0.0017 -0.3580  0.2104
21315W        W36932  18.202   5.963   4.107  0.1724 -0.0915 -0.0904
21316W        W36933  17.049   6.534  13.194 -0.1675 -0.0423  0.1649
21317W        W36934  12.277  14.712  12.245 -0.4154 -0.0027  0.0763
21318W        W36935  14.363   8.727   0.808 -0.0886 -0.2343  0.3145
21319W        W36936   9.258   3.510   1.564 -0.0054 -0.1251  0.0226
21320W        W36937   8.747  15.730   1.174 -0.1493 -0.0387  0.2154
21321W        W36938  11.525  11.764   3.879  0.2277 -0.4511  0.1175
21322W        W36939   3.502  13.196   3.729  0.0861  0.0853  0.0151
21323W        W36940   7.130   4.291   4.110 -0.4929  0.1304  0.1009
21324W        W36941   5.678  16.208   3.684 -0.1511 -0.0569  0.1096
21325W        W36942  11.120   0.029   5.356 -0.0993 -0.1612  0.4078
21326W        W36943   3.599   2.871  12.620  0.0574  0.0176  0.0785
21327W        W36944  17.939   6.323  11.973  0.1936 -0.3556  0.0392
21328W        W36945   1.013  18.778   1.807  0.3473  0.0570 -0.1302
21329W        W36946  16.818   1.873   2.527  0.1759  0.0339 -0.0883
21330W        W36947   9.284   8.388   0.064  0.0459  0.3108  0.2702
21331W        W36948   1.741  12.015   2.800 -0.1123  0.0441 -0.2117
21332W        W36949   9.819   3.897  10.444 -0.0586 -0.1491 -0.2513
21333W        W36950   0.002   4.894   3.501  0.0368 -0.0363 -0.1127
21334W        W36951   4.965  13.011  12.482  0.1073 -0.0185 -0.1115
21335W        W36952  15.742   9.461  13.068 -0.0589  0.0501 -0.2987
21336W        W36953   5.663   5.242  12.746  0.0245 -0.0091 -0.0128
21337W        W36954   9.442  14.069   0.539  0.1957 -0.3083 -0.0931
21338W        W36955   9.236  13.199   4.534 -0.2141  0.1947 -0.2158
21339W        W36956  11.853   5.902   5.460  0.1747 -0.1810  0.0983
21340W        W36957  18.940  16.724  14.267  0.0457  0.0630  0.1267
21341W        W36958   0.229   1.428  13.855 -0.2216 -0.2047 -0.1921
21342W        W36959   2.254  12.731  11.623  0.2809  0.1712  0.0533
21343W        W36960  15.812  11.498   4.112 -0.1688 -0.0543  0.0509
21344W        W36961  15.860   1.479   4.403 -0.0150  0.1373 -0.2429
21345W        W36962  18.786   6.291   0.550  0.0521  0.1986 -0.0374
21346W        W36963  11.100   1.309   3.318  0.0169 -0.0233  0.0900
21347W        W36964   4.577   2.753  10.994 -0.2689 -0.0013 -0.0646
21348W        W36965   3.468   7.159   2.500  0.0001 -0.0125 -0.1969
21349W        W36966  15.099  15.801  12.026  0.1470 -0.0456 -0.0689
21350W        W36967   4.559  18.136   2.721  0.0595 -0.2949 -0.1572
21351W        W36968   8.326  17.898  12.794  0.1866  0.1702 -0.2160
21352W        W36969  15.007   3.217  13.184 -0.2479 -0.0486 -0.1975
21353W        W36970   2.560   1.259   2.020 -0.0666  0.1346  0.1353
21354W        W36971  14.996   3.117   9.679 -0.3809  0.1170  0.2244
21355W        W36972  11.054   7.063  13.592  0.2859 -0.2084 -0.0201
21356W        W36973   7.525  14.309   3.656  0.0625  0.1366 -0.0321
21357W        W36974  17.329   4.041  14.035 -0.2132  0.0031 -0.2839
21358W        W36975   0.408   2.461  13.329  0.2830 -0.1731  0.2618
21359W        W36976  13.787  17.036  11.162  0.1058  0.1657 -0.0820
21360W        W36977   8.978   1.622   5.056 -0.3265  0.0634  0.2491
21361W        W36978  14.025   7.163  13.519  0.1285  0.1054  0.1030
21362W        W36979   4.672  13.886  12.583  0.1192  0.1821  0.3238
21363W        W36980   0.913  11.211   3.890 -0.0850 -0.3606 -0.2553
21364W        W36981  16.187  13.240   3.753  0.2811  0.0155 -0.0910
21365W        W36982   7.609   5.160  13.610  0.1496  0.0234  0.0409
21366W        W36983   1.042  13.320  13.418  0.2062  0.1359  0.1056
21367W        W36984   3.975   7.641   0.560  0.1482 -0.0567  0.3626
21368W        W36985  18.337   6.557  12.780 -0.1141  0.0175 -0.1482
21369W        W36986  19.055   1.206  11.816 -0.4400  0.2371 -0.0889
21370W        W36987  15.896   8.404  12.211  0.0804  0.3528  0.0664
21371W        W36988  10.633   9.800   2.674  0.0469  0.0838 -0.0314
21372W        W36989   7.658   3.997   1.651 -0.1336 -0.1532  0.0749
21373W        W36990  15.616   0.354   1.834 -0.1087 -0.0558  0.1259
21374W        W36991   6.101  17.628   0.213  0.2823 -0.5846 -0.0136
21375W        W36992   6.873  13.991  12.087  0.1894 -0.0297 -0.1143
21376W        W36993  17.488  12.913  10.789 -0.2404 -0.2831 -0.0172
21377W        W36994  13.532  17.144   3.303  0.4377  0.1889  0.4532
21378W        W36995   5.853   6.664  13.522 -0.0341  0.1044  0.0053
21379W        W36996   2.911  17.049  14.053 -0.2822  0.1008  0.0235
21380W        W36997  13.264   6.666  14.615 -0.1865  0.4704 -0.0562
21381W        W36998   4.396   8.005  12.377 -0.0506  0.3695  0.0714
21382W        W36999  11.108  10.915  11.943 -0.2267  0.3641  0.1515
21383W        W37000   9.027   2.414  14.661  0.1183  0.2324 -0.0126
21384W        W37001   6.438  16.670   1.654  0.2705  0.0794 -0.3390
21385W        W37002  17.285  11.850   0.548  0.0140 -0.1019  0.0282
21386W        W37003  12.163   9.296  15.035 -0.2587 -0.1477 -0.0264
21387W        W37004   4.362  15.562   2.485 -0.3683 -0.1152 -0.1140
21388W        W37005  14.185   8.558   4.554  0.0864 -0.2737  0.3620
21389W        W37006  14.970   0.632  10.783  0.1831  0.1568 -0.2808
21390W        W37007  17.845   1.547   1.994  0.1216  0.1174 -0.0314
21391W        W37008  14.658  13.058   5.269 -0.2894 -0.3131  0.0068
21392W        W37009  13.206   3.739  12.479 -0.1537 -0.1404 -0.1749
21393W        W37010   6.007   4.972   3.307 -0.1063  0.1321  0.0414
21394W        W37011   0.884   2.806   1.966 -0.0180  0.0206 -0.1492
21395W        W37012   7.081  12.953  14.965 -0.3580 -0.1069  0.1220
21396W        W37013   0.499  18.910   0.067  0.3826  0.0496 -0.1189
21397W        W37014   3.268  13.054  13.066  0.0396  0.0208 -0.1108
21398W        W37015   7.147   4.519   0.186  0.0075  0.4259 -0.2222
21399W        W37016  18.972  15.354   4.010 -0.3241 -0.2793 -0.2961
21400W        W37017  10.850  10.044   5.428 -0.0409  0.0465  0.3557
21401W        W37018   9.560  17.630   1.193  0.1244 -0.0145 -0.4652
21402W        W37019  15.240   9.096  12.459 -0.3995 -0.0374  0.1947
21403W        W37020  13.372   7.080   3.817  0.2947  0.1839 -0.1401
21404W        W37021  11.747   2.600  12.324  0.0125 -0.2515 -0.2684
21405W        W37022   8.787  18.753   4.056 -0.0873 -0.3288 -0.1091
21406W        W37023   0.690  12.198  14.198 -0.0712 -0.0502  0.0273
21407W        W37024   2.048  15.805  11.179  0.1208  0.3513 -0.3462
21408W        W37025   4.999  17.005   3.933  0.2697  0.2818  0.0702
21409W        W37026  10.483  16.638   0.766  0.2067  0.0886  0.1008
21410W        W37027  13.345   8.065  12.256 -0.2178 -0.0259 -0.0263
21411W        W37028   6.940   6.458  11.607 -0.0362  0.1628  0.1186
21412W        W37029  18.890   1.092  10.514  0.0944 -0.0855  0.2255
21413W        W37030  17.687  16.636  13.768  0.1312 -0.1874  0.1014
21414W        W37031   6.679   0.312  10.901  0.2339 -0.2841 -0.0271
21415W        W37032  13.723  16.307   2.249  0.1818  0.3525 -0.5623
21416W        W37033  13.178  13.594  10.844 -0.0016  0.4535  0.1536
21417W        W37034   5.528   5.059   4.653 -0.1245  0.0255  0.1420
21418W        W37035  13.188   7.612  10.244 -0.2130 -0.0798  0.0552
21419W        W37036  17.229  15.892   0.563  0.3457 -0.1152  0.1901
21420W        W37037   6.791  10.573   0.527 -0.1285 -0.2865 -0.1689
21421W        W37038  13.400   7.447  14.479 -0.1514  0.1149 -0.2573
21422W        W37039  16.961  12.372  12.083  0.0245  0.2280  0.2234
21423W        W37040   9.004  15.957  13.861  0.0556 -0.1339 -0.2619
21424W        W37041   9.213   9.159  13.404  0.1269 -0.2300  0.0270
21425W        W37042  12.567   3.489   4.200  0.0223 -0.0427  0.2628
21426W        W37043  16.448  14.116  13.786  0.0924  0.1471 -0.1070
21427W        W37044   0.001  13.377  11.265  0.0419 -0.2649  0.0798
21428W        W37045  14.039   6.832   2.488 -0.0179 -0.1678 -0.0081
21429W        W37046  14.125  15.450  13.195  0.2468  0.1047  0.2278
21430W        W37047  15.695  11.336  15.271 -0.3454  0.1618  0.1504
21431W        W37048  16.048   2.945  12.383 -0.0758  0.0425 -0.2905
21432W        W37049   6.367   6.868   2.058  0.3370 -0.1681 -0.1035
21433W        W37050  13.376  10.849  12.734 -0.1227  0.2424  0.1956
21434W        W37051   8.987   8.595  11.831  0.1695 -0.0260  0.0573
21435W        W37052  13.409   3.874  13.089  0.1242  0.3187 -0.2157
21436W        W37053   1.641   2.280   2.869 -0.1817 -0.0627 -0.0195
21437W        W37054   0.390  15.300   3.849  0.0174 -0.1123 -0.0988
21438W        W37055  14.111   6.097   1.138  0.2549  0.1393  0.1842
21439W        W37056  14.315   4.745   4.827  0.0758 -0.0177 -0.1536
21440W        W37057   1.640  10.934   1.105  0.1809 -0.3714  0.0179
21441W        W37058   6.783   2.150  14.285  0.0003  0.0827  0.1792
21442W        W37059  13.897   8.666   3.562 -0.3555  0.2791 -0.3794
21443W        W37060  11.483   2.339  14.306 -0.1057  0.1748  0.0888
21444W        W37061   4.268   8.431   5.755 -0.0509  0.3588  0.0642
21445W        W37062   2.951  15.707  13.720  0.2338 -0.1893  0.0704
21446W        W37063   1.858   9.387   2.361 -0.1514 -0.1427 -0.1356
21447W        W37064   4.760  16.170  10.793  0.1532 -0.0055 -0.1286
21448W        W37065  15.090  13.086  10.993  0.0054 -0.3569 -0.0195
21449W        W37066   6.058   8.074  11.695 -0.1960 -0.0851  0.1069
21450W        W37067   3.474  13.953   0.566 -0.1383  0.3766 -0.2098
21451W        W37068  16.845  13.743   2.627 -0.1577  0.2587 -0.2207
21452W        W37069   3.365  14.717   1.300 -0.2661 -0.3410  0.1474
21453W        W37070  18.844  16.419   4.918  0.0535 -0.2899 -0.1360
21454W        W37071  13.048   1.934  14.496  0.5776 -0.2903  0.2316
21455W        W37072  19.034  15.857   5.296  0.1464  0.0748  0.0442
21456W        W37073  13.569   3.581   2.502 -0.2753  0.1300  0.0248
21457W        W37074  15.687   0.070  11.042 -0.1418  0.0952  0.0748
21458W        W37075  12.038  16.178   5.968  0.4258  0.1555 -0.0001
21459W        W37076  17.785   0.503   3.824  0.3202 -0.2104 -0.0756
21460W        W37077   1.394  17.974   3.815  0.0098 -0.0224 -0.2010
21461W        W37078   4.031  13.815  14.416  0.4642 -0.1148  0.0362
21462W        W37079   7.114  12.509  12.002  0.0757 -0.0955 -0.1070
21463W        W37080   6.683   8.845  10.972 -0.1275  0.0732 -0.0084
21464W        W37081   4.734  14.726  13.132 -0.2225 -0.0514 -0.1519
21465W        W37082  18.007   8.197  11.889 -0.1080 -0.1685  0.2504
21466W        W37083   2.703  17.453   2.345 -0.0012 -0.3073 -0.0875
21467W        W37084  17.992   3.093  11.246  0.1561 -0.0664  0.0326
21468W        W37085   7.950  18.004  15.087  0.0725  0.1477 -0.3564
21469W        W37086   3.595  13.276  11.788  0.0457  0.1664 -0.0969
21470W        W37087   7.853   7.816  10.917  0.3301 -0.1217 -0.1573
21471W        W37088  17.426   5.173  12.202  0.3440 -0.2902  0.1845
21472W        W37089  14.635  18.089   4.236 -0.0554 -0.0358 -0.0604
21473W        W37090   7.451   9.761  11.589 -0.1275  0.0394 -0.0424
21474W        W37091   1.122  16.114  12.376 -0.0709 -0.4685 -0.1337
21475W        W37092   9.826   8.678  13.732  0.1052  0.0657 -0.1056
21476W        W37093  18.383   6.275  13.292 -0.2185  0.2815 -0.0850
21477W        W37094   7.998   0.113   4.435  0.0582 -0.0951 -0.1717
21478W        W37095  11.987  10.597  12.130 -0.0257  0.0766  0.0156
21479W        W37096   8.274   7.294   4.387  0.2320  0.4105 -0.3400
21480W        W37097   6.389   8.896   4.348 -0.2404 -0.0324  0.2730
21481W        W37098   9.140  10.789  10.403  0.0567  0.2160 -0.2389
21482W        W37099  11.839  10.859   5.276 -0.3489  0.1151 -0.0977
21483W        W37100   4.544   6.148  10.921 -0.0411  0.3013 -0.1732
21484W        W37101   3.157   4.111   4.154 -0.0229  0.2410  0.0395
21485W        W37102   3.657   2.395  12.281  0.3003 -0.1374 -0.1255
21486W        W37103  15.817  17.622   0.176 -0.1089  0.0068 -0.1107
21487W        W37104  15.264   9.040   3.748  0.2931  0.0383 -0.2593
21488W        W37105   6.995  13.485   0.901  0.2775  0.3061 -0.1126
21489W        W37106   5.422   1.221   1.621 -0.1912 -0.0868 -0.2396
21490W        W37107   9.590  14.793   4.493  0.2765  0.0112 -0.2169
21491W        W37108   3.896  10.351  11.993 -0.2231  0.0059  0.0142
21492W        W37109  17.261  13.229   4.224 -0.1804  0.1881  0.0180
21493W        W37110   3.174   9.768  14.117  0.1123 -0.0783 -0.0499
21494W        W37111   4.032   7.846   2.360 -0.3978  0.1079  0.4400
21495W        W37112   0.326  10.603  10.902 -0.2186  0.0795  0.0230
21496W        W37113   1.944   0.154  11.638 -0.2325  0.3312  0.3210
21497W        W37114  14.132   8.767   3.136  0.0171 -0.0396  0.0240
21498W        W37115  15.636   8.698  12.618 -0.1418 -0.0815  0.1823
21499W        W37116   8.867  14.386   1.783 -0.0888  0.1755 -0.3781
21500W        W37117   7.909  12.471   4.496  0.1829  0.0169 -0.0118
21501W        W37118   8.456  14.674  10.256 -0.0542 -0.3572  0.4193
21502W        W37119   5.358   9.069   4.109  0.1230 -0.0441 -0.0965
21503W        W37120  10.307   0.081   4.317  0.2506  0.2975  0.0223
21504W        W37121   1.302  12.979  13.135  0.3519 -0.4371 -0.1819
21505W        W37122   4.460   1.097   2.023 -0.0655  0.1571  0.0571
21506W        W37123  10.918   4.934   1.039  0.1380 -0.5705  0.0542
21507W        W37124  19.005  11.771  14.579  0.0682 -0.1682  0.1889
21508W        W37125   1.520  11.039  13.150  0.0209 -0.2302  0.0080
21509W        W37126   7.299  16.453  10.814 -0.0180 -0.0219 -0.0963
21510W        W37127  13.245  18.407  10.793  0.0432  0.0128 -0.1153
21511W        W37128  10.076   0.024   5.165  0.0462 -0.2689 -0.0127
21512W        W37129  13.886   6.797  10.638  0.0190 -0.2709 -0.1098
21513W        W37130  18.441   4.031   4.345 -0.0633 -0.3355  0.1506
21514W        W37131  15.516  17.985   3.812  0.2944 -0.0059 -0.1650
21515W        W37132   0.741  15.098   3.137 -0.2139 -0.2984 -0.0187
21516W        W37133  10.787  12.537   1.979  0.3189  0.0098 -0.0921
21517W        W37134  11.947   2.383  14.343 -0.1490  0.0451  0.1402
21518W        W37135   2.442  11.500  14.455 -0.3288 -0.1558  0.1055
21519W        W37136  10.368  15.984   1.921 -0.1082  0.2867  0.3331
21520W        W37137   6.937   1.525  14.332 -0.0182  0.1062 -0.0784
21521W        W37138  18.587  14.905   0.523 -0.0248  0.0882 -0.1452
21522W        W37139   5.414   9.239  10.988  0.0319  0.0969  0.0110
21523W        W37140  13.584   9.568  14.770  0.2820 -0.1522  0.0508
21524W        W37141   7.774   8.362  13.094 -0.0291 -0.0678 -0.2037
21525W        W37142  12.018  17.708   0.906 -0.0861  0.4329 -0.4332
21526W        W37143  16.946  14.269  12.061  0.0891  0.0798  0.0760
21527W        W37144   1.009   0.688  12.189 -0.0377 -0.0631  0.2025
21528W        W37145   3.399  11.080   0.076 -0.1280  0.1201 -0.1014
21529W        W37146  18.835   5.133  11.612 -0.0209  0.2295  0.0506
21530W        W37147   6.548  18.877   3.370 -0.0298 -0.0504  0.2384
21531W        W37148   9.290   7.487  10.775 -0.1141 -0.0468  0.1545
21532W        W37149  13.638   0.634   3.231  0.4140  0.0888 -0.0427
21533W        W37150  15.374  11.974   2.861 -0.2153  0.0209  0.0045
21534W        W37151   4.976  17.317   4.282  0.0212 -0.1802 -0.1803
21535W        W37152  11.237  16.422   4.356 -0.1468 -0.0369 -0.1814
21536W        W37153  12.025   1.664   0.072 -0.1394 -0.0352 -0.0204
21537W        W37154  14.948   9.817   0.815  0.3421 -0.0168  0.1318
21538W        W37155  18.036  17.921  11.472 -0.2698  0.0873 -0.3129
21539W        W37156   3.335  10.130  15.014 -0.1125 -0.0018 -0.0256
21540W        W37157   6.571  18.905  13.380  0.1263 -0.0948  0.0940
21541W        W37158   7.468   8.557  14.659  0.0477  0.0562 -0.1700
21542W        W37159  11.151  10.823   1.362 -0.1559 -0.4160  0.0621
21543W        W37160   1.685   6.230   4.739  0.2469  0.0478 -0.1592
21544W        W37161  17.265  10.402   5.300 -0.0016 -0.5697  0.0928
21545W        W37162  13.615  14.704  13.752 -0.1763 -0.1266  0.0173
21546W        W37163  13.921   2.682   2.978  0.2422 -0.1606  0.0714
21547W        W37164  15.899  10.622   5.601 -0.2668 -0.2671  0.2392
21548W        W37165   2.305   2.589   1.454 -0.2906 -0.2012 -0.1278
21549W        W37166   0.452   5.443   2.771  0.1284 -0.1998  0.1008
21550W        W37167  16.625  12.658   1.230  0.2040 -0.0314 -0.2400
21551W        W37168  13.750  11.200  14.516 -0.0791  0.1152 -0.1797
21552W        W37169   6.322  10.679  13.964 -0.0108  0.1435 -0.2730
21553W        W37170   9.279  12.662  14.022  0.0678  0.0735  0.0978
21554W        W37171  16.906  11.081   5.103  0.1111 -0.0053 -0.2019
21555W        W37172  15.233   6.864  10.456  0.0139  0.1792  0.0593
21556W        W37173  11.508  16.585   4.984  0.1387  0.2249  0.2527
21557W        W37174  18.801  15.462   4.580  0.0516  0.2896 -0.3178
21558W        W37175   9.808   8.516   0.001  0.0949 -0.0778 -0.4437
21559W        W37176   1.606   2.492  13.474 -0.0678  0.2163 -0.2556
21560W        W37177  17.870  12.991   2.356 -0.2856 -0.2767 -0.2354
21561W        W37178   9.286  11.454  12.183  0.0508 -0.2847  0.2939
21562W        W37179  18.790   1.320   3.792  0.0211  0.1769  0.3311
21563W        W37180   9.336   6.208   4.188 -0.0598  0.1147 -0.2741
21564W        W37181   3.803   6.036   1.411  0.1099 -0.2687  0.1010
21565W        W37182   1.018   9.001  11.543 -0.0455  0.2901  0.0986
21566W        W37183  16.653  16.472   9.701 -0.2122  0.0160  0.1162
21567W        W37184   0.485   9.707   0.382 -0.2792  0.1694  0.3469
21568W        W37185   2.819   0.504  11.550 -0.2807 -0.1848 -0.0652
21569W        W37186   7.277   5.545  11.480  0.0570 -0.1644  0.2470
21570W        W37187  10.208   5.033   0.897  0.3273 -0.3197 -0.2792
21571W        W37188   3.130  12.447  10.633  0.3140 -0.1285 -0.2544
21572W        W37189   2.456   7.196  12.105  0.0861  0.1888  0.0898
21573W        W37190   6.198   1.607  12.505  0.2346 -0.1246  0.2004
21574W        W37191   3.046   6.650  14.739 -0.0196 -0.1216 -0.2834
21575W        W37192  13.603   0.882  11.375  0.1982 -0.0906  0.2474
21576W        W37193  15.392   7.131  13.939 -0.1391 -0.0724  0.1085
21577W        W37194  18.313   0.839   5.712 -0.4800 -0.5945 -0.0187
21578W        W37195  16.777  18.382   5.306 -0.0965 -0.0092  0.0576
21579W        W37196  13.663  11.234   1.644  0.1264  0.4004 -0.0957
21580W        W37197   8.607  16.248   3.818  0.2142  0.0837  0.0282
21581W        W37198  18.496  12.722  13.078 -0.1463  0.1308 -0.0038
21582W        W37199   5.687  12.035  10.565 -0.1388 -0.1439  0.2071
21583W        W37200   0.972  17.833   9.057  0.1324  0.1479 -0.0134
21584W        W37201  17.012   0.184   4.144 -0.1638 -0.3413  0.1310
21585W        W37202   6.663  11.497   4.127 -0.2750  0.3620  0.3214
21586W        W37203   5.051  18.182   1.149 -0.0788  0.0554  0.0937
21587W        W37204  10.800   2.588  13.668 -0.1843  0.1809  0.2881
21588W        W37205  17.094  10.317   0.781  0.1880  0.2207 -0.1051
21589W        W37206  12.379  18.418  14.186  0.1258 -0.1318 -0.1970
21590W        W37207   2.422  13.752  13.768  0.1053 -0.2070 -0.2113
21591W        W37208   5.355   6.850  15.012  0.0612 -0.0354 -0.6765
21592W        W37209  17.244   8.274  11.719  0.0457 -0.1792 -0.0851
21593W        W37210   3.736  17.996  14.803 -0.3521 -0.0139  0.2843
21594W        W37211   8.050  15.895  11.310 -0.0939  0.1082 -0.0378
21595W        W37212  18.399  18.600  15.141  0.1722  0.0237 -0.1576
21596W        W37213  15.155  13.150  14.683 -0.0440 -0.1431  0.3626
21597W        W37214   8.488   2.686  12.209  0.0008 -0.0767  0.0628
21598W        W37215  12.238  14.295  11.977 -0.1419 -0.1251  0.1514
21599W        W37216   7.462   2.430  10.800  0.0073  0.1285 -0.2257
21600W        W37217  17.038   6.528  10.778  0.0893 -0.1964 -0.0672
21601W        W37218  18.905  16.294  11.022  0.1552  0.1600 -0.0328
21602W        W37219  10.766   7.864   5.115  0.1261 -0.1385 -0.0020
21603W        W37220   8.060  13.099  12.034  0.2135 -0.1872  0.2139
21604W        W37221  19.019  17.228   3.534  0.2143  0.0080 -0.1767
21605W        W37222   9.187  14.165  12.660  0.2860 -0.0029  0.0570
21606W        W37223  12.976  18.756  12.584 -0.1480  0.0673  0.3833
21607W        W37224  12.013   5.346   1.142 -0.1129 -0.3223 -0.3859
21608W        W37225   5.734   1.468  12.636 -0.4132  0.1790 -0.1264
21609W        W37226   7.699   2.639   3.465  0.0476 -0.1200  0.0428
21610W        W37227  15.545  10.618   2.083  0.0722  0.0729  0.1171
21611W        W37228   9.097  15.718   0.843  0.2330  0.3755 -0.2575
21612W        W37229   7.773  13.627   4.301  0.0624 -0.2213  0.2173
21613W        W37230  18.015  13.942  14.945 -0.2419  0.4593 -0.0315
21614W        W37231   3.189  15.139   5.844 -0.0895 -0.2690  0.0414
21615W        W37232  15.856  10.679   4.475 -0.2947  0.1567  0.5087
21616W        W37233  11.477   2.970  14.855  0.0150  0.1680 -0.0760
21617W        W37234   2.423   3.493   0.492  0.0662 -0.2094  0.3094
21618W        W37235  18.326  18.411   1.235 -0.2721  0.1791  0.0165
21619W        W37236   9.396   5.921  13.242 -0.0575 -0.1799 -0.1839
21620W        W37237   5.288   4.786  10.575 -0.3988  0.0050  0.2801
21621W        W37238  13.369   3.212  14.231  0.1101 -0.5117 -0.0221
21622W        W37239   5.409   0.245  12.255 -0.1422  0.1348 -0.2463
21623W        W37240  18.660   0.999   5.359  0.2407 -0.1771  0.1814
21624W        W37241   9.767  11.403  14.669  0.0722 -0.3579  0.0266
21625W        W37242  15.701  18.150  12.861  0.3845  0.3000 -0.1395
21626W        W37243  12.702  14.233   5.005 -0.2112  0.1472 -0.0637
21627W        W37244   4.185  15.326  14.429  0.3920 -0.1761  0.2049
21628W        W37245  17.351   7.299  15.128 -0.1845 -0.1384 -0.3856
21629W        W37246  11.925   0.550  12.986  0.2981 -0.0497 -0.2104
21630W        W37247  12.494   4.579   1.596 -0.1386 -0.1228  0.0502
21631W        W37248  11.960   6.703  14.810  0.0510  0.1966 -0.0388
21632W        W37249   0.683  18.313   3.489 -0.0506  0.0229  0.0328
21633W        W37250  16.578  13.207   3.444 -0.3085  0.1715 -0.2954
21634W        W37251  13.866   5.729   3.070  0.0106 -0.3272  0.1344
21635W        W37252  13.960   3.893  11.829  0.0549 -0.1533 -0.3352
21636W        W37253  15.212  10.252  14.495 -0.0930  0.2428  0.0716
21637W        W37254   0.640   3.897  12.458  0.2705  0.0003 -0.0864
21638W        W37255   5.781  13.372   4.910  0.0668 -0.2437  0.2149
21639W        W37256  11.318  11.300   1.910 -0.0134  0.1417 -0.0616
21640W        W37257  11.471  16.117  10.676 -0.3522 -0.3042  0.0902
21641W        W37258   4.603  12.701   2.532  0.2398  0.3162 -0.2244
21642W        W37259   7.527  14.492  11.164  0.0385  0.0711  0.1582
21643W        W37260  14.000  12.174  14.518  0.4121  0.0930  0.3619
21644W        W37261   4.577  12.077   4.400 -0.2027 -0.0459 -0.0340
21645W        W37262  14.405  12.545  13.635  0.1906 -0.1764  0.2252
21646W        W37263  17.880  15.148   0.882 -0.0044  0.0587  0.1420
21647W        W37264  14.309   1.445  10.646 -0.4003  0.0874  0.0649
21648W        W37265   5.123  13.511  12.663 -0.0534 -0.1692  0.2025
21649W        W37266  11.839  17.725  13.437  0.3954 -0.1368 -0.3930
21650W        W37267  15.362   4.904   4.203 -0.1231 -0.0643  0.0369
21651W        W37268   8.328   9.244  12.927 -0.1370 -0.3782  0.1946
21652W        W37269  14.765   2.524   1.694 -0.0883 -0.0406  0.1880
21653W        W37270   4.508   8.277  12.802 -0.0747  0.0906  0.2533
21654W        W37271   5.452  11.785   4.599 -0.0407 -0.1945 -0.0725
21655W        W37272   1.505   8.273   9.742 -0.0754 -0.0794  0.1917
21656W        W37273  18.220  10.118   6.228 -0.3734  0.4219  0.1613
21657W        W37274   4.569   1.009   1.006  0.0505 -0.4260  0.0278
21658W        W37275  11.485   2.609   4.499 -0.2678  0.1029 -0.0753
21659W        W37276   9.345   2.251  11.415  0.3647 -0.0870 -0.0613
21660W        W37277   9.580  12.090  12.684  0.0513 -0.0197  0.0262
21661W        W37278   7.500  14.069  12.007  0.2845  0.0411 -0.0449
21662W        W37279  18.790  10.314  14.518 -0.3222 -0.3525 -0.2959
21663W        W37280  12.492   5.034  10.745 -0.4901 -0.0466 -0.0580
21664W        W37281   4.702  13.464   1.260 -0.0635  0.0031 -0.0179
21665W        W37282  12.628  13.083  12.531 -0.4021  0.2005  0.1606
21666W        W37283  14.114  10.553  10.135 -0.0008 -0.1819  0.0203
21667W        W37284  11.201   0.894   0.536  0.0954 -0.0858  0.0071
21668W        W37285  15.896   4.395  14.354  0.1876  0.1303 -0.0411
21669W        W37286  13.753  14.812  10.858 -0.0106  0.2791 -0.0975
21670W        W37287   9.432  15.009   9.792 -0.0107  0.2003  0.0475
21671W        W37288  12.694  13.086   1.884  0.1047  0.1335  0.1521
21672W        W37289   1.956  13.040  11.873  0.2800  0.0522 -0.1733
21673W        W37290  12.482   5.714  12.883 -0.1876 -0.1716  0.0538
21674W        W37291   6.875  12.361   0.487  0.0376 -0.0125  0.2317
21675W        W37292  11.124  16.254   0.094  0.1258  0.1778  0.0715
21676W        W37293  12.356  11.341  14.329  0.1642  0.4031 -0.0231
21677W        W37294  15.879  16.924  11.605 -0.3190 -0.0475 -0.1472
21678W        W37295   9.602  13.832  13.540 -0.0870  0.1018  0.0380
21679W        W37296   7.083   8.750   2.374 -0.2195  0.2006 -0.2333
21680W        W37297   9.093   1.138  14.663 -0.3351  0.2521  0.0694
21681W        W37298   5.992  14.218   5.088 -0.3117 -0.1737  0.1465
21682W        W37299  11.450  14.322   5.067 -0.0055 -0.1176 -0.3964
21683W        W37300   7.024   7.728   1.399 -0.4610 -0.0818 -0.1232
21684W        W37301  19.051   3.767   5.086  0.3277  0.1490 -0.3571
21685W        W37302   0.850  15.125  11.414 -0.4444  0.0486  0.0263
21686W        W37303   0.036   2.926   2.868  0.3155 -0.0925  0.0060
21687W        W37304   4.230  13.465   0.470  0.1156 -0.1247 -0.1531
21688W        W37305   1.466   9.002   4.702 -0.0089  0.2992  0.0339
21689W        W37306   8.472   0.940   1.331  0.1742 -0.1914 -0.0441
21690W        W37307   3.833   0.670   4.607 -0.1308 -0.0997 -0.2575
21691W        W37308   2.097  15.885  13.610  0.0148 -0.0484  0.0971
21692W        W37309  12.152   4.868   3.661 -0.2697 -0.0315  0.2138
21693W        W37310   0.644   4.782   2.939 -0.5556 -0.0172 -0.0619
21694W        W37311  10.750   3.662   2.566 -0.1652 -0.0928 -0.1801
21695W        W37312  16.243  11.789  10.155 -0.1259 -0.1023 -0.1223
21696W        W37313  18.405  13.876  10.363 -0.3221  0.2782 -0.2489
21697W        W37314   5.991   1.129  13.454  0.1209 -0.0045 -0.4677
21698W        W37315   7.295   5.135   2.507 -0.0584 -0.2177 -0.1124
21699W        W37316   4.483  16.156  14.621 -0.4999  0.1396 -0.1817
21700W        W37317   7.775  10.657   5.077  0.1550  0.1647 -0.1468
21701W        W37318   7.195  16.481  13.475 -0.1787 -0.4666  0.0440
21702W        W37319   5.110  10.040   4.394  0.0469  0.2361  0.0410
21703W        W37320   1.922  15.173   2.478 -0.0336 -0.0946 -0.0392
21704W        W37321  17.651   4.236  12.329  0.3265  0.0920 -0.0807
21705W        W37322  17.725  19.052   3.694  0.0333  0.0462  0.1977
21706W        W37323   2.038   9.868   1.094  0.0129  0.2810 -0.1200
21707W        W37324   0.867   4.117  15.112 -0.0204  0.0081 -0.1443
21708W        W37325  17.600  16.169   3.479  0.0743 -0.0324 -0.0735
21709W        W37326  17.330  10.617  10.975  0.2231  0.0145 -0.1712
21710W        W37327   3.971  10.161  10.352  0.0222  0.0720  0.1708
21711W        W37328   6.766   2.681   1.037  0.1366  0.3761 -0.1451
21712W        W37329  11.546   5.275  11.250  0.0507  0.0498  0.3712
21713W        W37330  11.811   5.128  10.150  0.2034  0.1950  0.0674
21714W        W37331  17.500  14.446   2.397 -0.1231 -0.1599 -0.2605
21715W        W37332  10.712   6.651   0.122 -0.0034  0.0003  0.0734
21716W        W37333   6.953   2.258  10.102  0.0144 -0.1451  0.0806
21717W        W37334   8.191  18.856   3.795  0.2333  0.1642 -0.0438
21718W        W37335   5.162  19.025   2.335  0.1898 -0.0467  0.1681
21719W        W37336  16.115  14.503  10.715  0.2106  0.1337 -0.1493
21720W        W37337  11.090   7.532  13.372 -0.1350  0.1242  0.1990
21721W        W37338  16.431  10.959   2.536  0.0498  0.1107 -0.1897
21722W        W37339   9.929  13.850  12.287  0.3861 -0.1461 -0.0937
21723W        W37340  10.778  16.608  12.552 -0.0394  0.0174  0.1403
21724W        W37341   9.495  18.207  12.459  0.0620 -0.2059 -0.0784
21725W        W37342  11.796   4.444  11.398 -0.4385 -0.2030 -0.0419
21726W        W37343  17.471   5.661  14.114  0.1228 -0.2376 -0.0436
21727W        W37344  11.741  12.347   3.334  0.1737 -0.2953  0.0962
21728W        W37345  13.849  15.327  12.772 -0.0276 -0.1435 -0.0357
21729W        W37346  16.492  18.090  14.878  0.2071 -0.1008 -0.0951
21730W        W37347  12.374   6.058  13.277 -0.1340  0.0962  0.0845
21731W        W37348   4.048   1.621   0.543 -0.0021  0.0665  0.0541
21732W        W37349   2.649  11.374  10.426  0.2372 -0.1416  0.1200
21733W        W37350  11.103  13.859   1.885  0.0061 -0.1629  0.0925
21734W        W37351  17.351  13.256  15.266 -0.0069  0.1048 -0.3824
21735W        W37352   0.219  16.321   2.989 -0.2279  0.2281  0.2532
21736W        W37353  10.978   4.510   0.623 -0.3205  0.0368 -0.2448
21737W        W37354   3.937  13.975   2.989  0.0542  0.1105 -0.1628
21738W        W37355   9.541  10.187  11.915  0.0156 -0.1087 -0.1131
21739W        W37356   4.279   0.817   0.582 -0.0792 -0.1256  0.1276
21740W        W37357   7.108  13.551   1.434  0.1026  0.0601 -0.1080
21741W        W37358   5.368   4.688   3.768 -0.0335 -0.1490 -0.1768
21742W        W37359  13.173   7.604   1.180 -0.2132 -0.2489 -0.1993
21743W        W37360   4.126   0.340   1.436 -0.0994  0.2094 -0.0225
21744W        W37361   9.476   4.598  13.823  0.0044  0.2337 -0.0580
21745W        W37362   7.546   4.694   3.965 -0.1750 -0.0444  0.1478
21746W        W37363   2.140  10.441  11.501  0.1224 -0.3884  0.1453
21747W        W37364  13.461   0.368   1.745  0.1885 -0.0261 -0.1095
21748W        W37365   4.713  11.563  15.242 -0.1720 -0.0205  0.3409
21749W        W37366   7.557   7.636  11.929  0.3096  0.1419 -0.1759
21750W        W37367   8.949   7.270  13.121  0.0800 -0.2072 -0.0197
21751W        W37368   1.669   3.607  12.193 -0.3640  0.3351  0.0467
21752W        W37369  18.831  17.361   0.117 -0.2132  0.2366 -0.1194
21753W        W37370  13.309   7.568   4.704 -0.2094 -0.0299  0.1170
21754W        W37371   4.822  10.561  12.670  0.0055 -0.1655  0.1007
21755W        W37372  10.839   1.373  12.643  0.2901  0.2881 -0.1789
21756W        W37373  10.327   2.633   5.306 -0.0294 -0.2761 -0.2429
21757W        W37374  12.770   1.682  14.824  0.2308  0.0859  0.5607
21758W        W37375  10.837   5.294  12.966 -0.0133  0.0115  0.1387
21759W        W37376  17.178   9.640   0.458 -0.4621  0.1550 -0.0813
21760W        W37377   7.737  10.748  10.141 -0.2717 -0.0818  0.4785
21761W        W37378   8.515  11.961  10.972 -0.1741 -0.2534 -0.2174
21762W        W37379   5.308  17.109   1.974  0.0806 -0.3309  0.1579
21763W        W37380  16.183  12.161  12.013  0.1739 -0.0650 -0.0435
21764W        W37381  13.942  10.576  14.771 -0.0155  0.3929 -0.3990
21765W        W37382  13.084   2.963  12.851  0.0082 -0.1213  0.2255
21766W        W37383  17.838  17.045   4.400  0.4998 -0.0409  0.1532
21767W        W37384   7.925   9.733  13.025 -0.2052 -0.1151 -0.4685
21768W        W37385  17.591   4.638   3.448 -0.3730 -0.0882  0.1609
21769W        W37386   3.025  16.436   0.170  0.0657 -0.0642  0.1733
21770W        W37387  13.576  13.516  12.999  0.1670  0.4615  0.0580
21771W        W37388  16.709   2.104  13.519  0.1427  0.1020  0.1707
21772W        W37389   4.067  13.096  15.067  0.1216 -0.0515 -0.0982
21773W        W37390   4.135  13.933   0.951 -0.0816  0.1398 -0.1447
21774W        W37391   8.589   1.659   1.774  0.0024 -0.0136 -0.3657
21775W        W37392   0.292   2.809   0.424 -0.1027  0.1900  0.3324
21776W        W37393  14.057   9.179  14.974  0.0312  0.0064 -0.2771
21777W        W37394  15.220  17.561   2.861 -0.0423 -0.0071 -0.0270
21778W        W37395   7.890   8.619  15.016 -0.2908 -0.1815 -0.3159
21779W        W37396   8.884   9.370  13.013  0.0224 -0.0270 -0.2280
21780W        W37397  15.818  16.562  12.107  0.2590  0.0793  0.1540
21781W        W37398   3.529  14.739  10.492  0.0284 -0.1805  0.0657
21782W        W37399  18.624   6.795  14.543  0.1129 -0.2375  0.3486
21783W        W37400   0.126   1.549   1.692 -0.0590  0.0969  0.2155
21784W        W37401  18.174  11.380  10.451 -0.0917 -0.0734 -0.2240
21785W        W37402   2.258   0.025  14.523  0.3239  0.0292 -0.3418
21786W        W37403   6.586  13.271   0.544 -0.1076 -0.1468 -0.2055
21787W        W37404   1.027  11.521  10.869 -0.0775 -0.0040  0.1838
21788W        W37405   7.030   4.816   4.125 -0.0201 -0.0516  0.0577
21789W        W37406   3.433  18.966  15.157 -0.0013 -0.1203  0.0925
21790W        W37407   5.219  15.221   2.980 -0.1491  0.0968  0.2101
21791W        W37408   5.222   2.317  11.030  0.0421 -0.4989  0.0449
21792W        W37409  15.545  14.399  10.810  0.2583  0.1278  0.0400
21793W        W37410   9.864   5.642  11.178  0.4096 -0.2436  0.0655
21794W        W37411   8.228  10.079   0.321  0.1972 -0.2632  0.3771
21795W        W37412   5.231   4.105  11.394  0.2191  0.0825 -0.1186
21796W        W37413   6.542  16.826  14.793  0.0697 -0.0562 -0.2450
21797W        W37414  18.870   4.527  14.029 -0.0557 -0.1009  0.3122
21798W        W37415  15.823   0.132   2.714  0.1793  0.0941  0.0381
21799W        W37416   4.374   5.545  13.311 -0.1371 -0.4126  0.0796
21800W        W37417   7.769  16.189   3.106  0.0797 -0.0887  0.2698
21801W        W37418  12.156   9.647   2.846 -0.0341  0.1544 -0.0061
21802W        W37419  14.840   0.744   3.976  0.1522 -0.1486 -0.2532
21803W        W37420   7.655  18.793  12.117 -0.0853  0.1901 -0.0026
21804W        W37421  10.297   9.333  12.929 -0.3096 -0.2052 -0.1644
21805W        W37422   7.625   8.489  12.503 -0.3506 -0.2995  0.0376
21806W        W37423   5.150  18.050  12.406  0.2819 -0.1047 -0.1989
21807W        W37424   9.132  15.745   1.611 -0.0816  0.2472  0.0076
21808W        W37425   5.892   6.340   2.187 -0.0633 -0.0039 -0.4036
21809W        W37426   0.710   9.227  12.052  0.3472 -0.0348 -0.0356
21810W        W37427  10.322  18.248   4.783  0.2779  0.2172 -0.2629
21811W        W37428  16.693   4.344  10.793  0.0468 -0.1487 -0.2243
21812W        W37429   1.971   5.611  14.893  0.1554 -0.0320 -0.3145
21813W        W37430  16.867   6.186  12.140 -0.1910  0.0344  0.0830
21814W        W37431   8.719   0.230   4.713 -0.0123 -0.2130 -0.2102
21815W        W37432  17.946   3.721  14.698 -0.3433  0.1494  0.0577
21816W        W37433  15.541  16.339  13.719  0.0900  0.0739  0.1801
21817W        W37434  10.912  15.972  11.121 -0.2075  0.0061 -0.1611
21818W        W37435  17.641  16.433   1.181  0.1515 -0.1977  0.0712
21819W        W37436  17.682   9.878  12.768  0.3292  0.1682 -0.2270
21820W        W37437   1.176  18.338  14.599 -0.0684  0.2809 -0.0971
21821W        W37438   7.420   4.373   1.445  0.0362  0.0582 -0.0126
21822W        W37439  17.056  14.561   4.818  0.1002 -0.0619  0.1580
21823W        W37440  11.696   5.387  13.953 -0.4473 -0.3287  0.0462
21824W        W37441   6.632   8.389  12.873 -0.0346  0.2191 -0.0862
21825W        W37442  16.258   7.190  10.993  0.1738 -0.0471  0.0271
21826W        W37443   5.204  11.553   5.566  0.6461  0.0177 -0.3007
21827W        W37444  15.030  14.414   1.730  0.1077 -0.3020  0.0738
21828W        W37445   7.875  11.013  13.782 -0.1070 -0.1622  0.1033
21829W        W37446   6.947  16.670  11.147  0.2561  0.0405  0.3451
21830W        W37447  17.048   1.555  12.788  0.2151 -0.1876 -0.1598
21831W        W37448   4.299   2.037   2.080  0.0845 -0.3121 -0.1646
21832W        W37449   6.626  18.040   1.759  0.3984 -0.2020  0.0365
21833W        W37450   9.293   9.234  12.159 -0.1987  0.2340 -0.5756
21834W        W37451   9.589  13.651  11.330  0.2870 -0.3798  0.1477
21835W        W37452   2.067   0.831  13.104  0.0474  0.0187  0.0996
21836W        W37453   8.097  15.868  12.406  0.0545  0.0972  0.0870
21837W        W37454   0.435  17.908  13.014 -0.1563  0.0779  0.1902
21838W        W37455   6.018  15.914  11.893  0.1094 -0.1420 -0.0326
21839W        W37456   5.651   9.161  12.822 -0.1011 -0.0482  0.5257
21840W        W37457   9.970  18.012  13.100 -0.0427 -0.0986 -0.3159
21841W        W37458  18.675   0.629   3.189 -0.1473  0.0766  0.0483
21842W        W37459   1.517  16.844  11.155 -0.2099 -0.0566  0.2513
21843W        W37460  13.716  16.922  12.319 -0.4019 -0.0374 -0.4970
21844W        W37461  14.793   2.058  13.762  0.1035 -0.3791  0.0477
21845W        W37462   5.692   3.389  14.379  0.5253 -0.0977  0.1892
21846W        W37463   8.346  13.751  12.004 -0.2456 -0.1411  0.0444
21847W        W37464   7.667   2.741   0.459  0.0959  0.3001 -0.4547
21848W        W37465   9.918   9.439  13.233  0.3954 -0.1223  0.2077
21849W        W37466  11.831  12.778   3.533 -0.0174  0.1215 -0.0428
21850W        W37467  16.843   9.242   9.991 -0.1277 -0.1394  0.1181
21851W        W37468   2.215   9.983   5.272  0.2938  0.1066 -0.3525
21852W        W37469   9.434  13.659  14.199  0.1954 -0.1560  0.0344
21853W        W37470  10.057   2.624  11.873  0.0566  0.2411  0.2781
21854W        W37471  16.992  15.367   4.149  0.0273  0.0426  0.2240
21855W        W37472   2.028  13.468   3.231 -0.2058  0.1952  0.0271
21856W        W37473  17.800  17.236   0.935 -0.4247  0.0428 -0.2031
21857W        W37474   5.678  18.135  10.904  0.1774 -0.3124 -0.3714
21858W        W37475   4.483   4.280   3.999 -0.2668  0.2455  0.4614
21859W        W37476   5.204  13.296   3.711  0.0645  0.3107 -0.2978
21860W        W37477  11.016   2.635  11.562 -0.0243  0.3204 -0.0697
21861W        W37478   2.817  16.503   9.687  0.2680  0.1548  0.1572
21862W        W37479  10.716   4.383   1.239 -0.3416  0.2560  0.2631
21863W        W37480  11.011  10.381  13.541 -0.3136 -0.0449  0.0748
21864W        W37481   8.521   1.040  13.946  0.0806 -0.2672 -0.0683
21865W        W37482   8.942  13.056   1.439  0.0588 -0.0841  0.1936
21866W        W37483  15.354   1.827  11.685 -0.1830 -0.1048  0.1316
21867W        W37484   8.445   4.016  14.437 -0.0778  0.1429  0.1327
21868W        W37485  10.036   4.787   0.293 -0.0223 -0.1269 -0.0670
21869W        W37486  13.332  10.879  12.125 -0.3264 -0.0214  0.0232
21870W        W37487   3.502   3.346  12.825  0.0972 -0.0785 -0.2257
21871W        W37488  17.956   9.677  13.152 -0.3833  0.1971 -0.1221
21872W        W37489  16.525  10.974  10.497 -0.3109 -0.1730 -0.3437
21873W        W37490   6.147  15.076  13.498 -0.0715  0.0865  0.2008
21874W        W37491  12.638   6.592  12.792  0.1805  0.2268 -0.0262
21875W        W37492  13.427  13.162   3.416  0.5456 -0.2885 -0.0591
21876W        W37493   3.689   4.710   2.084 -0.1745  0.0148 -0.2914
21877W        W37494  17.455   0.250   1.904 -0.0045  0.1008 -0.2886
21878W        W37495  12.546   0.521   3.988  0.0235  0.1740  0.0458
21879W        W37496   3.683   8.318   3.071 -0.0742  0.2655  0.1282
21880W        W37497  16.582   8.400   1.323 -0.1239 -0.1438 -0.1436
21881W        W37498   8.433   7.174  13.613 -0.0015 -0.1000 -0.0537
21882W        W37499   8.960  18.093  10.516 -0.0289 -0.1084  0.0564
21883W        W37500  17.294  13.352  10.827 -0.0025 -0.2135 -0.0537
21884W        W37501  14.620  11.033   5.551 -0.3551 -0.1639 -0.0246
21885W        W37502   3.108   7.996   3.536  0.0647 -0.0497 -0.4025
21886W        W37503  18.181   5.888   2.473 -0.3134 -0.0248 -0.0818
21887W        W37504  12.200   6.620  10.272 -0.3777  0.0448 -0.0388
21888W        W37505  18.827  13.463  11.973  0.0020  0.1774  0.2900
21889W        W37506   1.399  11.667   1.423  0.0947  0.3402 -0.0262
21890W        W37507  14.910   2.070   2.229  0.4678 -0.2393 -0.0110
21891W        W37508  17.680  11.683  14.720 -0.0068  0.2061  0.1226
21892W        W37509  15.672   2.349   9.239  0.2046  0.0521 -0.4452
21893W        W37510   6.481  12.360  13.657  0.1288 -0.1297 -0.0694
21894W        W37511  16.589  17.405   1.226 -0.0857 -0.1458 -0.0783
21895W        W37512   4.884  19.073   0.278  0.0320 -0.1510 -0.0697
21896W        W37513  14.776   7.240  12.288 -0.1367 -0.2001  0.0367
21897W        W37514  12.251   2.121   1.893 -0.0965  0.1587  0.3174
21898W        W37515  12.507   7.547   1.367  0.2492  0.0130  0.0493
21899W        W37516  11.482   4.698   2.416  0.3533  0.0041  0.2500
21900W        W37517  17.391  11.619  11.920 -0.0012 -0.1539 -0.0902
21901W        W37518   4.903   8.002  14.922  0.1829 -0.0683  0.1933
21902W        W37519   2.372   5.811  12.482  0.4522 -0.3456  0.1180
21903W        W37520  17.739   9.318   2.955  0.1128 -0.2507  0.3135
21904W        W37521   6.460   1.016   1.548 -0.3497  0.1619 -0.3196
21905W        W37522  13.518  17.955  10.907 -0.3448 -0.2320 -0.1219
21906W        W37523   0.918   3.911  13.461 -0.0017 -0.1487  0.1929
21907W        W37524  14.935   3.564  10.119  0.2161  0.3470  0.0931
21908W        W37525  15.721  13.580   1.081 -0.0703  0.1660  0.1413
21909W        W37526  15.555  12.427   2.751  0.3221  0.1768  0.0081
21910W        W37527  13.978  18.092   1.503 -0.0321  0.1579 -0.2904
21911W        W37528   2.464  13.248   0.661 -0.1169 -0.3295 -0.0410
21912W        W37529  18.112  12.277  12.968 -0.2064  0.0072  0.3281
21913W        W37530  18.269  18.742  10.610 -0.3902 -0.2146 -0.0321
21914W        W37531   9.644   9.411   1.730 -0.0255 -0.0931  0.1714
21915W        W37532  11.780  10.993   4.198 -0.6067  0.0944 -0.1145
21916W        W37533   4.537  18.404  14.739 -0.1513 -0.0719 -0.3775
21917W        W37534   9.421  18.950   5.795  0.0832  0.2883 -0.1507
21918W        W37535  10.528   6.803  11.153 -0.0015 -0.3094  0.0606
21919W        W37536  10.163   6.386  10.511  0.1161 -0.2539  0.0182
21920W        W37537   4.526  14.603   4.073 -0.0568  0.1822  0.1234
21921W        W37538  13.205  15.758   0.453  0.0991  0.0095 -0.0133
21922W        W37539   3.018  18.297  11.440  0.0419 -0.2253  0.1281
21923W        W37540   4.289  15.303  12.691 -0.0077  0.0202  0.1497
21924W        W37541   1.843  14.545  14.561 -0.4420  0.1952  0.2157
21925W        W37542   0.626   5.093   0.741 -0.0350 -0.1578 -0.1039
21926W        W37543  12.547  15.816   3.363  0.0863 -0.0281  0.0311
21927W        W37544   8.490  18.935   4.485  0.0333 -0.3916 -0.0151
21928W        W37545   7.733  17.376   5.026  0.0879 -0.2457 -0.1692
21929W        W37546  10.754   3.364  13.767  0.1239 -0.1206 -0.0146
21930W        W37547   5.768   3.130  13.246  0.4802  0.2512 -0.4397
21931W        W37548   2.207  10.912  10.630  0.0131 -0.0433 -0.3039
21932W        W37549   7.424  15.158  12.623  0.1464  0.1102 -0.0483
21933W        W37550   5.226   5.255  10.704  0.0931 -0.2594 -0.1101
21934W        W37551   6.476   0.283  12.997  0.0661  0.1434 -0.0040
21935W        W37552  16.754   0.260  14.553  0.0060 -0.3916 -0.1907
21936W        W37553   9.995  17.935  11.774 -0.2644 -0.0977 -0.1636
21937W        W37554  16.491  15.044   0.728 -0.1784  0.0268 -0.0732
21938W        W37555   7.233   8.705  14.307  0.1385 -0.3959  0.1483
21939W        W37556  17.248  12.316  10.908 -0.0767  0.1722 -0.3227
21940W        W37557   1.484  14.360   4.561 -0.2496  0.0579  0.1520
21941W        W37558   8.171  15.059  12.894  0.0866  0.0918 -0.0409
21942W        W37559   4.055  18.887  11.787  0.1795  0.2072  0.0878
21943W        W37560   1.611   3.108   0.234 -0.2046  0.2454 -0.1055
21944W        W37561  10.418   3.081  12.891  0.0506  0.0689 -0.0865
21945W        W37562   8.801   2.016  14.371  0.0884 -0.0012  0.0870
21946W        W37563   1.611  16.400   4.874  0.1149  0.3633  0.0324
21947W        W37564   5.430  18.267  12.811 -0.0797 -0.1119 -0.0194
21948W        W37565   2.812  17.095   2.744 -0.0986  0.2167  0.1426
21949W        W37566   3.339   3.388  11.174 -0.1143 -0.2726 -0.0305
21950W        W37567   6.707   7.649  14.422  0.0263  0.2133 -0.0973
21951W        W37568  11.432  13.596  13.449 -0.0827  0.0586 -0.1100
21952W        W37569  10.427   9.672  10.635  0.1907 -0.0810 -0.0184
21953W        W37570  10.519  14.530   4.526 -0.2753 -0.1880 -0.1377
21954W        W37571   7.975   8.239   0.522 -0.0987 -0.0646  0.3542
21955W        W37572   8.785  10.637  14.503 -0.1555  0.0400 -0.1427
21956W        W37573  15.498   5.211   0.389  0.1763  0.0299  0.3733
21957W        W37574   6.329  16.808   4.182  0.4534 -0.0902 -0.0413
21958W        W37575  15.280   9.433   4.230 -0.0149  0.2940  0.2915
21959W        W37576  15.772   0.608   4.895 -0.1416 -0.1855 -0.1617
21960W        W37577  16.550   0.666   3.383  0.0587  0.2398  0.1193
21961W        W37578   0.011   8.503  12.036 -0.2101 -0.0537  0.2638
21962W        W37579  11.055   0.186   2.162 -0.0962 -0.0404  0.0484
21963W        W37580   8.491   6.402   0.416  0.0539  0.1366  0.0050
21964W        W37581  17.216   4.934   1.673 -0.0075  0.0834  0.0919
21965W        W37582   1.902  13.475   4.645 -0.3226  0.2714 -0.0175
21966W        W37583  14.407   0.961   1.575  0.0126 -0.0017 -0.0188
21967W        W37584  15.483   8.589   0.352 -0.2709  0.0696  0.2990
21968W        W37585  18.234  17.436   5.706 -0.2559  0.0206  0.3658
21969W        W37586  14.918  14.628   3.156  0.1627 -0.5445 -0.0046
21970W        W37587  18.926  14.200  13.221 -0.1043  0.0794 -0.0369
21971W        W37588   5.795  17.651   1.225  0.0666  0.1383 -0.0907
21972W        W37589   8.315  11.295  11.532 -0.1891  0.0359  0.2059
21973W        W37590   8.859   6.986   2.215  0.1512  0.1546  0.3093
21974W        W37591  14.968  12.691  11.592  0.1123 -0.1968  0.1274
21975W        W37592   3.697  11.588   2.510  0.1100 -0.1315 -0.2271
21976W        W37593   1.019  14.417  14.631  0.0786 -0.0759 -0.0327
21977W        W37594   4.685   5.196   0.660 -0.1319  0.0303  0.1125
21978W        W37595  17.527   0.522   3.382  0.2220 -0.0337  0.0386
21979W        W37596  18.860  11.147   1.305  0.1915  0.1737 -0.1946
21980W        W37597   4.898   8.783   3.787  0.0559  0.2666  0.0101
21981W        W37598   1.539   3.400  14.836  0.4117  0.0744  0.0321
21982W        W37599   5.419  15.453  12.902  0.1458  0.6109 -0.0547
21983W        W37600   6.845  18.902  14.966 -0.0192 -0.2383 -0.0373
21984W        W37601  18.039  16.093  14.762 -0.1236  0.0018 -0.0487
21985W        W37602   4.242   4.693  12.653  0.0920  0.1394 -0.2770
21986W        W37603  16.651  13.952   3.532 -0.3506  0.2661  0.1072
21987W        W37604   6.803  11.246   3.281 -0.0607  0.3165 -0.1065
21988W        W37605  11.956   9.561   3.593 -0.0041  0.0072 -0.1651
21989W        W37606  10.262   9.475   2.461 -0.2593  0.1822 -0.0241
21990W        W37607   0.681   4.528   4.991  0.1026  0.0742  0.1114
21991W        W37608   1.820   3.164   2.866 -0.0465 -0.0700 -0.0573
21992W        W37609   6.116  10.724   2.103 -0.1668 -0.5925 -0.3140
21993W        W37610  18.282  14.405   1.695  0.5246  0.1479 -0.1887
21994W        W37611  18.102  14.263  14.539  0.5578 -0.2971  0.0628
21995W        W37612  10.956   4.150   9.522  0.0289 -0.1035 -0.1283
21996W        W37613  10.723   4.408   2.026  0.1622 -0.1009  0.0121
21997W        W37614  14.927   5.896  12.374  0.0729  0.0040  0.2170
21998W        W37615  13.168  14.426  11.991 -0.0416 -0.0330  0.0328
21999W        W37616  13.763  11.595   9.621  0.0951 -0.2662 -0.2632
22000W        W37617   6.596  18.848   9.697  0.0030  0.1958  0.0684
22001W        W37618   6.785  18.997   4.820  0.0585 -0.2625 -0.0891
22002W        W37619   4.418   1.875  13.156 -0.0069 -0.1865 -0.1541
22003W        W37620  16.095   9.583   0.800  0.2193  0.3969 -0.0629
22004W        W37621   0.712  10.488   5.475  0.2498  0.0546 -0.0339
22005W        W37622   6.194  11.312   0.897  0.0103 -0.1852  0.0564
22006W        W37623  14.367  16.283   0.748  0.2781  0.1243 -0.0354
22007W        W37624   2.544   1.894   4.028  0.1205 -0.2054  0.0340
22008W        W37625  17.274   2.204   4.180  0.2296 -0.0455 -0.1073
22009W        W37626  16.303  10.144   1.715 -0.1570 -0.2016  0.1576
22010W        W37627   6.190  10.389  12.723 -0.2082 -0.2386  0.0430
22011W        W37628  15.212  18.792  14.220 -0.0790 -0.3050  0.0986
22012W        W37629   4.802   5.454  12.999  0.0414  0.1959 -0.0992
22013W        W37630  17.711   3.925   2.681  0.1556 -0.0264  0.1116
22014W        W37631  13.899  13.841   2.810 -0.2847  0.2345 -0.0848
22015W        W37632   0.501  12.016   0.406  0.3148  0.1805 -0.1976
22016W        W37633  13.749  14.592   1.726 -0.3558  0.0743 -0.0648
22017W        W37634   7.810   1.557  13.135  0.1808  0.0175  0.1746
22018W        W37635   0.525   8.204  13.609 -0.0306 -0.3125 -0.3019
22019W        W37636   2.147  17.005   4.539 -0.3526 -0.0750 -0.0072
22020W        W37637  16.309  13.622   3.418 -0.1003 -0.2379  0.0355
22021W        W37638  16.162  18.080   2.935  0.1308  0.4224 -0.0122
22022W        W37639   7.030   1.822   1.664  0.2450 -0.0689  0.3406
22023W        W37640   0.619   1.825   5.667 -0.0798  0.1525 -0.0136
22024W        W37641  14.142  17.509  13.413 -0.0055 -0.3704 -0.2184
22025W        W37642  15.054  10.512  12.297 -0.0369 -0.2606 -0.1990
22026W        W37643   5.830  13.080  13.048 -0.2927 -0.1687  0.2943
22027W        W37644   0.969  17.083  15.177  0.0601 -0.1166 -0.3950
22028W        W37645   7.402   9.472  10.063 -0.3790 -0.0010 -0.2090
22029W        W37646   6.274  16.728   2.287 -0.1097  0.2562  0.2853
22030W        W37647  10.362   6.537   1.936 -0.3391  0.0850 -0.1234
22031W        W37648  16.866  15.041  12.355  0.0455 -0.0750  0.0492
22032W        W37649   1.790  10.932   0.420  0.0041 -0.1194  0.0504
22033W        W37650  11.331  10.399   4.701 -0.2143 -0.0231 -0.1179
22034W        W37651  11.328  11.635  14.770  0.2778 -0.1322  0.0125
22035W        W37652   6.284  11.100   1.776 -0.1998  0.1527 -0.0203
22036W        W37653  15.023   0.033   4.772 -0.2436  0.0998  0.1844
22037W        W37654   9.981   9.010  15.070  0.0311  0.0732 -0.0097
22038W        W37655   4.963   8.994   3.238  0.2767  0.0218 -0.0489
22039W        W37656  15.050   3.319  11.649 -0.3494  0.1449  0.0688
22040W        W37657   0.242   0.185  11.649 -0.2332 -0.1030 -0.0227
22041W        W37658   5.608  14.143   3.119  0.4908 -0.0881 -0.1594
22042W        W37659  11.891   4.056  11.055  0.3752 -0.0585 -0.0584
22043W        W37660  13.797   4.823   4.844 -0.1146  0.0542  0.1532
22044W        W37661   6.668  16.028   3.533 -0.0870 -0.1863 -0.0304
22045W        W37662  17.182   2.336   1.754  0.1401  0.3193 -0.1075
22046W        W37663   3.645   7.881   0.201  0.0467  0.1911 -0.1590
22047W        W37664   2.095  10.261  12.913  0.0985 -0.0676 -0.1241
22048W        W37665   6.852   7.350   5.136 -0.2157  0.2361  0.1180
22049W        W37666   7.962   2.836  12.268 -0.3040  0.0837  0.2712
22050W        W37667   4.801  18.674  13.452 -0.1187 -0.1791  0.2551
22051W        W37668   3.201  16.195  13.742  0.3324 -0.3280 -0.3260
22052W        W37669  12.851  14.600   1.278 -0.2426  0.0682  0.2010
22053W        W37670   6.514  16.772  12.909 -0.0437  0.0138  0.1329
22054W        W37671  17.033   5.298   1.990 -0.1637 -0.1552  0.1405
22055W        W37672  11.841  14.815  12.556 -0.0699 -0.2317  0.5219
22056W        W37673   2.856  15.100   2.463  0.3911  0.2422  0.1346
22057W        W37674   2.277  16.769  10.692  0.0767 -0.0762  0.0722
22058W        W37675  18.820   3.330  10.510  0.1758 -0.1652 -0.0273
22059W        W37676   1.090  14.509  14.073 -0.1942 -0.3696  0.1969
22060W        W37677  11.918  15.298  12.382  0.1536 -0.1946  0.0002
22061W        W37678  13.366   5.402   1.647  0.0540 -0.0187  0.0489
22062W        W37679  14.024  11.003   3.102 -0.2217  0.2817  0.0544
22063W        W37680  18.675   7.668   4.290  0.0385  0.0265  0.0672
22064W        W37681   2.081   8.799   0.732  0.1145 -0.0397 -0.0406
22065W        W37682  12.244   3.270  14.410 -0.1279 -0.2442  0.1761
22066W        W37683  15.480   0.827   1.789 -0.0192  0.3179  0.4614
22067W        W37684   1.312   6.039   5.052 -0.1365  0.0780 -0.2366
22068W        W37685   1.266  15.250  12.930  0.0439  0.0643 -0.1157
22069W        W37686   2.991  14.501   1.796 -0.4092  0.0984 -0.0909
22070W        W37687   9.891  17.892   0.906  0.0873 -0.0312 -0.2380
22071W        W37688  10.127  14.625   2.849  0.0854 -0.4369  0.1813
22072W        W37689   3.141  11.963   5.553 -0.0966 -0.2127 -0.1997
22073W        W37690   0.532   1.663   4.369  0.1462  0.1551  0.1482
22074W        W37691   1.712  16.328  13.795  0.0565 -0.1447  0.1852
22075W        W37692   9.425  17.831   2.335 -0.0983  0.0355  0.1472
22076W        W37693   1.986  11.821  11.487 -0.1484  0.0933 -0.1196
22077W        W37694  12.715  15.435  10.632 -0.2989 -0.0132 -0.0524
22078W        W37695  11.764  10.782  15.035 -0.2146  0.1144 -0.0239
22079W        W37696   8.642   6.095   0.767  0.1263  0.0117 -0.1171
22080W        W37697   4.612   0.017  15.140 -0.1294  0.2918  0.0310
22081W        W37698  18.799  11.470  14.236 -0.3329 -0.1628 -0.1989
22082W        W37699   1.995   2.043  13.216 -0.5041  0.1218  0.4526
22083W        W37700   0.290   6.397   2.156  0.1388  0.3087  0.2261
22084W        W37701   8.744  12.415  13.859  0.4052 -0.1920  0.0716
22085W        W37702   6.922   8.351  11.025 -0.2139 -0.1499  0.6083
22086W        W37703  17.053  16.519  12.643  0.0987  0.2367 -0.0855
22087W        W37704  13.836  11.406   0.912  0.1427 -0.0337 -0.1347
22088W        W37705  18.381  10.647  11.032 -0.0283  0.0387 -0.0151
22089W        W37706   1.424   6.447  11.587 -0.0230  0.1379 -0.0138
22090W        W37707  14.789   6.274  13.180 -0.2224 -0.2022  0.0869
22091W        W37708   8.294   3.684  14.906 -0.1824 -0.0147 -0.0028
22092W        W37709  18.668   0.321   3.586  0.0065 -0.1423 -0.4373
22093W        W37710   4.164  16.896   4.622  0.0831 -0.0792  0.1446
22094W        W37711  14.973   8.207   3.508 -0.0054 -0.2987 -0.1154
22095W        W37712  14.489  12.790  11.609 -0.1586  0.1334  0.0093
22096W        W37713  18.007   0.517  13.486  0.1140 -0.0433 -0.2187
22097W        W37714   9.248   6.916  14.133  0.2250 -0.1989  0.0966
22098W        W37715  11.821   2.133  13.919 -0.0334  0.1163  0.1375
22099W        W37716   8.481   6.491   4.491 -0.2648 -0.1295  0.2146
22100W        W37717  18.600  17.082   1.110 -0.0349 -0.0145  0.1199
22101W        W37718   6.989  11.112  12.787  0.1033  0.2518 -0.0867
22102W        W37719  13.405   9.350  11.761 -0.1226  0.1702  0.0616
22103W        W37720   2.420  13.427   2.369 -0.1005  0.0027  0.2837
22104W        W37721   5.010   1.946   2.306 -0.0149 -0.3911 -0.1269
22105W        W37722   5.694  16.947   0.532 -0.0207  0.2445 -0.2681
22106W        W37723  18.158   3.334   0.950  0.0610 -0.4315  0.0693
22107W        W37724  14.669  18.894  10.742  0.1676  0.2897  0.1401
22108W        W37725   3.433  13.494  14.986 -0.2682  0.2792 -0.0534
22109W        W37726  11.534   6.069   2.860  0.2617 -0.1513 -0.1227
22110W        W37727  15.931  15.647   0.581  0.2975 -0.0187  0.4299
22111W        W37728   1.455  12.954   3.931  0.0859 -0.0869  0.2497
22112W        W37729   3.232   7.046  11.169 -0.1405  0.1974  0.2218
22113W        W37730  15.439   9.960  10.536  0.3170  0.3697 -0.4117
22114W        W37731   9.930   1.819  14.825 -0.0651 -0.2396  0.0568
22115W        W37732   2.604   0.572  13.709  0.2351  0.0836  0.1143
22116W        W37733   5.023   9.477  14.165  0.2036  0.0985  0.0339
22117W        W37734   6.312   9.402  12.725  0.1275 -0.1049  0.2906
22118W        W37735   0.281   2.751   4.989 -0.0335 -0.0016  0.2527
22119W        W37736  10.046   5.801  11.677 -0.0320 -0.0191 -0.2962
22120W        W37737  12.380  15.741   0.711  0.0093  0.0786  0.3809
22121W        W37738   7.156  16.711   0.663 -0.2550  0.1814  0.2925
22122W        W37739  16.276   7.046   1.764  0.1726 -0.0281  0.0311
22123W        W37740   2.355  13.249  12.990 -0.4037 -0.2417 -0.0762
22124W        W37741  17.819   8.734   5.749  0.2048 -0.1802 -0.0067
22125W        W37742  12.354   6.412  11.580  0.0710  0.2577  0.0070
22126W        W37743   0.455  10.355   3.293 -0.1940 -0.0494  0.1515
22127W        W37744  14.435   3.842   1.093 -0.4535  0.1264 -0.3123
22128W        W37745   2.339  15.359  12.021  0.1639  0.1433 -0.1304
22129W        W37746   8.060   3.758  11.657  0.3296 -0.3361 -0.0918
22130W        W37747  18.658  12.120  10.456 -0.1656  0.1530 -0.0359
22131W        W37748  11.801   1.731   0.519 -0.0896 -0.0061  0.2315
22132W        W37749  13.700  15.565   2.114 -0.0925  0.1822 -0.0130
22133W        W37750  18.230  10.534  14.357 -0.2519  0.2520 -0.0013
22134W        W37751  13.463   5.781   4.477  0.4412  0.3705  0.0642
22135W        W37752   1.073   3.696   1.933  0.0724 -0.1395  0.2194
22136W        W37753  14.053  17.329   2.195  0.0800  0.0553 -0.0469
22137W        W37754  13.020  16.466   2.762 -0.2082  0.1648 -0.0229
22138W        W37755  13.388   2.283  14.609 -0.0977 -0.0808  0.2541
22139W        W37756   3.559   7.762   2.629  0.0481  0.0461  0.1454
22140W        W37757  15.641  18.676  14.462  0.1868 -0.2764  0.0202
22141W        W37758  14.033   5.705  14.320 -0.0840 -0.0695  0.0805
22142W        W37759   8.624  16.771  14.465 -0.0572 -0.1383  0.0981
22143W        W37760   5.637   4.708  12.081  0.0816 -0.1329  0.1122
22144W        W37761   8.586  13.265  14.626  0.1464 -0.0354 -0.1401
22145W        W37762  16.340   3.111   4.180 -0.0317 -0.1610  0.1174
22146W        W37763   0.532   3.523   5.038 -0.0691 -0.0976  0.2926
22147W        W37764  14.725  10.607   4.644 -0.0847 -0.2912  0.2107
22148W        W37765  14.358  17.845  11.479  0.0112  0.0571  0.1306
22149W        W37766   4.607   9.797  14.253  0.0662 -0.1510 -0.0275
22150W        W37767   7.949  12.672  14.677 -0.3309  0.2188 -0.0785
22151W        W37768  11.972   3.823   4.453  0.0837 -0.0845  0.3359
22152W        W37769   2.394  12.757   5.109 -0.1805  0.1994 -0.0250
22153W        W37770  13.271  18.937   4.447 -0.0323 -0.0454  0.1501
22154W        W37771   6.188  17.435   3.264 -0.0853  0.0094 -0.2417
22155W        W37772   8.476   0.704  13.594  0.2380  0.0560  0.0696
22156W        W37773  17.371  14.612   0.859  0.0968 -0.2168  0.0389
22157W        W37774  16.635   6.960   1.421 -0.0504  0.1730 -0.0035
22158W        W37775   7.131  13.547  10.982 -0.1632  0.1482  0.2806
22159W        W37776   0.322   2.613  11.965  0.1048  0.2659  0.3974
22160W        W37777   2.943   3.009  13.285 -0.1966  0.2521 -0.2228
22161W        W37778  10.249   1.422  12.015 -0.2326  0.2956 -0.0870
22162W        W37779  18.824   7.439  13.223  0.0666 -0.1270 -0.0603
22163W        W37780  18.803   3.328   0.047  0.0413  0.0084 -0.2059
22164W        W37781  12.752  12.041  11.035 -0.0301  0.2973  0.0049
22165W        W37782  16.340   2.491   3.049 -0.2437  0.1773 -0.1303
22166W        W37783  17.784  18.141  14.485  0.1000 -0.0173  0.1269
22167W        W37784   2.602   0.794   1.927 -0.1931 -0.0718  0.0369
22168W        W37785  12.808   5.853  14.708  0.1948 -0.0905  0.2351
22169W        W37786   8.542   8.897   3.380 -0.2675 -0.0583 -0.2878
22170W        W37787  14.911   6.503  11.103  0.0038  0.1534 -0.0117
22171W        W37788  17.877   8.507   4.062  0.1486  0.0097 -0.2762
22172W        W37789  12.079   4.465   3.001 -0.0156 -0.4174 -0.1962
22173W        W37790  15.484  13.513   3.683 -0.0423  0.2342 -0.1078
22174W        W37791   7.896   7.790  14.985  0.3794  0.4095  0.1486
22175W        W37792   7.921   7.726   1.150 -0.1501 -0.0821 -0.0771
22176W        W37793   7.213  18.130  10.638 -0.0833  0.0566  0.3713
22177W        W37794  18.246  13.118  12.979 -0.0931 -0.0151  0.1756
22178W        W37795  18.904  10.922   2.729  0.1785 -0.0723  0.1919
22179W        W37796  17.646  10.181   4.959  0.1013 -0.2918 -0.1042
22180W        W37797   2.471   6.497   1.514 -0.1665  0.4284  0.1505
22181W        W37798   0.691  16.342  12.923  0.2746 -0.0509 -0.2165
22182W        W37799  10.198  18.752   1.380 -0.3116  0.4591  0.2075
22183W        W37800  16.669  12.436   0.068 -0.0028  0.1161 -0.0375
22184W        W37801   5.999   4.066   3.691 -0.1469  0.0332  0.1020
22185W        W37802   7.890  18.326  10.896  0.1053 -0.0723 -0.1229
22186W        W37803   5.741   8.665  12.785  0.0404 -0.2221 -0.1247
22187W        W37804   1.393  18.799  13.744  0.3646 -0.0119  0.2719
22188W        W37805  18.994   8.210  13.691 -0.1956 -0.2394  0.3337
22189W        W37806  17.598   0.210   4.179 -0.0357 -0.0540  0.1195
22190W        W37807  17.655  18.002  11.886  0.1198 -0.3869  0.3156
22191W        W37808   6.684  16.441   2.693 -0.0975 -0.2229  0.0717
22192W        W37809  13.982   4.170   4.046  0.0287  0.2815 -0.1789
22193W        W37810  15.683   1.268   9.828  0.1641 -0.1693  0.2049
22194W        W37811  16.962  16.664   0.638 -0.2590  0.0932  0.1137
22195W        W37812   1.670  12.407   3.118  0.0944  0.2308 -0.1010
22196W        W37813  11.112  10.354   3.581  0.0087 -0.2171 -0.1166
22197W        W37814  12.902   7.316  13.263 -0.5048 -0.0398 -0.1555
22198W        W37815   9.313   9.525  11.335  0.0791 -0.2987  0.3184
22199W        W37816   4.814   6.744  13.143 -0.1044  0.1625 -0.0950
22200W        W37817   5.514  12.072   1.019  0.0852 -0.0577 -0.0057
22201W        W37818  17.399  18.867   4.016 -0.0015 -0.2943  0.0253
22202W        W37819  12.435   8.832   9.046 -0.1736  0.0724 -0.0137
22203W        W37820   8.812  11.047  10.062 -0.1424 -0.1100  0.2224
22204W        W37821   8.467   5.968  12.055  0.2550 -0.2975 -0.2269
22205W        W37822   5.719   0.562   1.544 -0.1922  0.3096  0.1276
22206W        W37823   4.297   9.644  14.635 -0.0990  0.1414 -0.0203
22207W        W37824  14.441   1.187   2.212 -0.0052 -0.2230  0.1063
22208W        W37825  16.955  14.916   3.574 -0.0673 -0.1504  0.0043
22209W        W37826  13.286  15.523   2.912  0.0191  0.2495 -0.0300
22210W        W37827  11.343   0.559  12.133 -0.1156 -0.0972 -0.1070
22211W        W37828  16.875  11.555  11.925  0.0944  0.0778  0.3699
22212W        W37829   6.381  10.499  13.492 -0.4006  0.0858  0.0103
22213W        W37830  12.845  18.894   3.293  0.1133  0.1095  0.0992
22214W        W37831   0.446   7.986   4.493  0.0951 -0.0109  0.1370
22215W        W37832   1.384   0.506   2.302 -0.0907  0.2934  0.1431
22216W        W37833   2.989   7.306  14.258 -0.0542 -0.1750 -0.3969
22217W        W37834  13.934  18.116  11.898 -0.1441 -0.0407  0.2144
22218W        W37835   8.216   4.692  14.873  0.0775  0.3038  0.2478
22219W        W37836   4.686  13.170   0.520 -0.5325 -0.0075 -0.0638
22220W        W37837  18.522   7.875  14.477  0.0039 -0.0832  0.1969
22221W        W37838  14.576   8.296   4.334 -0.1078  0.0527  0.1419
22222W        W37839  10.401   8.529  11.786 -0.0903 -0.0249 -0.1527
22223W        W37840  14.659  15.179   3.172 -0.1493  0.0786 -0.2572
22224W        W37841   6.230  10.065   5.159 -0.1207  0.2135 -0.0929
22225W        W37842   2.110   2.542   2.916 -0.0236  0.0857 -0.1872
22226W        W37843   4.956  12.934   2.856  0.2225 -0.0779 -0.0989
22227W        W37844   1.415  15.408  11.474 -0.1220 -0.0155  0.0605
22228W        W37845   0.358   4.772  12.179  0.0771 -0.0767  0.0719
22229W        W37846  15.580  10.276  15.010  0.0671 -0.3043 -0.4715
22230W        W37847   1.182   6.563  13.048 -0.1858  0.1681 -0.2818
22231W        W37848   6.817   5.671   4.959  0.1489 -0.1932  0.0284
22232W        W37849  15.698   6.768   2.575  0.1392  0.0601  0.0288
22233W        W37850   0.232  10.056  11.745 -0.1774  0.0013 -0.0063
22234W        W37851  12.098   3.256  10.953  0.1397 -0.0384 -0.0463
22235W        W37852  16.707  10.842   4.754  0.1817  0.2038  0.4163
22236W        W37853  12.920  16.477   4.588  0.0160  0.2755  0.1897
22237W        W37854   5.075  17.674   0.382 -0.0182 -0.1046  0.0760
22238W        W37855  14.657   4.402  11.107  0.1569  0.1749  0.1106
22239W        W37856  11.993  14.343   2.045 -0.0217  0.2068  0.2377
22240W        W37857   4.357   4.184   2.730  0.0315 -0.3148  0.1445
22241W        W37858   5.365  11.836  13.946  0.3550  0.0479 -0.0276
22242W        W37859   2.561  16.763  10.160 -0.3158 -0.0838 -0.4511
22243W        W37860   7.674  14.397   0.869  0.1332 -0.0521 -0.0556
22244W        W37861  11.236   5.413  12.667 -0.1126  0.1714  0.0190
22245W        W37862   9.716  18.268   4.103 -0.1371 -0.0462  0.1430
22246W        W37863   1.889  13.966  10.681  0.1689  0.1676  0.0617
22247W        W37864  17.700   3.136   4.914  0.1014  0.2734  0.3328
22248W        W37865  14.545  16.655  10.655 -0.4196 -0.1832  0.1870
22249W        W37866  16.758  12.418   3.887  0.2211  0.2942  0.0499
22250W        W37867  10.735  13.073   0.735 -0.3266 -0.0188  0.1125
22251W        W37868   2.710   0.077  11.807  0.3484 -0.0589  0.1899
22252W        W37869  12.824  14.140  13.260 -0.0443 -0.2655 -0.3282
22253W        W37870   2.996   0.073   1.675  0.1173  0.0093 -0.1717
22254W        W37871  10.748   1.334   2.188  0.1442  0.0134 -0.0393
22255W        W37872  15.796  15.163   3.097 -0.1516  0.1198 -0.0493
22256W        W37873  18.318  10.152  14.813 -0.1444  0.3019 -0.1896
22257W        W37874   6.785  13.861  11.186  0.1737  0.4191  0.0054
22258W        W37875   8.211   6.855   1.495  0.0971  0.1580  0.0596
22259W        W37876  13.971  13.601  10.253  0.0850 -0.2066  0.2148
22260W        W37877  18.267  10.733  11.529 -0.2083  0.0493  0.1930
22261W        W37878  17.971  18.269  10.168  0.1783  0.1999 -0.1406
22262W        W37879   0.426  18.674   4.424  0.4143 -0.1112  0.0928
22263W        W37880  13.415   6.088  12.839 -0.0207 -0.0161 -0.1632
22264W        W37881  17.612   6.240   0.102 -0.0879 -0.2209 -0.1263
22265W        W37882  16.832  12.828  11.951  0.0573  0.1393  0.0515
22266W        W37883  16.547  11.092   0.309 -0.0888 -0.0349 -0.1423
22267W        W37884   2.754   5.101   4.893  0.0308 -0.0602  0.3006
22268W        W37885  18.752   3.998   3.210 -0.3909  0.2733 -0.0850
22269W        W37886  15.393  10.500   0.137  0.0957 -0.4036  0.2861
22270W        W37887   5.993   1.728   3.321  0.2233  0.2227  0.1774
22271W        W37888   5.025  15.488   1.020  0.2463 -0.1011  0.2254
22272W        W37889  14.268   0.262  12.432  0.4058  0.0892  0.2259
22273W        W37890   9.316   8.864  13.864  0.0448  0.0597  0.0861
22274W        W37891  17.553   3.018   2.093 -0.0063 -0.0800  0.2253
22275W        W37892  12.406  12.321   4.237 -0.3201 -0.0624 -0.0523
22276W        W37893   9.584   2.329   2.431  0.0196 -0.3245 -0.1029
22277W        W37894  11.065   0.522   2.612  0.1035  0.3038 -0.0380
22278W        W37895  12.877   8.148   4.042 -0.0540  0.1420 -0.1068
22279W        W37896  14.829   3.747  11.485 -0.1763  0.2044 -0.1054
22280W        W37897  13.485   0.048  13.855  0.0502 -0.2519 -0.0699
22281W        W37898   1.861   4.205   4.456 -0.0631 -0.2554 -0.0405
22282W        W37899   9.529  11.425  15.133 -0.1226  0.1629 -0.0728
22283W        W37900   3.851  12.709   4.645  0.0753 -0.0645 -0.0355
22284W        W37901   5.539   9.508  11.933  0.0256 -0.2964  0.2267
22285W        W37902  18.108   3.663   2.642 -0.0285 -0.0226  0.0218
22286W        W37903  17.905   5.757  14.769 -0.2614 -0.0965 -0.0555
22287W        W37904   7.811  18.504   2.061  0.1800 -0.4232 -0.2091
22288W        W37905   8.530   2.299  11.315 -0.1759  0.1509  0.1555
22289W        W37906   7.942   7.276  14.451 -0.1179 -0.0205  0.1211
22290W        W37907  14.575  15.706  14.472  0.3347  0.1653 -0.1282
22291W        W37908   1.289   3.862  11.043 -0.0796 -0.4572  0.0966
22292W        W37909  18.280   7.906  13.119 -0.4022  0.0049 -0.4219
22293W        W37910  17.125   5.999   3.325 -0.1755 -0.0323 -0.0838
22294W        W37911   4.411   1.221   1.521 -0.1329 -0.2117 -0.0782
22295W        W37912  15.995   5.494  14.310  0.1545  0.2612  0.0823
22296W        W37913  12.917   7.960   4.732  0.2366  0.3504 -0.2377
22297W        W37914   1.682  14.259  10.275 -0.1100  0.0339  0.0348
22298W        W37915   5.843   2.113   0.100 -0.0720 -0.3148 -0.1353
22299W        W37916  14.549   2.816  11.680  0.5390  0.4429 -0.0936
22300W        W37917   0.132   4.146  13.985 -0.0338 -0.2906  0.0356
22301W        W37918   4.716   2.288   2.061 -0.1182 -0.0488  0.0556
22302W        W37919   3.254   3.260   1.387 -0.2517  0.1469 -0.1049
22303W        W37920  14.099   3.612   5.665 -0.2442 -0.4587  0.1398
22304W        W37921   1.903   4.554   1.507 -0.0136 -0.2127  0.0085
22305W        W37922   0.504   2.616   2.738 -0.2029 -0.3726  0.1896
22306W        W37923  18.718   8.501   2.309 -0.1241 -0.1905 -0.2631
22307W        W37924   7.412   3.780   3.867  0.2594  0.2034  0.2847
22308W        W37925  15.264   9.056   0.398  0.0420 -0.0673  0.2781
22309W        W37926   2.462  14.226  10.717 -0.0926 -0.1042  0.0288
22310W        W37927  14.138   2.192  12.324 -0.3416 -0.2192 -0.1961
22311W        W37928  15.418  16.960  12.184  0.2923  0.0090 -0.2836
22312W        W37929  13.136   8.454   3.243  0.0198  0.1042  0.2430
22313W        W37930   1.058   5.634   3.570  0.5434 -0.1370 -0.0836
22314W        W37931  17.474  16.852   0.831 -0.4482 -0.1135 -0.0332
22315W        W37932   1.032   7.741   5.469  0.2565 -0.2914 -0.2119
22316W        W37933   5.205  13.045  14.891 -0.0170 -0.3230  0.0996
22317W        W37934   0.372   4.221   1.594 -0.0937 -0.1716  0.0643
22318W        W37935  14.547  14.006  13.732  0.1895  0.1869 -0.1614
22319W        W37936   2.351  17.071   2.301  0.1471 -0.0790  0.2122
22320W        W37937   2.148   8.460   1.820  0.4977 -0.3508 -0.3379
22321W        W37938   7.781  15.575   0.026 -0.2561  0.1089 -0.0156
22322W        W37939   9.999  14.063  13.355  0.0840  0.0177 -0.0442
22323W        W37940  10.706   8.140  14.436 -0.1240 -0.0943  0.0862
22324W        W37941   9.041  15.702  13.001 -0.1968  0.2499  0.1742
22325W        W37942  12.492  16.467  13.013  0.0601  0.1515 -0.0795
22326W        W37943  16.645   0.122   1.855 -0.0295 -0.2514  0.0364
22327W        W37944  12.716  17.596   4.944 -0.1433 -0.1144  0.2050
22328W        W37945  10.540   5.146  10.316 -0.1491 -0.0820  0.1239
22329W        W37946  10.912  12.872   3.171 -0.1762  0.0311  0.0504
22330W        W37947  15.108   6.441  11.552  0.2401 -0.1735  0.2935
22331W        W37948   8.517  16.963   3.039  0.1478  0.0121  0.0505
22332W        W37949   7.256   3.363  12.843  0.0301  0.3335  0.3579
22333W        W37950   2.602  13.983  12.526 -0.1115 -0.1957  0.0377
22334W        W37951   2.843   1.829  12.190  0.0923  0.3008  0.3180
22335W        W37952   7.872  12.810  12.403  0.0883 -0.1845  0.1414
22336W        W37953   5.804   8.569   0.224  0.1482  0.2142 -0.1096
22337W        W37954   8.397   9.059   4.429  0.0740  0.0684 -0.0691
22338W        W37955  15.576   4.305   3.087  0.0452  0.1954  0.1324
22339W        W37956  13.157   4.407  12.383  0.0110 -0.2034 -0.2041
22340W        W37957  13.610  15.839   0.851 -0.0880 -0.0060 -0.1150
22341W        W37958   7.147   6.334  14.090 -0.1078 -0.1392 -0.1234
22342W        W37959  12.239   9.851  13.250  0.0430 -0.1763 -0.0036
22343W        W37960  15.761   5.623   0.516  0.0562  0.1085 -0.2367
22344W        W37961  15.185   2.798   2.663  0.0649 -0.0489 -0.3642
22345W        W37962  17.862  11.225  14.535  0.3679 -0.1103  0.3696
22346W        W37963   4.600  17.839   4.765  0.2115 -0.4037 -0.1058
22347W        W37964  11.056   1.617  11.283 -0.1141 -0.2482  0.2457
22348W        W37965   5.256   7.144  10.549 -0.1130 -0.1378 -0.3203
22349W        W37966  14.892   7.357  11.770 -0.0184  0.6946  0.4787
22350W        W37967  12.571  18.488   1.942  0.1012 -0.0855  0.1880
22351W        W37968   4.779   0.048  14.252  0.2131  0.2734  0.1272
22352W        W37969  18.518   4.318   0.820  0.3222  0.1574 -0.1311
22353W        W37970   3.482  12.473   4.329 -0.0072 -0.1283 -0.0241
22354W        W37971   7.032  14.379   3.867 -0.0734 -0.3818 -0.1181
22355W        W37972   5.791   9.915   5.135 -0.0230  0.0033  0.0269
22356W        W37973   6.752  13.973  14.878  0.1138  0.2489 -0.0747
22357W        W37974   9.856   4.387   4.622  0.2095 -0.2957  0.2127
22358W        W37975  12.916  18.789   3.876  0.1045 -0.1366 -0.1554
22359W        W37976  10.909   8.930  14.088 -0.2461  0.0129  0.2860
22360W        W37977   0.750   2.255  13.729  0.0385  0.0192 -0.1157
22361W        W37978   2.117   9.161   0.042  0.1173 -0.2016 -0.1833
22362W        W37979  11.792   1.763   1.135  0.1171  0.3488  0.0497
22363W        W37980  18.809  16.070  10.327 -0.0691  0.2243  0.0310
22364W        W37981  14.859  18.469   4.004  0.1046  0.3834 -0.2364
22365W        W37982   0.817   5.838  13.478  0.2991  0.2330  0.3049
22366W        W37983  12.753   8.835   0.341  0.0378 -0.1969  0.0250
22367W        W37984  12.762   9.673   0.743 -0.0312  0.2719  0.2318
22368W        W37985   0.921   5.931  11.823 -0.1630 -0.1162  0.3185
22369W        W37986  13.649  18.776   5.117 -0.0986 -0.4657  0.1547
22370W        W37987  10.553   7.957   0.406  0.1982 -0.1679  0.0102
22371W        W37988  10.119   5.905   4.142 -0.1620 -0.0949 -0.1562
22372W        W37989  16.328   3.504   2.765 -0.2209 -0.3145 -0.1512
22373W        W37990  16.505   6.376   4.193 -0.2243 -0.0884  0.3443
22374W        W37991  13.270  15.224   1.935 -0.1244 -0.1635  0.1251
22375W        W37992   7.576   5.558  11.120 -0.1049 -0.2051  0.0203
22376W        W37993   7.833  17.393  11.030  0.0855 -0.2894  0.2296
22377W        W37994   4.373   2.102   0.657 -0.1185  0.0734 -0.0377
22378W        W37995  18.601   0.776   2.193  0.2223  0.1219 -0.1054
22379W        W37996  10.098  15.573   1.073 -0.2034 -0.0753  0.1362
22380W        W37997   6.710  14.463  11.660 -0.1397  0.0525 -0.0258
22381W        W37998  13.494   0.155   4.826  0.0015  0.2650  0.5176
22382W        W37999   1.261  15.054   3.545 -0.2494 -0.0205  0.1424
22383W        W38000   0.252   5.541  12.159 -0.2833  0.3002 -0.0118
22384W        W38001   9.903   3.984   3.644 -0.0666 -0.0071 -0.1038
22385W        W38002  13.160   3.528   0.739  0.0331 -0.0623 -0.0193
22386W        W38003  10.665  10.350  14.209 -0.0170 -0.1681 -0.2949
22387W        W38004   1.505   0.453   1.374 -0.0822 -0.2629 -0.1836
22388W        W38005  13.688  12.636   2.128  0.0576 -0.1492  0.1413
22389W        W38006  16.961  12.400   0.470 -0.0183 -0.1107 -0.1951
22390W        W38007  10.560   6.718  14.459 -0.1483 -0.2169 -0.3406
22391W        W38008  13.870  12.724  12.779 -0.1515 -0.1548  0.2848
22392W        W38009  16.779   0.972   2.636  0.1428  0.0791 -0.0324
22393W        W38010   2.159  17.304  14.472  0.2452  0.0194 -0.0375
22394W        W38011   9.984   3.397  14.473  0.4536  0.0097 -0.1376
22395W        W38012   3.692   4.022  10.568  0.3147 -0.2670 -0.2408
22396W        W38013   6.429  10.384  14.337  0.2114 -0.0760 -0.2017
22397W        W38014  13.622  11.017  13.944 -0.0043  0.1821 -0.1140
22398W        W38015   8.130  15.503   1.888 -0.1303  0.0837  0.0131
22399W        W38016   3.910   3.017  11.614 -0.6606  0.1828  0.0449
22400W        W38017  12.337   7.090  12.094 -0.2951 -0.3375 -0.0326
22401W        W38018  15.349   0.829   3.829 -0.0836  0.3128 -0.0184
22402W        W38019   6.421  11.964   5.096 -0.2107 -0.1757 -0.1086
22403W        W38020  17.895   6.115   0.923  0.0952  0.1063 -0.0191
22404W        W38021   7.519  10.142   3.087 -0.1058 -0.3703  0.1372
22405W        W38022   4.559  12.857   0.154 -0.0603 -0.2119 -0.0528
22406W        W38023  11.252  12.938  11.440 -0.4483  0.0638  0.3274
22407W        W38024   9.649   6.921   5.362 -0.0605  0.0722  0.1318
22408W        W38025  13.621   9.083   1.872 -0.1654  0.1345 -0.5524
22409W        W38026  18.377  14.559   0.860 -0.0177  0.1805 -0.1399
22410W        W38027  10.542   5.667   2.466 -0.1523 -0.0898  0.0833
22411W        W38028   8.859   2.788  14.913  0.1205  0.0824 -0.2343
22412W        W38029   8.814   0.813  15.220 -0.2647 -0.1675 -0.2752
22413W        W38030   9.751  18.120  14.910 -0.1240 -0.2061  0.0682
22414W        W38031  15.761   7.523  13.905 -0.2412 -0.1505  0.1391
22415W        W38032  17.834  16.765  12.242 -0.0785 -0.1908 -0.0676
22416W        W38033   2.524   0.695   4.779 -0.0077  0.1262  0.1093
22417W        W38034  11.589   6.114   1.186  0.2723  0.0517 -0.0686
22418W        W38035   4.237  14.023   5.278  0.1839 -0.0313  0.4120
22419W        W38036   0.708  16.279   3.069  0.1020 -0.0148 -0.0677
22420W        W38037   7.395   8.696  13.296  0.3506 -0.0251 -0.2329
22421W        W38038   7.807  15.522   2.350 -0.0263  0.1306  0.0043
22422W        W38039   2.835   6.897  13.568 -0.0912  0.0447  0.1574
22423W        W38040  12.083  15.397  14.829 -0.2926 -0.1119  0.0148
22424W        W38041   3.344   1.912  11.453 -0.1899  0.1968  0.0778
22425W        W38042   2.368  10.573   4.157 -0.1701  0.2552 -0.1239
22426W        W38043   2.154  17.890  13.083  0.0066  0.3659  0.1170
22427W        W38044   1.558  17.317   1.144  0.2145 -0.1586 -0.1748
22428W        W38045   9.117   4.379   1.034  0.2920 -0.1523 -0.2364
22429W        W38046   5.246  16.228  12.435 -0.0572 -0.0953  0.1370
22430W        W38047  16.528  13.551   0.793 -0.0024 -0.0152  0.2960
22431W        W38048  11.223   9.872  14.251  0.1413  0.3678 -0.0413
22432W        W38049   5.502   9.310  13.335 -0.0254  0.3637  0.1676
22433W        W38050   1.685   9.559   1.763 -0.2076 -0.1495  0.1189
22434W        W38051  15.857   1.090   3.017  0.1248  0.0883 -0.2239
22435W        W38052   1.281  16.209   3.199 -0.2187  0.1294 -0.1930
22436W        W38053   2.780   3.017  14.540 -0.1504 -0.4222 -0.0608
22437W        W38054  14.461   0.198  13.887  0.1257  0.2336  0.0333
22438W        W38055   8.310  13.508   2.059 -0.0600  0.0989 -0.2704
22439W        W38056  11.126  15.019   0.361 -0.2083 -0.1975  0.0798
22440W        W38057  18.335   4.215   5.553  0.0628 -0.0750  0.0094
22441W        W38058  15.470  15.610  10.295  0.1865  0.0947  0.3117
22442W        W38059   2.066   6.108   6.112  0.3556  0.2959 -0.1129
22443W        W38060   1.174   9.433   4.721  0.1353 -0.0289 -0.1998
22444W        W38061  16.769  12.205  13.582 -0.1879  0.1305  0.1724
22445W        W38062   2.308   5.482  10.067 -0.4786  0.2744  0.0882
22446W        W38063   2.960  19.053  15.190  0.0805 -0.2740 -0.2869
22447W        W38064   6.407   7.378   1.784 -0.1709 -0.0919  0.0159
22448W        W38065  12.562  16.871   2.130 -0.1818  0.1574  0.0267
22449W        W38066  11.693   1.738   4.543  0.0237  0.0595 -0.2247
22450W        W38067  15.496   6.549   3.086  0.2169  0.0337 -0.3109
22451W        W38068  14.718  18.507   4.645 -0.1594  0.0793 -0.1773
22452W        W38069  11.801   6.814  10.940  0.1463 -0.3801  0.0020
22453W        W38070  15.226  11.046   2.263  0.3532  0.1628 -0.1082
22454W        W38071  14.634   0.809   2.495  0.2351 -0.0353  0.0035
22455W        W38072   6.639  13.236   2.799 -0.1303  0.3021  0.3107
22456W        W38073  15.445   7.305   2.280 -0.1097 -0.4774 -0.4286
22457W        W38074  14.143   0.115  11.382 -0.0639  0.2840 -0.0108
22458W        W38075   5.826  13.737   3.111  0.1207  0.2415  0.2100
22459W        W38076   9.256  15.777   2.106  0.0596  0.2653  0.2234
22460W        W38077   5.966  14.244   0.963  0.2259  0.1756  0.2484
22461W        W38078   5.900   6.478   1.432  0.0787  0.3282  0.1743
22462W        W38079   0.904   9.070  14.993  0.0542 -0.0913  0.4481
22463W        W38080  10.913  17.946  12.315  0.3700  0.0668 -0.5586
22464W        W38081  15.199  10.920   3.773  0.0420 -0.1958 -0.0830
22465W        W38082   7.069  14.350  12.882 -0.5911 -0.4187 -0.1677
22466W        W38083  13.457   8.949  14.506 -0.0166 -0.1751 -0.0077
22467W        W38084   2.789   2.078   4.444  0.0676 -0.0067  0.1420
22468W        W38085  11.418   2.940  11.439  0.1347 -0.0618 -0.1542
22469W        W38086  10.076   3.436   1.620  0.0354 -0.1285 -0.2009
22470W        W38087   3.970   7.446   3.990  0.2260 -0.1378 -0.0788
22471W        W38088  15.700  16.899   2.845 -0.0010 -0.3275  0.0237
22472W        W38089  12.432  17.506  14.199 -0.0652  0.1348 -0.1009
22473W        W38090  14.229   2.209   3.033  0.2982 -0.2076 -0.0377
22474W        W38091   5.989   6.690   4.816  0.0353 -0.1818 -0.0153
22475W        W38092  17.758   1.231   1.093  0.0545  0.0680 -0.0953
22476W        W38093   9.383  12.919  13.232 -0.0708  0.1520  0.4968
22477W        W38094  15.476   1.401  13.987  0.0100  0.2484  0.0233
22478W        W38095  14.810  15.267  13.658 -0.1475  0.0933 -0.1594
22479W        W38096   5.077  11.964  12.764 -0.2254  0.1040  0.3214
22480W        W38097   3.476   6.050   2.384  0.0312  0.2284 -0.0795
22481W        W38098   3.307  12.364   2.465 -0.0479 -0.0167  0.6062
22482W        W38099  11.624  16.979  13.778 -0.0517  0.4496 -0.1318
22483W        W38100   5.898   6.042  13.360 -0.1667  0.2087 -0.1369
22484W        W38101   6.958   0.561   0.478  0.0423  0.0771  0.2272
22485W        W38102   1.958   8.930  11.567  0.2282  0.1756 -0.2661
22486W        W38103  13.892  13.216   3.274 -0.1644  0.0262  0.0755
22487W        W38104   9.692   4.945   3.973  0.2260 -0.0968  0.1265
22488W        W38105  17.366  10.782   2.932 -0.1608  0.1835  0.5186
22489W        W38106   9.406  18.136   1.074  0.0785  0.1486 -0.1396
22490W        W38107   4.765  11.557   1.388 -0.0958  0.1842  0.1225
22491W        W38108   9.009  15.891   3.756  0.1833 -0.0197  0.3057
22492W        W38109  15.446   1.102  14.371  0.3019 -0.1080  0.0174
22493W        W38110   4.703  12.890  11.262 -0.0698 -0.2258  0.0777
22494W        W38111  15.166  16.010  15.196 -0.2072  0.2234 -0.1942
22495W        W38112   4.726  10.374   3.917  0.0679  0.1732 -0.0534
22496W        W38113  16.305   5.659  11.474 -0.0051 -0.1633  0.0738
22497W        W38114   4.983  10.021  11.168 -0.1149 -0.0499 -0.2935
22498W        W38115   5.154  18.521  11.608 -0.2244 -0.2558  0.0356
22499W        W38116   0.654  10.866   5.081  0.1363  0.7197  0.3918
22500W        W38117  15.473   4.761  13.322 -0.0244  0.2618  0.1451
22501W        W38118  10.014   3.177  14.021  0.1101  0.1665  0.0949
22502W        W38119   5.387  17.015   2.481  0.0373  0.0541  0.2940
22503W        W38120   6.550  16.295  13.062 -0.0167  0.4666  0.0980
22504W        W38121   4.275  13.697  14.900 -0.2736 -0.3426  0.1225
22505W        W38122   2.657   4.398   0.175  0.1322  0.2397  0.1497
22506W        W38123  12.649  18.003  14.181 -0.0010  0.1257 -0.0755
22507W        W38124  14.012   1.749   4.462 -0.1438 -0.1729  0.1735
22508W        W38125   9.925   0.978   2.422 -0.2450 -0.2313 -0.1061
22509W        W38126   7.056  11.673  14.998 -0.1027  0.1529  0.3395
22510W        W38127   0.101   9.760  14.807  0.0049  0.2851  0.3019
22511W        W38128  14.923  14.645   0.866  0.2969  0.0774 -0.1584
22512W        W38129  14.034  13.245   4.148 -0.1612  0.0455  0.2753
22513W        W38130  13.110   6.356  14.125 -0.0019 -0.1171 -0.1948
22514W        W38131  16.352   5.452  12.471  0.0712  0.3833 -0.0294
22515W        W38132  17.177   6.806   3.886 -0.0501  0.0772 -0.1627
22516W        W38133   9.963  17.472   4.073  0.1756  0.0514 -0.3737
22517W        W38134  13.068   6.597  12.175 -0.1102  0.1029  0.1900
22518W        W38135   0.630   2.696   1.497 -0.1253  0.0863  0.0394
22519W        W38136  15.682   1.067   1.357  0.1029  0.0310  0.2364
22520W        W38137  18.744  11.395   0.347  0.2384 -0.0316  0.2447
22521W        W38138   5.942   4.038  10.456 -0.0149 -0.0014 -0.2593
22522W        W38139  14.067  17.795   3.022  0.2432  0.0329 -0.0241
22523W        W38140   0.695   5.898   2.851 -0.0184 -0.1321  0.1856
22524W        W38141  18.867  17.745  14.670  0.1193  0.3399  0.1770
22525W        W38142   6.400  15.726  13.269  0.2167 -0.0108 -0.0954
22526W        W38143   1.708   8.628   3.089 -0.0926 -0.0245  0.0341
22527W        W38144  15.656   4.340  13.533 -0.1424 -0.0868  0.1550
22528W        W38145  11.564   0.037   4.808 -0.1733  0.0754 -0.3004
22529W        W38146   0.552  18.639  11.067  0.0583 -0.1232 -0.2096
22530W        W38147   6.689   8.652  12.337 -0.2769  0.3904 -0.3569
22531W        W38148  17.863   7.733   2.165  0.0298 -0.0210  0.2556
22532W        W38149   0.030   2.560  12.351 -0.1157 -0.1306  0.0232
22533W        W38150  10.983   7.142  14.748  0.1304 -0.2335 -0.0534
22534W        W38151   2.254  18.606  12.424 -0.0988  0.0617 -0.2633
22535W        W38152  11.323   7.448  12.933 -0.2702  0.2361  0.2091
22536W        W38153  12.326  12.316   3.384 -0.0774  0.0926  0.1404
22537W        W38154  12.365  18.989   1.064  0.4207  0.2266 -0.1585
22538W        W38155   3.900   9.528   1.543  0.2831  0.0112  0.0828
22539W        W38156  15.563  10.809  10.510 -0.0068  0.1876  0.0763
22540W        W38157   1.161   2.663  12.954  0.2303 -0.3854 -0.0943
22541W        W38158   0.294   2.929  13.164 -0.0338  0.2287  0.2108
22542W        W38159  10.553  10.910   4.684 -0.1305 -0.5045 -0.2111
22543W        W38160   6.827  14.884  14.833  0.0526 -0.2322 -0.0430
22544W        W38161   8.676   5.772   1.557  0.1058  0.1714 -0.1463
22545W        W38162  14.657  11.982   4.418  0.2529  0.0625  0.3180
22546W        W38163   1.273   6.951   3.782 -0.0787  0.0027 -0.0432
22547W        W38164  18.870  10.378   1.912 -0.4753 -0.5240  0.0443
22548W        W38165  14.127   7.322   1.559 -0.0300 -0.0499 -0.0073
22549W        W38166   7.951   3.921  14.579 -0.0769 -0.1583 -0.0712
22550W        W38167  17.145  12.994  14.395 -0.0369 -0.0161 -0.1072
22551W        W38168   3.389   0.294   3.441  0.1606  0.2476  0.0411
22552W        W38169   1.202   1.405   3.187  0.2210 -0.0433 -0.0425
22553W        W38170   2.844  13.908   0.057  0.2629 -0.0663 -0.1815
22554W        W38171   3.360  16.187  12.672  0.3258 -0.0205  0.1322
22555W        W38172  15.188  14.402  13.346 -0.0120  0.1246 -0.2521
22556W        W38173   3.112   8.798  14.229  0.3530 -0.3346  0.1581
22557W        W38174   6.094  18.043   4.529  0.1094  0.2113 -0.1893
22558W        W38175   4.241   8.468  12.414  0.2208 -0.2352 -0.0194
22559W        W38176   0.601   7.775  11.920 -0.0949  0.1237 -0.0481
22560W        W38177  12.296  13.902  12.284  0.1804 -0.0190 -0.2867
22561W        W38178   5.374  18.446   2.054  0.0281  0.0431 -0.4420
22562W        W38179   1.475   5.535  13.995 -0.0750  0.1135 -0.0234
22563W        W38180  10.749  12.190   5.007 -0.0088 -0.0308 -0.0185
22564W        W38181   3.200   5.368   4.704  0.1788  0.1344 -0.4353
22565W        W38182  14.685   3.438   1.236 -0.1456  0.3883  0.2468
22566W        W38183  11.397  15.784   4.377  0.0348 -0.0184 -0.0019
22567W        W38184   1.307  10.969  12.615 -0.3604  0.1406 -0.2298
22568W        W38185   6.636   4.826  14.066 -0.0302  0.2900  0.2908
22569W        W38186  11.033   6.406   5.231 -0.3289  0.1336 -0.3079
22570W        W38187   1.912  15.513   1.970 -0.1181  0.0788 -0.2278
22571W        W38188   0.593  18.873  11.503 -0.0221  0.0195  0.0462
22572W        W38189   3.351   0.450  12.445  0.0014  0.2686 -0.0655
22573W        W38190  16.702   0.627  13.414  0.2926 -0.3023 -0.2418
22574W        W38191  13.602  17.126   4.903  0.1504  0.3434  0.1258
22575W        W38192  12.008  11.851  10.956  0.0519 -0.0087 -0.4049
22576W        W38193  12.807   9.556   4.022 -0.0121  0.2716 -0.1205
22577W        W38194   2.887   0.151   1.107 -0.0062  0.0157  0.1435
22578W        W38195  12.448   4.222   1.240  0.0674  0.2949  0.1725
22579W        W38196   9.869   9.749  11.640 -0.0695 -0.1757 -0.2987
22580W        W38197  13.956  18.635  13.381 -0.0369 -0.0632 -0.0522
22581W        W38198   6.293  13.513   3.901 -0.0298  0.0510  0.0677
22582W        W38199  12.139  16.537  14.017  0.5014  0.0351  0.0124
22583W        W38200   5.583  12.496   5.277 -0.2793 -0.0175 -0.2184
22584W        W38201  12.127  10.836   1.140 -0.1403 -0.0207  0.3720
22585W        W38202   2.338   4.829  12.688  0.1363 -0.0609  0.3212
22586W        W38203   7.640   0.556   4.851  0.0048  0.0909  0.1450
22587W        W38204  13.548   4.363  10.746 -0.1393  0.0761  0.3374
22588W        W38205   9.409  10.784   0.202  0.1437  0.0725  0.2635
22589W        W38206   6.381  14.690  14.628  0.0231 -0.1149  0.0354
22590W        W38207  18.936  17.043   8.722  0.1909  0.3066  0.0345
22591W        W38208   7.493   9.343  15.076  0.0207 -0.2453  0.4144
22592W        W38209   9.576  11.964   2.962  0.1782  0.0994  0.2894
22593W        W38210   0.259  15.089   2.261 -0.1444 -0.1645  0.1804
22594W        W38211  12.754   3.804   1.067  0.1044  0.0697  0.2026
22595W        W38212   3.718   2.927   6.124 -0.1122 -0.1666  0.1451
22596W        W38213   1.583  15.597   3.858  0.1132  0.0391  0.1042
22597W        W38214  17.562  15.785  14.304  0.1939  0.1375  0.0963
22598W        W38215  10.940   3.681  11.338 -0.0730 -0.0069  0.2637
22599W        W38216  11.384  11.554   3.002  0.1247  0.0087  0.0260
22600W        W38217  14.587   6.156   0.299 -0.0161  0.0082  0.0700
22601W        W38218  16.527  16.686   2.060  0.1454  0.2663 -0.2989
22602W        W38219   5.114  15.825  12.162  0.0131  0.0820 -0.2129
22603W        W38220  12.702  17.280   1.818  0.0892  0.0885  0.1663
22604W        W38221   6.775  14.235   2.181  0.1178  0.2394  0.1170
22605W        W38222  11.713  14.024   4.790  0.3442  0.1134 -0.1305
22606W        W38223  14.683   7.798  10.423  0.3349  0.2259  0.0338
22607W        W38224  16.273  14.383   1.548  0.0715 -0.0951 -0.0358
22608W        W38225  17.197   1.724  10.741  0.0178  0.1981 -0.4469
22609W        W38226   9.276   7.711  13.058  0.2000 -0.1592 -0.1031
22610W        W38227  16.672  13.564  10.111 -0.0726 -0.0446  0.2381
22611W        W38228  15.714   4.570  10.828 -0.1036  0.3610  0.0989
22612W        W38229  10.996   5.865   4.472  0.0881  0.0388  0.0919
22613W        W38230   3.674   9.753  14.871  0.0791 -0.0211 -0.1775
22614W        W38231   2.632   7.769  14.696  0.3062 -0.0470 -0.1803
22615W        W38232   4.666  11.975  10.749  0.1772 -0.1468  0.0566
22616W        W38233  13.312  16.663   3.143  0.2171  0.2515  0.3534
22617W        W38234   3.120   5.644   4.297  0.0132  0.1474 -0.0028
22618W        W38235  16.673  11.951  12.205  0.0455  0.0154  0.1380
22619W        W38236   7.979   9.741   1.861 -0.2488 -0.1831  0.1361
22620W        W38237  17.352   5.353  13.655  0.3595 -0.0679 -0.1520
22621W        W38238   8.026   9.294   0.513 -0.1686 -0.0987  0.0940
22622W        W38239   5.323   8.748  11.714 -0.0963  0.1773  0.1275
22623W        W38240  13.731   2.466   4.393  0.2546  0.0330  0.2687
22624W        W38241   9.457   3.481  12.311  0.0253  0.0612  0.3850
22625W        W38242   0.404  17.905   3.700  0.0742  0.4127  0.0079
22626W        W38243   5.751   9.133  14.668 -0.1376 -0.1466  0.1268
22627W        W38244   8.406  11.438  11.062  0.1550  0.0969 -0.3344
22628W        W38245   8.689   2.607  13.371  0.0742 -0.1481  0.1770
22629W        W38246  15.704  18.631  11.721 -0.0062  0.3275  0.2568
22630W        W38247   8.272  18.923  12.722  0.1089 -0.2976 -0.3328
22631W        W38248   3.473   7.980   0.705  0.1477 -0.4807  0.0297
22632W        W38249  12.300  11.912   0.848  0.0618 -0.3590 -0.0341
22633W        W38250  16.445   0.513   1.484 -0.1295  0.2109 -0.1662
22634W        W38251  12.464   1.493   0.896 -0.2439 -0.1540 -0.1200
22635W        W38252  11.785  13.993   1.766  0.0722 -0.2844  0.1263
22636W        W38253   9.639   5.458  13.359 -0.0619 -0.1147  0.0200
22637W        W38254   8.495   6.419  12.323  0.2060 -0.0041 -0.1705
22638W        W38255  12.995  18.382   3.573  0.0687  0.0335  0.0426
22639W        W38256  13.469   4.410   4.790 -0.1865 -0.0358  0.0566
22640W        W38257  17.696   4.896  11.359  0.1440  0.3706 -0.2441
22641W        W38258  18.697  10.499   4.421 -0.0163 -0.1019 -0.0715
22642W        W38259  13.415  17.117  14.315 -0.0440  0.1419 -0.0027
22643W        W38260   9.547   8.427   5.371  0.0447 -0.1914  0.0126
22644W        W38261  14.993   8.521   3.989  0.3671 -0.0024 -0.2645
22645W        W38262  15.934  11.341  13.101  0.0020 -0.1838 -0.0545
22646W        W38263   2.105   2.157   3.775  0.0192 -0.3039  0.0119
22647W        W38264   0.013   0.082  14.436 -0.2551  0.3331 -0.2710
22648W        W38265  18.265   8.958   3.539  0.0792  0.2841  0.1288
22649W        W38266  13.296  18.569  13.996 -0.2658 -0.1138 -0.0120
22650W        W38267  16.810   8.641  13.301 -0.2232 -0.0130 -0.2783
22651W        W38268  14.497  10.549  11.327  0.0780  0.1574  0.0005
22652W        W38269  18.766  10.889  11.298  0.2560  0.0139  0.1481
22653W        W38270   7.000  10.059  10.764 -0.2464 -0.2225  0.3199
22654W        W38271  11.985  18.810   5.633  0.1919 -0.1290 -0.3376
22655W        W38272   9.211  16.558  11.738  0.2385 -0.0402 -0.1417
22656W        W38273   2.514   7.411  14.402  0.0508 -0.1146  0.0602
22657W        W38274   9.679   4.422  10.250 -0.1369  0.1527  0.0848
22658W        W38275  12.709  17.419   9.813  0.1711  0.0846 -0.3897
22659W        W38276   7.409  13.762   0.312 -0.1047 -0.0102  0.0663
22660W        W38277   6.827  18.464  13.381 -0.2672 -0.1030 -0.3209
22661W        W38278   5.756   3.069   1.230 -0.1126  0.0767 -0.0265
22662W        W38279  16.566   0.712   5.856  0.0685  0.4013  0.2884
22663W        W38280   8.978   4.938  10.938 -0.0451 -0.0846  0.2705
22664W        W38281  18.133   0.178  11.211  0.0132 -0.6478 -0.2878
22665W        W38282   6.881   5.419   3.439 -0.2211 -0.0097 -0.2485
22666W        W38283   8.884  16.594   1.098  0.0582  0.2132 -0.4909
22667W        W38284   1.362  15.004  12.042  0.0632  0.2967 -0.0397
22668W        W38285   7.330   4.067  13.235  0.2440 -0.1384 -0.0299
22669W        W38286  11.265   1.615  13.661 -0.3033 -0.2228  0.2592
22670W        W38287  10.401   1.445   2.652 -0.5340  0.0145  0.2364
22671W        W38288   2.338   5.702   2.653 -0.0172 -0.0842 -0.3910
22672W        W38289  17.649   8.962  12.036  0.1034  0.1495  0.2274
22673W        W38290  17.445   6.021   1.699 -0.3719  0.3989 -0.4530
22674W        W38291   0.383  16.045   3.380 -0.1312  0.1329 -0.0753
22675W        W38292  16.094  13.711   4.377  0.0649  0.1503 -0.0562
22676W        W38293   2.761   4.911  11.473 -0.1417  0.0245  0.1903
22677W        W38294   1.946   2.694   0.900  0.0102  0.0725 -0.1548
22678W        W38295  10.833   5.929  14.546 -0.0663  0.0020 -0.1434
22679W        W38296  16.382   0.721   3.977 -0.0092 -0.0795  0.0811
22680W        W38297   5.556  13.550  14.840 -0.0482 -0.1659  0.0467
22681W        W38298  14.990   8.611   5.056 -0.1604 -0.1533  0.4157
22682W        W38299   9.669  14.942  12.122 -0.1045 -0.3616  0.1976
22683W        W38300   5.501   7.335  13.339 -0.4123 -0.0019 -0.1985
22684W        W38301   6.883   5.033   2.229 -0.1118  0.0369  0.0244
22685W        W38302  15.533   2.162   3.665  0.0617 -0.1513  0.1169
22686W        W38303  10.523   6.412   1.425 -0.1416 -0.0801  0.0054
22687W        W38304   1.519   6.758  11.146 -0.0173 -0.1899 -0.3657
22688W        W38305   3.551   3.952   0.082  0.3188  0.3195  0.0376
22689W        W38306  17.188   3.356   0.164  0.1797 -0.1486 -0.0585
22690W        W38307   1.290   7.640   1.140 -0.0278 -0.1414 -0.1642
22691W        W38308   7.858   1.701   2.042  0.1034  0.3999  0.2138
22692W        W38309   8.282  15.219  12.445  0.0072  0.1312  0.1351
22693W        W38310  10.472  16.450   3.444 -0.0724  0.0554  0.2838
22694W        W38311   6.941  12.225  13.755 -0.1434  0.0269  0.0712
22695W        W38312   0.758   8.595  10.952  0.0120 -0.0163  0.1780
22696W        W38313   3.175  15.090  14.499  0.1963  0.2143  0.2454
22697W        W38314   7.791  17.259  12.949  0.1602 -0.1323 -0.0373
22698W        W38315  14.508  15.784  13.460 -0.0860  0.0103  0.1254
22699W        W38316  11.810   1.681   4.000  0.0850 -0.1092  0.2087
22700W        W38317  18.874  14.730  12.400  0.0773 -0.1171 -0.0020
22701W        W38318  17.383   6.858   3.372  0.1395  0.0814 -0.2072
22702W        W38319   0.890  14.778   1.084 -0.3607  0.0866 -0.0049
22703W        W38320   4.616   0.490  13.532 -0.4312 -0.1297 -0.1633
22704W        W38321  15.146   4.803   2.006  0.0610 -0.0977 -0.1414
22705W        W38322   7.692   2.787   2.510 -0.1266 -0.2601 -0.0638
22706W        W38323  11.518  13.991   6.056 -0.1431  0.2900 -0.0772
22707W        W38324   3.048  10.591  15.149 -0.0742 -0.2051 -0.1589
22708W        W38325   2.277   4.907   1.501  0.0865 -0.2282  0.0278
22709W        W38326  17.489   8.552   0.288 -0.1279  0.1049 -0.0172
22710W        W38327  18.313  13.424   2.072 -0.4947 -0.4363  0.3533
22711W        W38328   8.771   9.409   3.632 -0.4104 -0.2748  0.2066
22712W        W38329   8.440   0.001  14.229  0.0059  0.1363 -0.3640
22713W        W38330   8.056  13.065  13.653 -0.1878 -0.0738  0.4101
22714W        W38331   1.681   8.955   0.981  0.1148  0.0117 -0.1300
22715W        W38332   7.718   0.974   4.494  0.0132  0.1170 -0.2630
22716W        W38333   7.278  12.075  11.913  0.0660  0.2203  0.3190
22717W        W38334   3.836  12.876   2.215 -0.0615  0.0838 -0.0171
22718W        W38335  17.942  17.545   2.586 -0.0106 -0.0757 -0.0346
22719W        W38336   0.705   3.645  15.214 -0.0903 -0.2768  0.2762
22720W        W38337  10.934  18.240   9.470  0.0897 -0.2993 -0.0029
22721W        W38338  14.066  10.981   1.715  0.0022 -0.2529 -0.1212
22722W        W38339   5.620  15.819  10.567  0.1813  0.1000  0.1646
22723W        W38340   8.270   7.451  10.827 -0.0183  0.2473 -0.1150
22724W        W38341  18.808  18.385   3.250  0.0671 -0.0822 -0.2153
22725W        W38342  14.844  15.980   2.598 -0.2442 -0.6251  0.1644
22726W        W38343  17.161   5.955   4.623 -0.0800  0.1431 -0.0715
22727W        W38344   9.263   3.044  13.937  0.1696  0.3826 -0.1547
22728W        W38345   7.584   2.063  12.185  0.0146  0.1128  0.2398
22729W        W38346  16.334   8.523   3.515 -0.3625  0.0687 -0.0198
22730W        W38347  18.822   4.483   5.399 -0.1524  0.0477 -0.0485
22731W        W38348   7.157   7.113   4.060 -0.1742  0.0126  0.2209
22732W        W38349  16.445   5.026   2.791  0.1924 -0.0233  0.0153
22733W        W38350  12.264  18.059   1.785  0.1927  0.1297  0.2073
22734W        W38351   9.832   3.033   0.507  0.1728 -0.0974 -0.0122
22735W        W38352  11.148  15.350   6.087  0.0660  0.1584  0.2687
22736W        W38353   4.496   3.521  10.131  0.2764  0.1726 -0.0617
22737W        W38354   3.480   4.343  11.541  0.1014  0.0957 -0.3135
22738W        W38355   2.541   9.756   0.684 -0.1878  0.2431 -0.0577
22739W        W38356  18.667  18.874   3.805  0.0512  0.1723 -0.0324
22740W        W38357  13.095   1.695   4.696  0.1289 -0.0849  0.1995
22741W        W38358   4.373   9.395   0.700  0.2933  0.3208 -0.0526
22742W        W38359   3.900   3.059  14.673  0.2471  0.1326 -0.2668
22743W        W38360  15.332   4.245   0.265 -0.0300  0.1968  0.0398
22744W        W38361  12.408   6.685   1.100 -0.0441  0.0916 -0.0938
22745W        W38362   6.723  11.392  10.419 -0.0774 -0.0587 -0.1081
22746W        W38363   5.508  10.911   1.237 -0.3397 -0.1217 -0.1253
22747W        W38364  18.836  11.777  11.162  0.1852  0.1313  0.1331
22748W        W38365  10.180   1.482   3.171  0.1390  0.0518 -0.3021
22749W        W38366   5.041  13.930  13.854 -0.1075 -0.2859  0.3448
22750W        W38367   1.773   9.190   0.490  0.0274  0.1901 -0.0452
22751W        W38368   2.344  18.285   1.902 -0.3237  0.0355 -0.1880
22752W        W38369  17.146   8.949   0.115  0.0098  0.0092  0.0071
22753W        W38370  15.115   2.454   3.566  0.2492  0.1652 -0.0876
22754W        W38371   8.227   8.192  10.996  0.1938 -0.0555 -0.2966
22755W        W38372  11.934  18.748  14.962 -0.4898  0.1476  0.1545
22756W        W38373   4.710   6.178   4.967  0.0942 -0.2344  0.2121
22757W        W38374   3.250   8.756  13.352 -0.3779  0.0456  0.0361
22758W        W38375   3.429   9.656   3.535  0.1054  0.3508 -0.2689
22759W        W38376   0.337  13.882  13.069  0.0262 -0.0469  0.0578
22760W        W38377  10.537  14.971  12.601  0.1141 -0.3566  0.0567
22761W        W38378  18.357   7.329   1.528  0.2523  0.2055  0.2952
22762W        W38379   7.380   8.978  10.877 -0.0208 -0.0324 -0.1186
22763W        W38380  18.168  14.787   1.965 -0.0612 -0.1602  0.0616
22764W        W38381   0.403  18.839   0.678  0.2278  0.0395  0.1636
22765W        W38382   4.141   2.785   1.239 -0.3493  0.2400  0.0801
22766W        W38383  16.539   8.000   4.521 -0.0064 -0.1252 -0.4203
22767W        W38384   1.017   9.639   5.146 -0.0986  0.2478  0.0476
22768W        W38385   9.152  14.962   4.448  0.1178  0.2130 -0.1264
22769W        W38386  18.834   5.354   3.574 -0.1467 -0.2099 -0.0906
22770W        W38387  10.513  11.002   5.732 -0.3903 -0.0465 -0.1466
22771W        W38388  16.617   3.650   2.299  0.2211  0.1638 -0.0653
22772W        W38389  16.260   0.881   5.019 -0.0838  0.1684  0.2492
22773W        W38390   7.012   0.558   0.964 -0.0752  0.3412 -0.2917
22774W        W38391   9.260   5.090   0.392  0.0500  0.0124  0.1415
22775W        W38392   7.402   4.263   2.461  0.2931  0.3042  0.1804
22776W        W38393   3.078   9.432  12.583 -0.0628  0.1345  0.0720
22777W        W38394  16.608   3.171   2.516  0.1932 -0.0504 -0.0002
22778W        W38395   7.864  10.571  10.662 -0.1956  0.1083  0.1397
22779W        W38396  12.028   5.430  11.572  0.0146  0.1154 -0.1970
22780W        W38397   4.029  10.735   3.377  0.0688  0.0390  0.3871
22781W        W38398  11.689  12.304   4.736  0.0348 -0.1477 -0.0648
22782W        W38399  16.398  15.477   2.961 -0.3484 -0.2747 -0.1028
22783W        W38400   3.103   0.873  13.154 -0.0197 -0.0151 -0.0311
22784W        W38401  12.888   5.377   2.174  0.0419 -0.3440 -0.1008
22785W        W38402   7.038   6.168  10.199 -0.1229 -0.0051  0.1645
22786W        W38403   3.257  13.057  13.854  0.2179 -0.2199  0.1717
22787W        W38404   3.472  12.314  14.626 -0.2308 -0.0456 -0.3212
22788W        W38405  16.153  18.689   0.819 -0.0430 -0.0875  0.1348
22789W        W38406   7.493  10.857  11.003 -0.2019  0.0075 -0.1379
22790W        W38407   3.695   8.899  15.178  0.0325 -0.1545 -0.0646
22791W        W38408   1.591  10.677   4.013  0.0614  0.2189  0.1626
22792W        W38409   4.676  17.775   3.746 -0.3879  0.0893 -0.2724
22793W        W38410   3.087   7.845  12.533  0.2938 -0.2100 -0.1163
22794W        W38411  16.772  11.516  12.483  0.1564  0.2101 -0.0994
22795W        W38412  15.204   4.594   2.674 -0.1170 -0.2961  0.1069
22796W        W38413  12.296   0.510  11.900 -0.2972  0.2034 -0.0699
22797W        W38414   2.157   0.801   3.019 -0.0527  0.2522 -0.0329
22798W        W38415   7.570   0.746  10.677  0.0767  0.1752  0.0367
22799W        W38416   0.537  16.775  15.186 -0.0412  0.2462 -0.3546
22800W        W38417  13.056  13.787   0.447 -0.0471 -0.0209 -0.1888
22801W        W38418  13.999   4.808   2.157 -0.1286  0.2398 -0.1069
22802W        W38419   9.497  15.230  13.621  0.0992 -0.0476  0.2599
22803W        W38420   5.513   8.375   2.327 -0.2186 -0.3444  0.0258
22804W        W38421  15.017  14.077   3.833 -0.3659  0.1007  0.0441
22805W        W38422   0.252   5.370  14.016 -0.3630  0.0490  0.0801
22806W        W38423   2.705   1.214  12.765  0.2309 -0.1685  0.0320
22807W        W38424   3.029  18.909   2.163 -0.2654 -0.0529 -0.1340
22808W        W38425   9.556  18.767  11.391  0.0697 -0.2377 -0.1317
22809W        W38426   0.667   1.898  10.881 -0.0474 -0.1331 -0.0094
22810W        W38427   4.270   8.961  11.480  0.1994 -0.0618  0.1390
22811W        W38428   5.843   2.303  12.183  0.1823 -0.0719  0.0090
22812W        W38429  11.609   7.481  11.575 -0.1014  0.0822  0.1666
22813W        W38430  15.643  14.104   0.951  0.0900 -0.1443  0.3654
22814W        W38431   7.369  14.514   2.382 -0.1264 -0.1126  0.1655
22815W        W38432   9.826  14.373  13.677 -0.1303  0.1937  0.2115
22816W        W38433   8.727   4.465  13.825 -0.2489 -0.4082 -0.3028
22817W        W38434  12.059  15.685  15.267 -0.1708  0.5023  0.1162
22818W        W38435  13.793   9.823   1.443  0.1048  0.2224  0.1168
22819W        W38436  11.387   2.987  12.687 -0.2986  0.2475  0.2109
22820W        W38437   5.422  16.061  13.005 -0.1888 -0.1484 -0.1106
22821W        W38438   8.702  17.131   5.974 -0.0176  0.2471  0.1668
22822W        W38439  12.417  18.400  12.791  0.2779 -0.0221  0.1345
22823W        W38440   5.798   3.157  12.639 -0.4033 -0.0334  0.0710
22824W        W38441   7.948  14.633   5.471 -0.0313 -0.0250  0.2628
22825W        W38442  17.611  15.196   4.950  0.0484  0.1851  0.0756
22826W        W38443   5.001  13.693   2.539  0.0108 -0.3085  0.0986
22827W        W38444  10.728   6.559   4.490 -0.0148 -0.0974  0.3081
22828W        W38445   1.922   3.466  14.554  0.2577  0.2115 -0.0341
22829W        W38446  16.225  16.684   3.107 -0.0158 -0.0173  0.1649
22830W        W38447   7.877  17.859   4.230  0.2473 -0.1219  0.1064
22831W        W38448  10.025  13.299   1.435 -0.0270  0.3361 -0.2774
22832W        W38449  16.311  14.560  14.529 -0.2992 -0.1747  0.0167
22833W        W38450  11.994   5.039  14.953  0.1611  0.0645 -0.2573
22834W        W38451  15.627  11.106   5.585  0.2732  0.0095  0.2453
22835W        W38452  14.924   5.704   5.024 -0.0081  0.1955  0.1401
22836W        W38453  13.607   4.491   1.552  0.1413 -0.2325 -0.1856
22837W        W38454  18.602  18.966   4.328  0.0242  0.2483 -0.0192
22838W        W38455  14.105   6.533   4.423 -0.0601  0.0679  0.3777
22839W        W38456  10.007   0.164   0.692 -0.2556  0.0600 -0.0073
22840W        W38457   0.627   9.861  15.097 -0.1590  0.0657  0.1549
22841W        W38458  18.252  10.745  12.821  0.2425 -0.0395  0.0337
22842W        W38459   5.729   1.213   0.389  0.0880 -0.3332 -0.1107
22843W        W38460   9.822  18.761   2.702  0.0482  0.1810 -0.0433
22844W        W38461  16.256  10.979  14.558  0.0748 -0.2383  0.3868
22845W        W38462   8.290   6.959  12.571 -0.1164  0.2131 -0.1549
22846W        W38463   0.615  17.893   1.065  0.1271 -0.1817 -0.1586
22847W        W38464   0.896  18.892   3.521 -0.2173  0.0021  0.2272
22848W        W38465  11.893   6.863   9.880 -0.0221  0.2313 -0.1266
22849W        W38466   1.056  10.099   4.683 -0.2146  0.0676  0.0010
22850W        W38467   9.621  10.341   4.531  0.0536 -0.0541  0.0762
22851W        W38468  18.816   2.432   3.255 -0.1455  0.1652 -0.2672
22852W        W38469  11.864  17.720   1.386  0.2038  0.0214  0.0314
22853W        W38470   5.449   4.765   0.104 -0.1302 -0.1459 -0.0185
22854W        W38471   3.612   0.269  14.387 -0.1898  0.1461 -0.2840
22855W        W38472  11.083  14.562   0.555  0.0394  0.2978  0.1650
22856W        W38473  17.045   0.503  14.967  0.2158 -0.0104  0.2232
22857W        W38474   5.603  11.904  14.904  0.0494  0.1883  0.2661
22858W        W38475   0.904   0.200  14.525  0.1824 -0.1415  0.2241
22859W        W38476  18.262  11.045   3.608  0.4275  0.1262  0.0701
22860W        W38477  18.331  18.377   2.400 -0.0546 -0.0149  0.1722
22861W        W38478  12.379   0.996  10.652 -0.1786  0.2262  0.0344
22862W        W38479   1.434  10.804   4.439 -0.4248  0.0843 -0.5364
22863W        W38480   1.568   3.849  11.540  0.1530  0.1402  0.1176
22864W        W38481   6.914  11.832  13.381 -0.1725 -0.0946 -0.1143
22865W        W38482  16.935   6.233  14.205 -0.0507 -0.1913 -0.0375
22866W        W38483   5.896  12.310  12.056  0.0735 -0.0083  0.3357
22867W        W38484   6.496   6.753   3.367  0.0482  0.0950 -0.0104
22868W        W38485  18.356   8.195  12.224  0.1566 -0.0636  0.2797
22869W        W38486  12.794  10.637  12.157 -0.0989  0.0849 -0.2656
22870W        W38487   3.249  15.473   0.544  0.1641 -0.1422 -0.0186
22871W        W38488   9.975  14.833  13.751 -0.0775  0.1004 -0.0654
22872W        W38489  10.031   4.796   2.606  0.1230 -0.0024 -0.2051
22873W        W38490   1.966  18.004   0.691 -0.1294  0.1611 -0.0491
22874W        W38491  17.715   3.435  13.873 -0.1981  0.3158 -0.3493
22875W        W38492   2.284   3.926   0.139 -0.0726  0.0097 -0.1156
22876W        W38493   3.125   4.436  13.108  0.0509  0.3040  0.1560
22877W        W38494   2.932   4.656   1.107  0.2072 -0.1445  0.1146
22878W        W38495   2.024  12.660   4.006 -0.0490 -0.0818  0.3064
22879W        W38496  18.334  16.194   2.797  0.0553 -0.2986 -0.2122
22880W        W38497  16.007   9.753   4.014  0.1296 -0.1289 -0.0544
22881W        W38498  13.205   0.119  12.659 -0.2500 -0.0521 -0.0563
22882W        W38499   2.266   0.041  12.589  0.1427 -0.1827 -0.1372
22883W        W38500  16.610   4.587  13.556 -0.0311  0.0161  0.1919
22884W        W38501  14.207  16.030  14.314 -0.0629  0.0554  0.1622
22885W        W38502   9.755   3.538   2.978 -0.1302 -0.1863 -0.4914
22886W        W38503   0.240   1.345   2.183 -0.2590  0.0520  0.0695
22887W        W38504  12.361   9.452   1.426  0.1110  0.0792 -0.3893
22888W        W38505  17.393  16.259   3.029  0.0575  0.1436  0.0544
22889W        W38506   8.928   5.296   0.673 -0.0222  0.1606 -0.0828
22890W        W38507  16.140  13.477   2.422 -0.2867  0.1695 -0.0908
22891W        W38508  16.805   9.301   1.944  0.2941  0.0662  0.2399
22892W        W38509   0.915  13.823  15.184 -0.0174 -0.0870  0.0877
22893W        W38510   8.470  15.546  11.488  0.0910  0.0099 -0.0727
22894W        W38511   4.746  17.192  12.060  0.1200  0.0957  0.3343
22895W        W38512  17.935   3.606  12.409 -0.2449  0.0007 -0.0189
22896W        W38513  17.890   1.176  14.319 -0.1483 -0.0611  0.1048
22897W        W38514  17.905  18.494  12.149  0.2772 -0.3935  0.0030
22898W        W38515  13.065   9.273   0.238 -0.2262  0.0812 -0.2927
22899W        W38516  16.486   6.391   2.968 -0.0125  0.1383  0.5242
22900W        W38517   1.645   9.519  11.957 -0.1513  0.2650 -0.1890
22901W        W38518  10.863  14.756  13.876  0.1167 -0.0575 -0.0230
22902W        W38519   6.849   1.539   2.582  0.3133  0.1954 -0.0960
22903W        W38520   3.039   0.561   5.120 -0.1912  0.2309  0.2935
22904W        W38521   6.934  15.064   3.637 -0.0106 -0.1157  0.0898
22905W        W38522  13.559   7.378  13.984 -0.2610 -0.1226  0.3888
22906W        W38523   0.076   1.625  14.336 -0.0178 -0.0677  0.1426
22907W        W38524  17.954  11.622  12.145 -0.0567  0.0592  0.1918
22908W        W38525   4.462   7.168   2.086 -0.0354 -0.3154  0.0808
22909W        W38526  13.038   5.302  12.104  0.0487 -0.3673 -0.0809
22910W        W38527  16.696   8.134   3.497  0.0647  0.1393  0.0593
22911W        W38528   6.742  14.929   4.582 -0.4155 -0.0042  0.1041
22912W        W38529  15.132   6.094   4.276 -0.0998 -0.1137  0.1389
22913W        W38530  13.817  16.896   4.442 -0.5264 -0.2166 -0.0919
22914W        W38531   5.805  14.198   1.482 -0.0707 -0.1889  0.1365
22915W        W38532   8.101  17.545   3.286  0.1555 -0.0493  0.0086
22916W        W38533  10.939   3.152  11.432 -0.1879 -0.0037 -0.4218
22917W        W38534  16.614   0.554   4.849  0.2556  0.3393  0.1673
22918W        W38535   5.999  17.700   4.197 -0.1016  0.0857  0.2321
22919W        W38536  16.155  16.591  11.317  0.1432 -0.3573  0.1268
22920W        W38537  12.121  18.999  10.685 -0.2930  0.0068  0.1283
22921W        W38538   1.040  18.041  13.688  0.2129  0.0830  0.2309
22922W        W38539  16.391  14.849   1.743  0.2714  0.0538  0.0780
22923W        W38540   7.364  14.042  13.596  0.0847 -0.2706 -0.1294
22924W        W38541   9.280  14.971  14.828  0.0422 -0.0544 -0.0631
22925W        W38542   1.374   0.428  12.437  0.4357  0.0757  0.2778
22926W        W38543  12.297  15.549  14.324  0.0733 -0.2281 -0.2772
22927W        W38544   7.729   1.082  14.826  0.1505  0.1489 -0.0423
22928W        W38545  11.021  17.580   2.682  0.0566  0.2922  0.3995
22929W        W38546   5.675  13.945  12.961 -0.3599 -0.1199 -0.2126
22930W        W38547   7.412  17.112  11.298 -0.0727  0.0118  0.1306
22931W        W38548   4.167  14.552   4.455  0.3020 -0.1807 -0.0800
22932W        W38549  17.033   9.794  15.127 -0.0383 -0.3020  0.0145
22933W        W38550   3.214  17.463   4.660 -0.0523 -0.1676  0.0008
22934W        W38551  10.407  17.029   5.399  0.3102  0.1375  0.4921
22935W        W38552   1.708   0.170   1.049  0.0969 -0.0809  0.0930
22936W        W38553   0.158   9.887   3.214 -0.1376 -0.1816 -0.0928
22937W        W38554  10.318   4.399   0.479 -0.0079  0.0899  0.2523
22938W        W38555   2.888   8.411   1.277 -0.0161  0.0946  0.0811
22939W        W38556  13.815  17.161  13.544 -0.0559  0.1552 -0.0819
22940W        W38557   5.159   5.810   2.270 -0.2265  0.0309  0.0199
22941W        W38558  15.327  11.110  11.473  0.0390 -0.0954  0.1734
22942W        W38559   8.807  18.926   0.025 -0.0588 -0.3825  0.1866
22943W        W38560   9.760  15.312  11.260  0.1879 -0.0239 -0.0750
22944W        W38561   7.394  17.548   3.951 -0.1019 -0.0250 -0.0970
22945W        W38562   1.140  17.496   4.055  0.2927 -0.2205  0.0061
22946W        W38563  18.311   8.476  11.431 -0.0514 -0.2053  0.0207
22947W        W38564  12.703   8.587  15.125 -0.1145  0.4348 -0.2032
22948W        W38565   0.784   5.603   0.740 -0.1486  0.0930 -0.0326
22949W        W38566   0.193  12.572   1.152  0.0288  0.1410 -0.2495
22950W        W38567   7.542   9.417   0.923  0.2161  0.0204 -0.1334
22951W        W38568  10.775   8.798  12.003 -0.0467 -0.3971  0.0992
22952W        W38569   7.216   4.313   1.922 -0.0512  0.1467 -0.2399
22953W        W38570  16.688  13.691  13.645  0.0164 -0.3437  0.0697
22954W        W38571  17.069   4.919   3.549  0.2605  0.0191  0.3219
22955W        W38572   0.957   9.368  10.454  0.1722  0.0627  0.0652
22956W        W38573   8.363  15.842   4.034  0.0663  0.1047 -0.3085
22957W        W38574   2.699   7.880  13.040 -0.2858  0.1725  0.1505
22958W        W38575  16.164  14.100  14.786  0.5207  0.1666 -0.1748
22959W        W38576   6.425   1.453   2.937 -0.2321  0.2565  0.1518
22960W        W38577   6.772  13.420  12.009  0.0670  0.1589 -0.1103
22961W        W38578  12.281   2.065  10.981 -0.1185  0.0625  0.1970
22962W        W38579   6.978   5.488   2.310 -0.1273 -0.3139 -0.3346
22963W        W38580   4.903  17.732   1.409  0.1273  0.2596 -0.2171
22964W        W38581   2.811   8.631  12.880  0.0640  0.1740  0.3174
22965W        W38582  10.259   4.158   4.338 -0.3941  0.0057  0.1069
22966W        W38583   9.802   7.998  14.575 -0.0240  0.2692  0.0920
22967W        W38584   7.004   2.216  13.214  0.3343  0.1528  0.1891
22968W        W38585  18.917   6.565   1.591  0.4690 -0.1703 -0.3775
22969W        W38586  10.838   5.544   1.674 -0.0434  0.4883  0.0285
22970W        W38587  15.346   4.866   5.180 -0.1809  0.0211 -0.2180
22971W        W38588   6.643   5.051   3.172 -0.2746 -0.0090 -0.1310
22972W        W38589  16.733  18.037  13.264 -0.0984  0.1751  0.1627
22973W        W38590   3.149  12.302   3.232  0.0666 -0.2145  0.1008
22974W        W38591  18.685  15.620   2.679  0.1964  0.2612 -0.0767
22975W        W38592  14.515  10.706  15.228 -0.0217 -0.1160  0.1122
22976W        W38593   4.919   1.188  14.899  0.1015  0.6814 -0.2509
22977W        W38594   9.538   6.963  13.734 -0.1713  0.1654 -0.1763
22978W        W38595  17.514   9.189  13.783  0.1071 -0.2647 -0.0600
22979W        W38596  11.080   8.447   2.119 -0.2253  0.1712  0.0235
22980W        W38597   1.799  14.604  10.832  0.2294  0.1336  0.2088
22981W        W38598   0.564  14.242  12.222 -0.4306  0.3620 -0.0838
22982W        W38599  10.232   4.489  10.986  0.4648  0.2901 -0.1720
22983W        W38600  12.279  14.347   2.563 -0.0818 -0.0005  0.0322
22984W        W38601   7.341  17.937   1.024  0.0917 -0.1938 -0.1748
22985W        W38602  10.911  14.733  15.264  0.1969 -0.0195  0.0192
22986W        W38603  17.378   1.281  14.341  0.0609 -0.0607 -0.0837
22987W        W38604   0.272  14.285   0.557 -0.0354  0.1781  0.1744
22988W        W38605  11.289   7.528  13.880  0.3461 -0.2025 -0.0752
22989W        W38606  17.010   6.640   1.322 -0.0216  0.0436  0.0403
22990W        W38607   1.561   6.765  12.132  0.1419 -0.2392 -0.1750
22991W        W38608  14.749  19.016   5.632  0.1552 -0.3219 -0.1177
22992W        W38609  15.436  18.769   4.777 -0.2042 -0.3097  0.2505
22993W        W38610   1.251   2.495   5.268  0.3006 -0.0381  0.0547
22994W        W38611   1.830   5.310   5.021 -0.1410 -0.2131  0.3645
22995W        W38612  13.963   7.179  11.906 -0.2004 -0.1207 -0.1388
22996W        W38613   7.685  14.831   5.920  0.1380 -0.0735  0.0636
22997W        W38614  15.019  18.383  10.975  0.5763  0.0191 -0.3294
22998W        W38615  10.519   8.815  11.375 -0.2360  0.1561 -0.4165
22999W        W38616  13.300  17.556  10.409 -0.0266  0.2722  0.0380
23000W        W38617   6.907  18.501  10.998  0.0747  0.0848  0.0331
23001W        W38618  15.797  14.183  13.465 -0.2160 -0.4214  0.0823
23002W        W38619   0.659   9.527   1.447  0.1001 -0.0634 -0.2398
23003W        W38620  18.263  10.602   5.149 -0.1032 -0.3990 -0.1056
23004W        W38621   9.918  16.784  12.966  0.0227  0.0259  0.0245
23005W        W38622   1.473  12.107  14.916  0.2035  0.2492  0.4279
23006W        W38623  11.430   5.540  10.793  0.0049  0.0102 -0.1961
23007W        W38624  16.940   7.131   3.517 -0.1426  0.1138 -0.0585
23008W        W38625   7.800  16.375  13.319 -0.0084 -0.1085 -0.2939
23009W        W38626  13.663   6.397  11.553 -0.1010 -0.2276 -0.2326
23010W        W38627  17.827  13.753  14.500  0.0910  0.0191  0.2136
23011W        W38628   0.005   6.726   0.684  0.2399  0.0109  0.0238
23012W        W38629   3.182   3.873   2.243 -0.1497  0.0570 -0.1369
23013W        W38630   7.819   0.158   1.073  0.1034  0.1061 -0.2944
23014W        W38631   2.299  11.966  11.094  0.0254 -0.1156 -0.0705
23015W        W38632   2.830   7.292  13.220 -0.0476 -0.0778  0.0039
23016W        W38633  12.555  14.898   9.724 -0.1553 -0.2693  0.5522
23017W        W38634  14.452   0.333   1.715 -0.4569 -0.1018 -0.1067
23018W        W38635  17.237   5.882  10.690  0.1766  0.3551 -0.1712
23019W        W38636  12.225  14.557   6.102  0.0066 -0.2717  0.2350
23020W        W38637   0.338   8.606   4.308  0.4781  0.1235 -0.2939
23021W        W38638   5.334   5.813   2.923  0.2589 -0.1350  0.0638
23022W        W38639   8.971  11.819   0.332 -0.2339  0.3939  0.2600
23023W        W38640  14.212  12.669  14.910  0.4606 -0.0158 -0.0107
23024W        W38641  17.397  17.994  11.461 -0.2146 -0.1426 -0.0777
23025W        W38642  11.057  15.930   0.869 -0.1264 -0.0498 -0.1148
23026W        W38643   6.624  10.663   1.937 -0.0458 -0.0132  0.1028
23027W        W38644  18.421   1.706   2.297  0.4529 -0.2803 -0.1664
23028W        W38645  18.450  13.339  13.420  0.1457  0.2489  0.1039
23029W        W38646  17.370  17.599  15.091 -0.0884 -0.3204  0.0969
23030W        W38647  17.819   4.517   0.109  0.1377 -0.1144  0.3997
23031W        W38648  18.722   0.821  12.705 -0.1229 -0.0025  0.0057
23032W        W38649  16.089   0.973  11.965 -0.5920 -0.2074 -0.2031
23033W        W38650   6.683   3.628   5.672  0.0914  0.2241 -0.0950
23034W        W38651   9.204   0.926   2.119 -0.0996 -0.1857 -0.0037
23035W        W38652   1.336   8.326  14.947 -0.1783 -0.1063  0.0460
23036W        W38653   7.121   7.263  15.041 -0.3787  0.0057 -0.1545
23037W        W38654   7.856  17.896   2.988 -0.3178 -0.1885  0.1675
23038W        W38655   6.378   7.547  13.870  0.0364  0.0875  0.1123
23039W        W38656   1.061   4.279   4.744 -0.0872 -0.1309 -0.3379
23040W        W38657   7.614  18.439  15.066  0.0896  0.0325 -0.0019
23041W        W38658   0.702   4.073   5.099 -0.1490  0.2241  0.0491
23042W        W38659  18.682   3.592  10.948 -0.0292  0.1356  0.2433
23043W        W38660   9.824   0.306   3.342  0.2470 -0.2524 -0.0834
23044W        W38661   4.317   0.084   4.504  0.2652  0.1374  0.1672
23045W        W38662   0.805   8.190   3.636  0.0425 -0.0459 -0.1519
23046W        W38663   2.200  15.211   0.961  0.2046 -0.0880  0.0644
23047W        W38664  12.384   1.647   1.868 -0.1101 -0.0383 -0.1151
23048W        W38665  14.735   0.959  14.563  0.1621 -0.1307 -0.0801
23049W        W38666  15.304   8.199   3.031 -0.0771  0.1024 -0.0265
23050W        W38667   3.543   4.864   4.120  0.0598 -0.0057  0.2186
23051W        W38668   2.108  16.361  11.424  0.1812 -0.1457 -0.0727
23052W        W38669  15.248   9.786   0.422  0.2465  0.2518 -0.1361
23053W        W38670  18.644  11.296   0.865  0.1113  0.0215  0.4494
23054W        W38671  14.640   3.929   2.036  0.0323 -0.2237 -0.3792
23055W        W38672   4.918  13.647   4.597  0.1292  0.1030  0.2302
23056W        W38673   5.831  12.071   3.385  0.0353  0.4306  0.2037
23057W        W38674  12.223  15.323   2.021  0.0965  0.6264 -0.1738
23058W        W38675  10.873  12.686  14.313  0.0053 -0.1705 -0.0012
23059W        W38676   2.847  11.872   1.386 -0.0129  0.3676 -0.1565
23060W        W38677  15.031   1.873  14.785  0.2078 -0.3847  0.4646
23061W        W38678  16.720  11.325  12.975  0.0140 -0.2941 -0.0156
23062W        W38679  15.636  11.560  14.478 -0.0219 -0.2869  0.2817
23063W        W38680  17.631  17.738  10.608 -0.3260  0.3002  0.1011
23064W        W38681   7.512   1.771  14.936  0.1422  0.0062  0.0832
23065W        W38682   5.136   8.133   3.159  0.1585  0.1365 -0.0901
23066W        W38683  17.925  12.497   1.602  0.1667  0.1815 -0.1310
23067W        W38684   8.000   9.090   5.166 -0.1875  0.3529  0.3295
23068W        W38685  13.102  18.441  13.518 -0.1277 -0.0977  0.0578
23069W        W38686  18.952   6.174   1.870 -0.2200 -0.0886 -0.1872
23070W        W38687   2.523  13.032  10.244  0.0378 -0.0645  0.0558
23071W        W38688  14.269   5.301   4.587  0.0325 -0.0213  0.1711
23072W        W38689  13.129   7.233   2.185 -0.0935  0.1897  0.2237
23073W        W38690   0.512   7.655   3.671 -0.1705  0.0124  0.0446
23074W        W38691   0.605   3.345  12.470 -0.3333 -0.3269 -0.0875
23075W        W38692  12.777   1.003  10.338 -0.2977  0.4519 -0.0356
23076W        W38693  10.506   4.144   5.577  0.5066  0.1113 -0.1825
23077W        W38694  18.751   1.835  10.797  0.2243  0.1117  0.0822
23078W        W38695   8.497   2.491  14.641  0.0134  0.0045 -0.1522
23079W        W38696   2.902   3.870  14.723  0.2041 -0.0799  0.2208
23080W        W38697   9.568   1.720   1.141  0.0187 -0.1182  0.2418
23081W        W38698   1.658   8.152   0.322 -0.1612  0.0381 -0.2126
23082W        W38699   5.564  10.816   2.423 -0.0623  0.0530 -0.1183
23083W        W38700  11.224  17.809   0.507 -0.1299 -0.0205  0.0568
23084W        W38701  13.090   8.680   2.260 -0.1701 -0.0757  0.0476
23085W        W38702  11.919   7.356  11.230 -0.1273  0.4140 -0.0949
23086W        W38703   3.080   2.472  13.901 -0.1384 -0.0632 -0.1700
23087W        W38704  19.078   8.026  11.050  0.0203  0.1222  0.3013
23088W        W38705   6.165   6.928   0.079  0.3992 -0.0492  0.0032
23089W        W38706   5.416   7.280  11.649 -0.1193  0.0145 -0.0989
23090W        W38707  13.062  14.107  15.154  0.1576 -0.0071 -0.2933
23091W        W38708  16.741   7.938  12.353 -0.2021 -0.0189 -0.3079
23092W        W38709  15.896   0.376   3.655  0.0387  0.0091 -0.0042
23093W        W38710  16.996   2.122  12.876  0.0674  0.1195  0.0898
23094W        W38711  14.377   3.672  10.195 -0.2093  0.2000  0.1145
23095W        W38712  10.966   8.021  13.294 -0.0106 -0.0877 -0.1709
23096W        W38713  18.773   0.104  11.429  0.1907  0.0284 -0.2370
23097W        W38714   7.424  18.000   4.155 -0.3825 -0.1759  0.3842
23098W        W38715  17.369   3.114   9.718  0.1832 -0.2280 -0.1373
23099W        W38716  15.330  12.293  13.434 -0.4169  0.1160  0.0340
23100W        W38717   0.400  13.941   3.738 -0.3691 -0.2659 -0.0990
23101W        W38718   3.267   6.945   6.188  0.3016 -0.2893 -0.0040
23102W        W38719  12.236  17.596   3.649 -0.0746 -0.0652 -0.0657
23103W        W38720  18.856  14.533  11.876  0.0337  0.0830 -0.1137
23104W        W38721   8.789  17.540  13.178  0.1684  0.1562  0.0131
23105W        W38722   6.074  13.501   5.368 -0.1068  0.1814 -0.1902
23106W        W38723  15.300  10.779  14.081 -0.1566  0.0301  0.1590
23107W        W38724  13.414   4.129  14.547 -0.0034 -0.1802 -0.1520
23108W        W38725  14.040  16.206   3.624  0.2207 -0.3217  0.0158
23109W        W38726   4.954  15.034  13.506 -0.0155  0.1179  0.1696
23110W        W38727  10.621   5.305   2.081  0.0139  0.2398 -0.0569
23111W        W38728   5.892  16.311   5.323  0.2169 -0.2827 -0.0542
23112W        W38729  18.374   3.863   4.855  0.2447 -0.1225  0.1190
23113W        W38730  10.578  10.277   3.505  0.0102 -0.0493  0.0901
23114W        W38731  11.715  13.241  14.162  0.0155  0.2785  0.2471
23115W        W38732   9.943  17.427  11.214 -0.1464  0.2695 -0.0523
23116W        W38733  14.335   4.749   2.553  0.2025  0.1106  0.1880
23117W        W38734  11.084  13.494   4.800 -0.0193 -0.1390 -0.0255
23118W        W38735   4.779   2.180  12.977  0.1838  0.3189  0.1307
23119W        W38736   6.535  18.120   5.763  0.0897 -0.1503  0.1986
23120W        W38737  11.710   4.187   3.248 -0.1672  0.0133  0.0236
23121W        W38738  15.351  14.417  13.880  0.1121 -0.0090  0.0240
23122W        W38739  17.703  16.677   3.742 -0.0540  0.0474 -0.0016
23123W        W38740  18.679   4.472   4.100 -0.2858  0.3200  0.1042
23124W        W38741   7.281   4.200   5.890 -0.2190  0.1137  0.1869
23125W        W38742   3.585  14.597   4.370 -0.3204 -0.0903 -0.1711
23126W        W38743   0.217  10.699   2.001 -0.1316  0.2686 -0.1600
23127W        W38744  10.341   1.279   0.812  0.0890 -0.0110  0.1702
23128W        W38745  13.238   2.549   0.834  0.0944 -0.2703 -0.0833
23129W        W38746  11.543   1.637  11.020  0.0313  0.0962  0.1962
23130W        W38747  11.484   1.584  13.172 -0.0570  0.0198  0.0872
23131W        W38748  10.967   9.538   1.382  0.1407  0.3997  0.0019
23132W        W38749  18.241   4.600  11.791 -0.0336 -0.1032 -0.1197
23133W        W38750   4.198   6.226   5.122 -0.1416  0.0857 -0.0109
23134W        W38751   9.128  11.490   0.703  0.3859 -0.1081 -0.2990
23135W        W38752   3.015  13.157   0.041  0.0784 -0.1726  0.3352
23136W        W38753  11.909   9.917  14.962 -0.0477  0.4773 -0.0685
23137W        W38754   8.130   4.422   5.639  0.1485  0.5423 -0.3546
23138W        W38755   3.786  16.116  13.947 -0.0280  0.1251 -0.0095
23139W        W38756   5.785  13.081   1.252  0.3811 -0.1206  0.2097
23140W        W38757   2.531   9.528  12.316  0.1130 -0.1873 -0.0549
23141W        W38758   6.248   4.260  12.563  0.0331 -0.1309 -0.2703
23142W        W38759  17.909   6.766  10.660  0.1757  0.3843 -0.2275
23143W        W38760   2.651   9.513  12.914 -0.0279  0.2031 -0.0218
23144W        W38761  17.741  11.163   3.728 -0.0899 -0.1400  0.1373
23145W        W38762   3.198  10.674  10.718 -0.2848  0.0091  0.0843
23146W        W38763  11.525  13.643  11.811  0.2712  0.3005  0.2970
23147W        W38764  13.139  13.016   0.560 -0.0457 -0.2136 -0.1769
23148W        W38765  10.084   9.693  11.175 -0.1515  0.1249  0.0762
23149W        W38766   3.759   8.120  14.402 -0.0808 -0.2041 -0.0210
23150W        W38767   9.828  14.039   9.934  0.2563 -0.0298  0.0231
23151W        W38768  11.706   3.103  13.682  0.4533  0.2064  0.1998
23152W        W38769   2.060   6.531  13.207  0.0835 -0.3149  0.0618
23153W        W38770  16.218  16.746   9.689  0.3271 -0.0308  0.0174
23154W        W38771  13.185   0.978   0.669  0.0374  0.3039  0.1370
23155W        W38772  17.271  13.505   2.801  0.3269 -0.3258  0.0846
23156W        W38773   3.398   8.136   2.259  0.1781  0.0360 -0.1447
23157W        W38774   4.847   2.781   2.877  0.4632  0.2506  0.5203
23158W        W38775   7.037  13.009  14.176 -0.2738 -0.0488  0.3806
23159W        W38776  12.620   8.704   1.495  0.0041 -0.1766 -0.0043
23160W        W38777  11.510  11.438  12.077  0.0781 -0.0113 -0.0903
23161W        W38778  14.444   5.791   4.993  0.0844 -0.0177 -0.1174
23162W        W38779   5.784   9.834  14.839  0.2262  0.1069  0.2256
23163W        W38780  12.420   8.866   3.568 -0.4000  0.1649 -0.0813
23164W        W38781  10.171   3.355   0.565  0.1774  0.0561 -0.1651
23165W        W38782  17.373   4.871   3.928 -0.3338 -0.3543 -0.0432
23166W        W38783  17.488   1.246  12.745 -0.1200 -0.3324  0.0260
23167W        W38784   7.697   5.464   4.832  0.0399  0.0956 -0.1075
23168W        W38785   2.226   2.369   5.592  0.0407 -0.0594 -0.0703
23169W        W38786   0.104   9.208  14.947  0.0252 -0.2355 -0.1438
23170W        W38787  11.632  15.042   3.238 -0.1979  0.2766 -0.0950
23171W        W38788   8.275   8.134  13.037  0.0099  0.2827 -0.0148
23172W        W38789   1.396   3.823   4.020 -0.0689  0.2523 -0.1474
23173W        W38790   2.909  15.647   3.807 -0.3275 -0.0536 -0.1999
23174W        W38791   0.624   6.524  13.795 -0.0894  0.2042  0.2484
23175W        W38792  17.797   5.822   1.380 -0.2022 -0.1637  0.2661
23176W        W38793   1.591   5.071  13.770  0.0605  0.2154  0.2019
23177W        W38794   3.548   7.857  14.833 -0.0652  0.0138 -0.0035
23178W        W38795  17.246   2.302  14.400  0.0524  0.0053 -0.4014
23179W        W38796  15.041  13.934   5.093  0.0027 -0.3449  0.2020
23180W        W38797   2.144  11.180  14.833  0.0664 -0.1430 -0.1574
23181W        W38798  10.260   8.590   2.967  0.3652  0.2926  0.0862
23182W        W38799   6.735  17.937  13.576  0.0897 -0.0840  0.0748
23183W        W38800  16.474  15.821  13.061  0.0082 -0.0055  0.0340
23184W        W38801  11.420   2.523  15.289  0.0934  0.0615 -0.3088
23185W        W38802  17.539   4.931  13.405 -0.1003  0.0540  0.0919
23186W        W38803   7.537  17.087  13.833 -0.3857  0.2563  0.0298
23187W        W38804   6.719   4.561  15.180  0.1713  0.0256 -0.0436
23188W        W38805  17.263  13.530   5.093 -0.2946  0.3778 -0.1430
23189W        W38806   6.027   5.047   2.465  0.0573 -0.0535  0.2565
23190W        W38807   5.365  13.933  10.537 -0.2161  0.4790  0.0133
23191W        W38808  10.485  13.411  13.435  0.0077 -0.1025 -0.0413
23192W        W38809   5.168   6.156  11.336 -0.0148 -0.5072  0.1716
23193W        W38810  12.646   8.601   2.011 -0.0329  0.1772  0.0250
23194W        W38811  16.991   7.490   1.594 -0.3734  0.2659 -0.0840
23195W        W38812   2.857   3.645   4.607 -0.1278  0.0069  0.2749
23196W        W38813   9.532   7.271  13.233  0.2095 -0.3406 -0.0402
23197W        W38814  13.099  14.370   3.136 -0.0445  0.0187  0.0586
23198W        W38815   2.411  17.374   1.836  0.1963  0.2483  0.0869
23199W        W38816  18.665  15.239  10.595 -0.1426 -0.1576  0.0638
23200W        W38817  15.893  14.095  11.928 -0.0483 -0.1037  0.2416
23201W        W38818  12.410   8.710  12.750 -0.1101 -0.0979  0.0821
23202W        W38819  10.997   6.250   0.305  0.1212 -0.3316  0.1743
23203W        W38820  10.152   7.480   1.700 -0.2021 -0.4036 -0.2563
23204W        W38821   8.082   2.357  11.587 -0.2041  0.0961 -0.1054
23205W        W38822   9.832  17.844  12.603  0.0573  0.2530 -0.0777
23206W        W38823   8.868   0.620   0.505  0.0965  0.1917  0.0694
23207W        W38824   9.453   4.119   2.227  0.0604 -0.0334  0.1646
23208W        W38825  13.726   5.755   0.055 -0.1386  0.0859  0.1607
23209W        W38826   2.703   8.108   4.877 -0.0330 -0.2199  0.0873
23210W        W38827   7.260  17.465   1.260 -0.0123 -0.0997 -0.0390
23211W        W38828   6.571   4.022   5.367 -0.0063  0.0550 -0.0230
23212W        W38829   2.104  12.748  12.765 -0.1096 -0.0832  0.1487
23213W        W38830   6.539  11.796  12.151  0.0725 -0.1685 -0.0596
23214W        W38831   7.927   5.537  14.655 -0.0444 -0.0626 -0.0398
23215W        W38832   1.853  10.971  13.974  0.2096  0.0563  0.3402
23216W        W38833   2.630   0.658  13.168 -0.0179  0.0191 -0.0843
23217W        W38834   7.435   5.332  14.638 -0.1941 -0.3013  0.1069
23218W        W38835   7.485   8.206   1.366  0.0854 -0.4069  0.2765
23219W        W38836   5.693  18.923  14.721  0.1015 -0.1047  0.0940
23220W        W38837  13.475   6.767   0.476  0.0127  0.0188 -0.0218
23221W        W38838   1.608  13.004  13.494 -0.2982  0.0441 -0.3745
23222W        W38839  18.563  16.420   0.212 -0.0793 -0.5350 -0.0730
23223W        W38840  16.169   2.224  12.707  0.2716  0.0649 -0.1278
23224W        W38841   7.999  14.574  11.503 -0.2726  0.1063  0.0293
23225W        W38842   2.295  10.550   1.844 -0.0554 -0.2619  0.1425
23226W        W38843   4.520   0.799   5.309 -0.1940 -0.1385 -0.1070
23227W        W38844  14.701  14.598  11.764  0.4458  0.1343  0.3011
23228W        W38845  15.162  15.080   0.002 -0.0015  0.1695 -0.0116
23229W        W38846   8.778  10.922   0.020  0.2121  0.3491 -0.0839
23230W        W38847  15.343   5.163  13.546 -0.1271 -0.2572 -0.0236
23231W        W38848  12.435   2.673   3.502  0.0120 -0.2176 -0.3369
23232W        W38849   1.951  18.045   2.197 -0.1444 -0.0660 -0.1914
23233W        W38850   2.620  18.512  14.818  0.0828 -0.3120  0.0161
23234W        W38851  10.051   2.598  15.043 -0.4595 -0.2230  0.0613
23235W        W38852  13.795   2.354   0.754 -0.1662  0.2489  0.0664
23236W        W38853   5.725   4.467   1.955 -0.0115 -0.1807  0.2929
23237W        W38854   7.678  14.616   1.997  0.3589 -0.1417  0.1894
23238W        W38855  16.461  12.344  10.989  0.4083  0.4388  0.3487
23239W        W38856   6.496   2.834  13.052  0.1656 -0.2705  0.0238
23240W        W38857  11.121   2.732   1.966  0.2084  0.4133 -0.0888
23241W        W38858   7.742  17.162   3.842  0.2387  0.1441 -0.0930
23242W        W38859   4.564  16.448   4.734  0.0389  0.1182  0.0577
23243W        W38860  17.324  18.809  13.255  0.2826  0.0208  0.0223
23244W        W38861  11.346  15.415   0.149 -0.0367 -0.0309 -0.1037
23245W        W38862  18.032  11.985   1.588  0.3069 -0.1181 -0.1642
23246W        W38863   7.118  10.894  11.323 -0.0578  0.0592  0.0777
23247W        W38864   6.109   5.803   1.693  0.1396 -0.1217 -0.0490
23248W        W38865  17.511  12.096  11.301  0.4843  0.0474  0.0630
23249W        W38866  13.378   7.082   3.141  0.0969  0.0285  0.0811
23250W        W38867  14.078  10.245  12.338  0.3459  0.2452  0.0996
23251W        W38868   4.206   5.027   4.092  0.1035 -0.0357 -0.1226
23252W        W38869   1.416   0.973  10.548  0.1444  0.1722  0.3783
23253W        W38870  12.493   9.553  10.877  0.1764  0.0622 -0.0626
23254W        W38871  10.323  14.442  12.257 -0.2758  0.2563  0.2175
23255W        W38872   0.149   5.565  14.601  0.2442 -0.2306  0.2290
23256W        W38873   1.182  13.597   0.374 -0.1797  0.0370 -0.0639
23257W        W38874   7.360   6.765   5.332  0.0043 -0.0604 -0.1514
23258W        W38875   3.828  17.886   2.675  0.0073 -0.4165  0.1579
23259W        W38876  16.698   0.640  14.244 -0.1790 -0.0606  0.0099
23260W        W38877   2.108  13.834   2.467 -0.4514  0.1123  0.1102
23261W        W38878   7.513   7.637  10.583 -0.0502 -0.0134  0.2378
23262W        W38879  11.009   3.046   2.360 -0.0254 -0.0584  0.3369
23263W        W38880   1.686   0.166  11.169 -0.0634 -0.1325  0.2355
23264W        W38881  16.013  17.179   9.488  0.1318 -0.1591  0.2208
23265W        W38882   9.175  15.586  11.522 -0.1503  0.1725  0.0591
23266W        W38883   8.439   0.202  11.426 -0.2743  0.1423  0.2399
23267W        W38884   5.971   9.029   0.077 -0.0827  0.1638  0.2741
23268W        W38885  14.072   8.995  14.109 -0.2190 -0.1900  0.4024
23269W        W38886   9.851  14.587  13.221 -0.0479 -0.2522 -0.2708
23270W        W38887   4.395  16.020   2.032 -0.0226 -0.0146  0.5287
23271W        W38888  18.182  11.642  11.398 -0.2547  0.0703  0.0306
23272W        W38889  15.790   4.296  15.252  0.0269  0.1544 -0.3787
23273W        W38890  16.624   9.064  14.070 -0.1484  0.1244  0.1632
23274W        W38891  15.180  10.149  12.716 -0.1248  0.0715 -0.0965
23275W        W38892   9.667   7.153  15.076  0.0654  0.0753 -0.1169
23276W        W38893  15.763   3.353  10.839 -0.0443  0.0172  0.3444
23277W        W38894   0.670  10.859  11.228 -0.1627  0.2283 -0.0381
23278W        W38895   5.470   6.392  13.317  0.0212  0.0681  0.1658
23279W        W38896   3.826  12.161   4.726 -0.0733 -0.0142 -0.1171
23280W        W38897   6.700   6.593  10.803  0.3196 -0.2139  0.2675
23281W        W38898   2.008  16.179  12.338 -0.2727  0.1212  0.0989
23282W        W38899  13.573   9.289  13.179 -0.4198 -0.4881 -0.1932
23283W        W38900  13.177  10.430  11.281  0.2239  0.0795  0.0891
23284W        W38901  13.967   4.344   3.573 -0.2870  0.1371  0.4404
23285W        W38902   2.992   9.159  14.680  0.3481  0.1806 -0.1255
23286W        W38903   4.796   4.752   0.967  0.2285 -0.1236  0.2278
23287W        W38904   6.062   3.531  14.743  0.3156  0.1851 -0.0464
23288W        W38905  16.736  14.056  15.057 -0.0309 -0.0725 -0.0109
23289W        W38906  18.402   6.810   4.647 -0.1402  0.3479 -0.1496
23290W        W38907  15.584   4.529  14.855  0.0501  0.1637  0.0562
23291W        W38908  14.599   0.669   3.512  0.1697  0.0476 -0.1304
23292W        W38909   0.501   6.934   0.126 -0.2097  0.1891  0.0056
23293W        W38910  13.967   9.502  13.976  0.0364 -0.0807 -0.1597
23294W        W38911   8.327  15.003   2.571 -0.1057 -0.2903 -0.4825
23295W        W38912  13.820   3.567   5.154 -0.0031  0.3291 -0.0838
23296W        W38913  17.066   0.971  14.083 -0.0650  0.0956  0.1509
23297W        W38914   3.557  17.312   1.440  0.2633  0.0373  0.0041
23298W        W38915  15.794  10.224   1.993  0.1906  0.0435 -0.0279
23299W        W38916  15.308   1.689  14.395 -0.0963 -0.2185 -0.0613
23300W        W38917   1.083  18.048   4.245  0.1757  0.0694 -0.0825
23301W        W38918  16.608   0.977  13.825 -0.1985 -0.0364 -0.0417
23302W        W38919   4.365   9.663  11.671  0.1547 -0.0310  0.0476
23303W        W38920   7.888   5.868  11.871 -0.1081 -0.0522  0.1310
23304W        W38921  12.374  10.469   1.399 -0.3530  0.3848 -0.3421
23305W        W38922   5.276   5.008   0.566 -0.3809  0.2789 -0.2952
23306W        W38923  10.352   4.225  14.056 -0.1279 -0.2442  0.2145
23307W        W38924   8.519   9.480   5.684 -0.5463 -0.0117 -0.2179
23308W        W38925   0.759  14.351   0.715  0.1150 -0.1279 -0.0469
23309W        W38926   8.895   5.298   0.136 -0.1241  0.0328  0.1188
23310W        W38927  13.478  15.593  14.651  0.0756  0.2729 -0.1143
23311W        W38928  14.382   2.324   1.422  0.2564 -0.4839 -0.0688
23312W        W38929  12.992  16.861   3.447 -0.2812 -0.1031  0.2933
23313W        W38930   9.305  10.689  10.827 -0.0034 -0.0088 -0.3224
23314W        W38931  14.340   3.550  12.821  0.1071 -0.0857  0.1737
23315W        W38932  11.580  15.800   2.494 -0.0698 -0.1867 -0.3920
23316W        W38933   1.705   8.134  13.216  0.3611 -0.1884  0.1963
23317W        W38934   4.309   3.667   3.352  0.2099 -0.1094 -0.3320
23318W        W38935  17.106   7.910  12.050 -0.1169 -0.0776  0.1952
23319W        W38936   3.147   2.842   2.546 -0.3274  0.0791 -0.5249
23320W        W38937   4.554   8.829   5.769  0.4569 -0.1162  0.1455
23321W        W38938   7.259  14.081  14.074  0.2880 -0.2828 -0.1244
23322W        W38939   1.512  18.518   2.178 -0.1997 -0.0417 -0.0699
23323W        W38940   1.934   1.023   0.365  0.3392 -0.1136  0.1263
23324W        W38941  18.563  18.111  14.917  0.1494  0.0421  0.2339
23325W        W38942  14.008   0.940   0.082 -0.0823 -0.0618  0.0033
23326W        W38943  10.652  13.557  14.555  0.1625  0.0301  0.0649
23327W        W38944   2.347  14.318   4.748 -0.1360  0.0962 -0.0744
23328W        W38945  11.860  13.281  11.850 -0.0610 -0.0277 -0.0736
23329W        W38946  17.763   9.498   1.837 -0.1697  0.0111  0.2350
23330W        W38947   2.656  17.938  13.873 -0.2027  0.1108 -0.1189
23331W        W38948   6.074   0.106   5.151  0.1371  0.1723  0.0666
23332W        W38949  18.202   8.543  13.968  0.0014 -0.0770  0.0399
23333W        W38950  11.092  11.321  10.683  0.0778  0.3393  0.1565
23334W        W38951   0.746   1.088  12.982  0.0174  0.2831  0.0156
23335W        W38952   8.983   5.812  11.289  0.0515  0.0926  0.0695
23336W        W38953   5.997  17.523  13.142 -0.2676 -0.1291 -0.1586
23337W        W38954  12.924   2.795   0.257 -0.0218  0.0445 -0.3179
23338W        W38955  12.028   0.173   4.838 -0.5125 -0.4023  0.0159
23339W        W38956  13.517   4.390   5.281 -0.1010 -0.3194  0.1988
23340W        W38957  12.436   8.385   0.521  0.1607  0.2914  0.1461
23341W        W38958   1.676   4.458   2.986 -0.1955  0.2525 -0.0117
23342W        W38959  16.835  14.556   3.935 -0.1514  0.2231 -0.1728
23343W        W38960  17.007   1.836   0.076 -0.0261 -0.1714 -0.0068
23344W        W38961   9.590  16.943   0.604 -0.1830  0.0765 -0.0775
23345W        W38962   9.543   3.666  11.291  0.1753 -0.1574 -0.5047
23346W        W38963   7.939   6.171  10.578 -0.2172  0.0882  0.3196
23347W        W38964  10.547  12.985  12.553 -0.0593  0.3368  0.0573
23348W        W38965   9.644   7.740   1.455 -0.0420 -0.0519 -0.0400
23349W        W38966   9.533   1.363  14.310 -0.2427  0.0575  0.0718
23350W        W38967   9.621  11.373  10.454  0.0163  0.0656 -0.0852
23351W        W38968  10.507   2.166   5.449 -0.2615  0.0964 -0.1626
23352W        W38969  18.972  12.729  11.147 -0.4487 -0.0311  0.2355
23353W        W38970  17.957   4.679   1.445  0.0961  0.2036  0.1514
23354W        W38971   7.167   8.368   3.863  0.1017 -0.1532 -0.2853
23355W        W38972  13.297  12.215  12.858  0.2519 -0.0544 -0.2320
23356W        W38973   1.923  15.958   0.508  0.2036  0.0590 -0.0594
23357W        W38974  19.041   9.167   2.127  0.2268  0.1146  0.3900
23358W        W38975   1.191   1.801   3.548 -0.2193 -0.1221  0.0374
23359W        W38976   2.677   9.642  10.723 -0.3269  0.1552 -0.0677
23360W        W38977   9.593  16.449   5.559 -0.0073  0.1387  0.1801
23361W        W38978  15.443  10.077   2.336 -0.0714  0.1005 -0.1631
23362W        W38979  17.690  11.575  10.663  0.0067 -0.1190  0.0351
23363W        W38980   8.864  16.628   4.523 -0.0156  0.3373 -0.0408
23364W        W38981   4.721   2.273   3.688  0.0770  0.0549  0.1888
23365W        W38982  17.490  10.178  10.136 -0.2878 -0.0392 -0.0191
23366W        W38983   6.320  10.079   1.221 -0.0530  0.0534  0.1288
23367W        W38984   2.720  18.835  12.359  0.2579  0.2093 -0.2769
23368W        W38985   8.866   5.197  14.451 -0.0880 -0.2286 -0.0126
23369W        W38986  12.118   4.405   4.607  0.1534 -0.0418 -0.0024
23370W        W38987  16.671   3.884  14.707 -0.3519 -0.1162 -0.2868
23371W        W38988  10.635  15.361   4.637 -0.0434  0.1364 -0.0653
23372W        W38989   9.037  17.186   5.596  0.1764 -0.0006  0.2450
23373W        W38990   5.259   8.243  13.385 -0.0104  0.2348 -0.0138
23374W        W38991  18.043   4.394  14.811  0.0077 -0.1118 -0.2219
23375W        W38992  12.159   2.346  15.176  0.1153  0.3023  0.5407
23376W        W38993  11.851  18.469   0.091  0.2240  0.1544  0.2498
23377W        W38994  16.685  17.238   3.862 -0.0563  0.2177  0.0468
23378W        W38995   9.058  18.820  12.929 -0.0684  0.2095 -0.1307
23379W        W38996   7.341   4.404   3.584  0.4352  0.2517 -0.0429
23380W        W38997   1.048  13.657  12.560 -0.0302 -0.0488 -0.1439
23381W        W38998  15.032   1.160   2.439  0.1872 -0.5994  0.4370
23382W        W38999   7.133  12.239  14.346 -0.5040 -0.0621 -0.1646
23383W        W39000   6.128  10.084   3.117  0.1115  0.3655  0.2815
23384W        W39001   2.984  16.461  12.500 -0.3955  0.1497  0.2020
23385W        W39002   5.077  17.487  11.683  0.1501 -0.1541  0.2388
23386W        W39003   7.923  16.516   0.053  0.0729  0.2276  0.1221
23387W        W39004   8.670   6.853  10.515  0.1193 -0.4769 -0.0761
23388W        W39005  10.404  13.238  12.939  0.0137 -0.0788 -0.4066
23389W        W39006  11.544  15.230  12.813  0.0330  0.0602  0.1620
23390W        W39007  11.776  12.647   1.617 -0.0832  0.0068 -0.0169
23391W        W39008   2.323  13.641   2.893 -0.0340 -0.2773  0.3474
23392W        W39009  15.724   6.362   5.311 -0.0068 -0.3341  0.2583
23393W        W39010   6.069   1.640  13.059 -0.0869  0.2670  0.0956
23394W        W39011  15.697  17.436   4.773 -0.0297  0.1253 -0.1859
23395W        W39012  17.007   7.869  11.578  0.3097  0.1226  0.3283
23396W        W39013   9.899  17.707  14.599  0.0316 -0.0792 -0.2262
23397W        W39014  15.311  16.107   1.406  0.0392  0.1715  0.1101
23398W        W39015  10.972   6.536   1.328  0.0142  0.1076 -0.1308
23399W        W39016   4.140   9.632   4.356  0.1576 -0.1167  0.0561
23400W        W39017   8.614  15.304  12.826  0.4410 -0.2225 -0.0335
23401W        W39018   0.694  14.035  12.632 -0.1410  0.0453  0.1734
23402W        W39019   1.724  18.790   0.154  0.0747 -0.1555 -0.2603
23403W        W39020   5.894  14.986  11.331 -0.0793  0.1391 -0.1308
23404W        W39021   7.175   7.489   3.717  0.0093 -0.2883  0.0890
23405W        W39022  18.115  17.587   0.501  0.1478  0.0670  0.1271
23406W        W39023  15.902  13.741  13.081 -0.0712 -0.1947  0.0233
23407W        W39024   9.891  10.834   0.464 -0.3394 -0.1925 -0.0976
23408W        W39025   3.331  17.186   2.840 -0.1060  0.4649 -0.0221
23409W        W39026  16.946  12.619  13.419 -0.1964  0.0703  0.1006
23410W        W39027  16.229  18.609  10.367  0.2670  0.0936 -0.0684
23411W        W39028  13.272   9.880   1.701 -0.2742  0.3830  0.0878
23412W        W39029   8.326  12.265  11.485 -0.3080 -0.2369  0.0293
23413W        W39030   5.494  14.048  14.229 -0.1494 -0.1068  0.0685
23414W        W39031  17.143  10.098  12.228 -0.0975 -0.0887 -0.0978
23415W        W39032   1.597  15.524  13.939  0.3912 -0.0856 -0.0082
23416W        W39033  18.499   5.302  12.813  0.2396 -0.0176  0.1488
23417W        W39034   7.385  12.219   0.393 -0.1282  0.3740  0.1145
23418W        W39035   5.826   3.496   1.560  0.2023  0.2465 -0.1435
23419W        W39036  13.428  16.791   4.141 -0.0185 -0.0317 -0.2189
23420W        W39037  13.412   1.640   3.747  0.0959  0.2235 -0.0801
23421W        W39038   7.256  12.529  12.993 -0.3964  0.0203 -0.3635
23422W        W39039  16.990  15.049   0.049 -0.1197 -0.0810 -0.1135
23423W        W39040   4.248   2.089  14.483  0.1964  0.0697 -0.2196
23424W        W39041  11.639  14.833   3.733  0.3967 -0.1120  0.0972
23425W        W39042   0.447   7.953  10.836  0.1517 -0.0206  0.1476
23426W        W39043  13.952   4.080   0.404  0.0732 -0.2282  0.2837
23427W        W39044   6.264  15.939  12.284 -0.2970 -0.0960  0.1429
23428W        W39045  17.907   0.756   1.241 -0.1503 -0.0535  0.1819
23429W        W39046   6.063  17.633  11.467  0.1382  0.0532  0.0658
23430W        W39047  17.074   6.898  11.619  0.1440  0.0633  0.2571
23431W        W39048  14.207  11.463  12.454 -0.4513 -0.1866  0.1663
23432W        W39049  13.280   8.165  10.014  0.0052  0.1707 -0.0734
23433W        W39050  13.141  10.448   2.653  0.1069  0.1143 -0.1846
23434W        W39051   3.541  11.285   2.915  0.0616  0.0348 -0.0686
23435W        W39052  14.940  18.004   1.165  0.1833  0.4463 -0.0658
23436W        W39053   7.596   2.725   0.951  0.0808 -0.0888 -0.0512
23437W        W39054   4.278  18.429   0.197 -0.0346  0.3283  0.0090
23438W        W39055   6.662   9.930   0.831  0.0962 -0.0865  0.0485
23439W        W39056   0.357   1.037   0.896 -0.0889  0.3578 -0.0769
23440W        W39057  17.324  16.411  15.000  0.0152 -0.0099 -0.1241
23441W        W39058  17.356  18.441  15.158 -0.1074  0.0580 -0.2052
23442W        W39059  12.145   7.933  12.378 -0.0921 -0.0510  0.2527
23443W        W39060   3.252  14.309   0.109  0.3214  0.1009  0.1128
23444W        W39061   8.912   3.951  14.022  0.0597 -0.1803  0.1167
23445W        W39062  18.761   7.407   1.164  0.0375 -0.3499  0.0294
23446W        W39063  10.393   1.396   4.115  0.2370 -0.0450  0.1064
23447W        W39064  11.336   9.260   5.474 -0.2017  0.0082  0.1360
23448W        W39065   2.455   3.252  10.823 -0.1939 -0.4349  0.0087
23449W        W39066   8.605   2.614   0.721 -0.0838 -0.1864 -0.1596
23450W        W39067   9.106  14.908  13.882  0.2317 -0.0233  0.0571
23451W        W39068   1.909  10.083  13.746  0.4244 -0.1120  0.2347
23452W        W39069   7.013   3.543   4.190 -0.2553 -0.1417 -0.0674
23453W        W39070  13.210   9.963  13.907  0.1345  0.0915 -0.1901
23454W        W39071  11.468  18.514  13.849 -0.2296  0.0442  0.4478
23455W        W39072   6.090   1.676   5.862 -0.1115 -0.1377  0.0186
23456W        W39073  14.431  12.067  14.226  0.0681  0.2019  0.0362
23457W        W39074  18.823  15.416   0.377 -0.0605  0.2006  0.2268
23458W        W39075  14.242  10.037   0.290 -0.2517 -0.1852 -0.3606
23459W        W39076  18.216   0.093  13.710 -0.3847  0.0239  0.1979
23460W        W39077  18.719   2.044  14.246  0.0553 -0.1751  0.3152
23461W        W39078   7.151   7.759  12.245 -0.3994  0.1949 -0.1036
23462W        W39079  15.493  16.458   5.035 -0.0195 -0.0435 -0.0827
23463W        W39080   1.502  13.686  10.806 -0.2489  0.0950  0.0094
23464W        W39081  14.748  17.709   3.874 -0.0054  0.0880  0.1991
23465W        W39082  14.196   3.106  12.228 -0.2446 -0.3604 -0.3016
23466W        W39083  11.369   2.140  13.708 -0.0341  0.1822  0.0093
23467W        W39084  15.123  13.633   4.129 -0.0151  0.2467 -0.1852
23468W        W39085   7.016   1.526   5.881 -0.0622  0.1377 -0.1235
23469W        W39086   3.090  13.830   1.690 -0.0866  0.0612 -0.0816
23470W        W39087   0.457  10.227  11.224 -0.1059 -0.2643 -0.3854
23471W        W39088   6.980   3.983   3.739 -0.0803  0.5232 -0.1402
23472W        W39089   3.525   5.658  10.153  0.3137  0.2027  0.1682
23473W        W39090   2.463  12.092   5.187  0.3740 -0.0049 -0.3131
23474W        W39091   7.424   9.237   1.423 -0.1922  0.1657  0.2838
23475W        W39092  14.858   5.946  10.903  0.0145 -0.1477 -0.2230
23476W        W39093   5.833   0.867  12.644 -0.1146  0.0611  0.0705
23477W        W39094   5.681   8.907  10.089  0.1157 -0.4423 -0.0126
23478W        W39095   7.444   1.540  10.803 -0.2108 -0.1441  0.2939
23479W        W39096   7.532  14.118  12.851  0.0056  0.0868 -0.2924
23480W        W39097  12.801   6.572   4.504 -0.3559  0.0533  0.0378
23481W        W39098   8.996   5.485  14.003 -0.0092 -0.0294  0.0266
23482W        W39099   1.773   0.605   5.311  0.0367  0.2211  0.6998
23483W        W39100  18.850  12.296  14.242  0.0541  0.0933  0.5824
23484W        W39101   8.447   0.906  10.771 -0.0990  0.1682  0.1145
23485W        W39102  10.838  13.302  11.782  0.1901 -0.0361  0.0366
23486W        W39103  18.230   0.700   3.963 -0.3881  0.1041 -0.1344
23487W        W39104   2.070   7.323   0.426 -0.2482 -0.2868  0.0322
23488W        W39105   0.161   7.893   2.005 -0.2778  0.0847  0.0922
23489W        W39106  12.756   9.895   3.301 -0.1477 -0.2067  0.2946
23490W        W39107   2.568  17.445  14.097  0.1546 -0.1524 -0.3537
23491W        W39108   0.361   4.083  15.246 -0.2033 -0.0165 -0.0497
23492W        W39109   1.258   4.849  11.391  0.0602  0.1654  0.1035
23493W        W39110   5.178  11.073   4.051  0.1508  0.0322 -0.3106
23494W        W39111  14.434  18.753  14.325  0.1025 -0.0685  0.1905
23495W        W39112   8.292  11.549   1.707 -0.0933  0.0707 -0.3237
23496W        W39113  10.968   2.605  13.195  0.3550 -0.4745  0.0489
23497W        W39114   9.135  12.065   2.639  0.0045 -0.1772  0.1100
23498W        W39115   6.614   1.491  12.796 -0.1136 -0.3486  0.2980
23499W        W39116  11.384   0.660  13.364 -0.2309 -0.1899 -0.1132
23500W        W39117  16.104   7.273  11.509 -0.0755 -0.1699  0.0204
23501W        W39118  15.330   5.646  13.191 -0.2165  0.2351 -0.1448
23502W        W39119  18.390  17.665   1.816  0.0142  0.0349 -0.0850
23503W        W39120   7.060   1.883  14.723 -0.2839 -0.0480 -0.2201
23504W        W39121   5.525  17.630   3.270 -0.0862  0.2015 -0.0998
23505W        W39122   8.718   8.878   1.167 -0.0650  0.1838  0.2101
23506W        W39123   2.175   0.997  11.518  0.2839  0.1576  0.1815
23507W        W39124   1.579  18.629   3.088 -0.0470  0.0326 -0.1880
23508W        W39125  16.368  18.749   2.027  0.0608 -0.0551  0.0602
23509W        W39126   6.666   1.224  11.038 -0.0746  0.0349 -0.1614
23510W        W39127   2.022  16.074  11.821 -0.0054 -0.5896  0.1715
23511W        W39128   7.160   0.826   1.919  0.2442 -0.0939  0.0056
23512W        W39129  13.750  14.382   2.602 -0.0678 -0.0588  0.0970
23513W        W39130  13.636  19.063  11.084  0.1947  0.0227  0.0401
23514W        W39131  15.943  17.640  14.311 -0.3343 -0.0465  0.2510
23515W        W39132  15.486   4.182   5.050 -0.0619  0.1028  0.0121
23516W        W39133  14.173  10.455  12.793 -0.2632 -0.1675  0.2672
23517W        W39134   1.628   4.022   1.236 -0.0160 -0.0016 -0.2092
23518W        W39135   2.282  16.352   1.705  0.1986 -0.0195  0.2641
23519W        W39136   4.897  17.278   0.646  0.2669 -0.2644  0.1527
23520W        W39137   9.672  14.291  12.872 -0.1371 -0.0768  0.1532
23521W        W39138  11.256   2.164  10.057  0.0208 -0.0139  0.0693
23522W        W39139   3.467   0.517  13.986  0.1635 -0.2212 -0.1009
23523W        W39140  16.036  17.636  12.983  0.4330 -0.0266 -0.0027
23524W        W39141  11.669   7.740   4.268  0.0187  0.5419  0.0846
23525W        W39142   4.768   2.317   3.043 -0.1023 -0.0595  0.0009
23526W        W39143   8.721   9.340   2.168 -0.1886  0.1308 -0.1178
23527W        W39144  15.127  18.070  12.900  0.0469  0.3250 -0.2028
23528W        W39145  17.419   2.664  11.124  0.2227 -0.1851 -0.1728
23529W        W39146  11.289   6.955   0.807 -0.1388 -0.1163 -0.2335
23530W        W39147   5.157   8.135   2.639  0.1456  0.1222 -0.0676
23531W        W39148   2.200  14.188   0.746 -0.3460 -0.0533 -0.2890
23532W        W39149   7.656  16.782   4.271  0.2955 -0.0319  0.2034
23533W        W39150  11.128   2.918   5.742  0.0484  0.0653  0.0422
23534W        W39151   9.450   3.233  11.047  0.0755  0.0950  0.2229
23535W        W39152   3.277  10.888   2.604  0.1776 -0.4987 -0.1461
23536W        W39153  11.171  11.603   3.480  0.1269  0.1577 -0.3737
23537W        W39154  18.056   5.600  11.504  0.5463  0.2361  0.0304
23538W        W39155   2.310   6.164   4.040  0.1684  0.0504 -0.2131
23539W        W39156   4.848   6.200   4.356  0.1000 -0.3262  0.3063
23540W        W39157   3.217  17.304  11.421 -0.1795  0.2545  0.1816
23541W        W39158  12.246  15.076  15.243  0.1226  0.0463 -0.2369
23542W        W39159   2.267  15.500  13.073  0.2018 -0.1301 -0.0151
23543W        W39160  18.363  10.760   1.877 -0.4128 -0.1413 -0.3543
23544W        W39161  19.002   0.015   0.379 -0.0056  0.1040  0.0871
23545W        W39162   9.070   1.487  11.853 -0.0026  0.0335  0.0730
23546W        W39163   0.107  13.920   5.097 -0.0511  0.1390  0.3886
23547W        W39164   3.997   8.800   3.219 -0.0353  0.2481  0.0576
23548W        W39165  15.061  10.380  10.818  0.2986  0.0832  0.3453
23549W        W39166   1.139  16.278  13.632 -0.3035 -0.4528  0.2572
23550W        W39167  18.345  15.405   2.262 -0.1796 -0.2776 -0.1714
23551W        W39168   5.523  17.188   3.819  0.1787 -0.0540  0.1728
23552W        W39169  17.522  10.112  10.920  0.3259 -0.3056  0.2016
23553W        W39170   1.510  16.420  14.894  0.1097 -0.0085 -0.1879
23554W        W39171   2.083   5.479   1.183 -0.0727  0.1240  0.2652
23555W        W39172   1.783  10.809  11.129  0.2784 -0.0808  0.1912
23556W        W39173  15.812   0.660   2.678 -0.2689 -0.0014 -0.0335
23557W        W39174  17.180   8.591   2.458  0.0384  0.3781  0.0555
23558W        W39175   4.706   5.856  11.345  0.1780 -0.1338  0.0657
23559W        W39176  16.495  12.089   5.011  0.0179  0.0976  0.0921
23560W        W39177  17.782   7.959   1.349 -0.0058  0.1707  0.0823
23561W        W39178  18.242  12.464  10.411  0.1762 -0.2815  0.0103
23562W        W39179  14.858  10.614  13.889 -0.1864 -0.0623 -0.2837
23563W        W39180   9.861  13.569  14.457 -0.1084 -0.1090  0.1802
23564W        W39181   8.463  12.509   1.757  0.0414  0.1404  0.2520
23565W        W39182   8.830  16.131   0.888 -0.0805 -0.0298 -0.1813
23566W        W39183   9.747   3.149  13.563  0.0835 -0.3002  0.0057
23567W        W39184  12.349   6.234   3.787 -0.0654  0.2897 -0.1101
23568W        W39185  16.674  12.781   2.608 -0.0589 -0.0710 -0.1800
23569W        W39186   0.261  10.547  10.011  0.2243  0.2272  0.2172
23570W        W39187   8.588   7.320  12.367 -0.2666 -0.2887 -0.0118
23571W        W39188  11.495   7.675  12.558 -0.0978 -0.2389  0.2592
23572W        W39189  11.664   3.454   4.365  0.0627 -0.2929 -0.1914
23573W        W39190   6.880   3.253   0.341  0.0904  0.1741  0.3096
23574W        W39191  17.072  11.146  11.158  0.2626 -0.0499 -0.0832
23575W        W39192   6.913  11.253  13.828 -0.1764 -0.0719  0.1263
23576W        W39193  16.209  11.435   0.253  0.1682  0.1171 -0.1458
23577W        W39194  16.923   0.989   1.079  0.0580  0.0662  0.2472
23578W        W39195  13.129  14.366  14.060  0.1901 -0.2717 -0.0068
23579W        W39196   0.013   9.434  12.541  0.2395  0.2776 -0.1483
23580W        W39197   0.801  14.137   3.545  0.1061  0.2083 -0.2643
23581W        W39198  11.232  17.583   3.561 -0.2407  0.0646 -0.0787
23582W        W39199  18.392   6.511  10.781 -0.0125 -0.1452 -0.1130
23583W        W39200  11.126   4.340  12.778  0.1006 -0.2549  0.2548
23584W        W39201  19.033   9.661  11.575 -0.0399  0.2231  0.2132
23585W        W39202  18.862   0.507   0.201 -0.0275 -0.0602  0.3273
23586W        W39203  18.878  18.185  11.251  0.0699  0.3767  0.1408
23587W        W39204   6.829  16.479   0.989  0.0155 -0.2093 -0.0035
23588W        W39205  16.460  18.434   0.015 -0.0502  0.1254 -0.3112
23589W        W39206   8.517   8.705   1.613  0.1305 -0.1263  0.2670
23590W        W39207  17.221   9.310  11.636 -0.2517 -0.0946 -0.0596
23591W        W39208   3.289  13.771   3.080  0.1244  0.0251 -0.1379
23592W        W39209   8.045  15.313   4.352 -0.0168 -0.2516 -0.1788
23593W        W39210   8.359   2.110   5.086 -0.0204 -0.0941 -0.1167
23594W        W39211   3.294  13.985  12.662  0.0076 -0.1285 -0.2608
23595W        W39212  13.535  16.550   1.142 -0.0276  0.0623 -0.0789
23596W        W39213   1.122   8.843   1.006 -0.3694 -0.2672 -0.1160
23597W        W39214  18.179   5.120  14.075  0.1537 -0.0430  0.0033
23598W        W39215   9.741   0.060  10.971 -0.1984 -0.3133 -0.0332
23599W        W39216   6.358   6.968   2.931 -0.0034  0.2190 -0.2178
23600W        W39217  10.545   2.295  11.107  0.1358 -0.2924 -0.0611
23601W        W39218   5.665   2.492  13.910  0.3277  0.1069  0.1775
23602W        W39219  15.962   3.392  11.989  0.0474 -0.1384 -0.2905
23603W        W39220  15.871  16.023   4.851 -0.0767  0.0311 -0.3703
23604W        W39221   6.426  14.198  14.558 -0.0854  0.0903 -0.4734
23605W        W39222   1.132  17.673   2.025  0.1554 -0.0716 -0.1122
23606W        W39223  16.097   3.856   3.025  0.2234 -0.0453 -0.2149
23607W        W39224   6.222  12.284   0.576  0.1421  0.0114 -0.2860
23608W        W39225   4.439  18.285  14.160 -0.0258 -0.1339 -0.3874
23609W        W39226  18.848   4.746   2.758 -0.0464  0.0215  0.1752
23610W        W39227  11.527   4.856   5.174  0.5260  0.1708  0.0877
23611W        W39228  17.912   4.218   3.486 -0.2448  0.1837  0.1858
23612W        W39229  16.830  16.108  11.011  0.0256 -0.0338 -0.2863
23613W        W39230  13.529   7.025   2.352 -0.0687 -0.0795 -0.1708
23614W        W39231  14.173  11.523   0.000  0.2928 -0.2779  0.0440
23615W        W39232  13.399   5.871  13.295  0.4213  0.4645 -0.3604
23616W        W39233   9.969  14.080  14.642  0.1212 -0.1319  0.1708
23617W        W39234   0.720  13.719  12.223  0.0259  0.1223 -0.2355
23618W        W39235   6.428   9.078  14.857  0.1771 -0.0955 -0.0186
23619W        W39236  13.775   0.441  13.952  0.1866 -0.0011 -0.0413
23620W        W39237  18.663  16.871   2.271 -0.3229 -0.1747 -0.0710
23621W        W39238   6.595  13.134  11.590 -0.0432 -0.0715 -0.2678
23622W        W39239   1.137  11.290   1.650  0.0567  0.1766 -0.0644
23623W        W39240  16.742   0.929   0.502 -0.1154 -0.0362 -0.3706
23624W        W39241   4.900   6.272   0.249  0.1576 -0.1375  0.1332
23625W        W39242  12.196  17.109  15.284 -0.1560 -0.0111 -0.0748
23626W        W39243  18.076   5.054  11.583 -0.1460 -0.0167 -0.0874
23627W        W39244   5.706   7.111   2.412 -0.0046 -0.0500 -0.0258
23628W        W39245  14.208   0.575  11.517 -0.0888  0.0190 -0.1388
23629W        W39246  12.504   5.125  11.639 -0.3154 -0.0941  0.2852
23630W        W39247   3.471   9.241   4.711  0.1209  0.0865 -0.0136
23631W        W39248   9.477   0.412   0.263 -0.0390 -0.2186 -0.0614
23632W        W39249  16.331  18.915  13.006  0.1254 -0.1705 -0.0291
23633W        W39250  11.511  18.306  13.039 -0.0033  0.0718 -0.4525
23634W        W39251   4.912  16.891   2.207  0.1491  0.2243 -0.0106
23635W        W39252   3.066   4.745   5.031  0.0592  0.0400  0.3954
23636W        W39253   6.747   8.578   3.658  0.3267 -0.1304 -0.2266
23637W        W39254   0.428  15.208   4.663 -0.0708  0.0610  0.0779
23638W        W39255   3.806  15.108  10.665 -0.0425  0.1519 -0.1928
23639W        W39256   6.641   6.521   2.741 -0.0587  0.3537  0.0179
23640W        W39257   9.001  18.555  10.656  0.1880  0.4460 -0.3940
23641W        W39258  11.631  10.946  11.284 -0.3365 -0.0370  0.2116
23642W        W39259  15.536   8.347   4.893 -0.0283 -0.0087  0.1202
23643W        W39260  13.650   1.339   1.737 -0.0490 -0.0515 -0.0974
23644W        W39261   7.164  12.476   2.945 -0.1508  0.1493 -0.0523
23645W        W39262  14.576   4.030  14.236  0.0854 -0.2458  0.0283
23646W        W39263   3.264   4.878   4.611  0.1276 -0.2385  0.2860
23647W        W39264  17.351   0.652  12.599 -0.3627 -0.2134 -0.2139
23648W        W39265   2.544  15.370  13.961  0.0857 -0.3861  0.2906
23649W        W39266   0.011   0.825  15.136  0.1590 -0.4214  0.1852
23650W        W39267   5.398  15.240   4.696 -0.1546  0.0762  0.1532
23651W        W39268   6.440  12.371   2.302  0.0956  0.1081 -0.0239
23652W        W39269   2.428   3.398  11.969 -0.2651  0.0421  0.1189
23653W        W39270   6.563   9.655   4.473 -0.0525 -0.2763 -0.3374
23654W        W39271  13.428   4.129  12.686  0.1227 -0.0840 -0.3849
23655W        W39272  18.806  18.094   4.330 -0.0077 -0.1490  0.0192
23656W        W39273  11.384  10.230   0.495 -0.1849  0.0327  0.1530
23657W        W39274   5.692   7.505   4.822 -0.0748  0.2285 -0.2268
23658W        W39275  10.473  17.760  11.735  0.3029  0.1875 -0.0350
23659W        W39276   3.122  13.981  12.190 -0.3369  0.1756  0.1766
23660W        W39277   6.103   3.093   5.388 -0.0096 -0.1784  0.0585
23661W        W39278   8.555  17.051  14.923  0.0666 -0.2101 -0.0552
23662W        W39279   1.082   8.471   4.937 -0.0184 -0.1829 -0.0709
23663W        W39280  13.175   8.834   2.777  0.0558  0.2494  0.3267
23664W        W39281   5.886  13.761   1.004  0.1363 -0.1526  0.0576
23665W        W39282   1.085  10.635   4.040 -0.2047 -0.0144  0.0042
23666W        W39283  15.076   9.363  11.136  0.4455  0.2563 -0.2373
23667W        W39284  17.804  18.764  13.006 -0.2351 -0.5396 -0.1267
23668W        W39285  10.777   5.218  14.992  0.1264  0.1461  0.0932
23669W        W39286  11.284  18.727  12.068 -0.2877 -0.0250  0.0847
23670W        W39287  11.217   6.497   2.674 -0.1384  0.0555 -0.1971
23671W        W39288   1.266   8.499  13.280  0.0090  0.0377  0.0229
23672W        W39289   3.293  15.673  14.667  0.0048 -0.0872  0.4274
23673W        W39290  13.576   7.623   3.944 -0.1206 -0.1179 -0.2287
23674W        W39291   3.844  10.905   1.142  0.3785  0.0336 -0.0879
23675W        W39292  15.144  17.413   2.140 -0.3553 -0.1920 -0.1294
23676W        W39293  15.518  14.854  13.045  0.0495  0.1371  0.0455
23677W        W39294   2.244   1.397  13.235 -0.2336  0.1874 -0.1386
23678W        W39295  10.468  17.645   0.881  0.1586  0.3325 -0.1896
23679W        W39296   3.243   0.661   0.251  0.0828  0.0206  0.2542
23680W        W39297  17.470   1.389   4.936 -0.0224  0.1296  0.0312
23681W        W39298  14.683  13.934   1.217 -0.0019  0.2028 -0.0575
23682W        W39299   6.716   7.240  11.561  0.1278  0.2365  0.2407
23683W        W39300   2.590   9.109  12.006 -0.3967 -0.1557 -0.2743
23684W        W39301   5.109  11.821   2.244 -0.0846  0.4196  0.1770
23685W        W39302   4.980   4.112   2.080  0.1665 -0.1377 -0.1162
23686W        W39303  16.224   6.161   1.259  0.0108 -0.2878  0.1060
23687W        W39304  17.034   6.232   0.450 -0.1878  0.2063  0.1780
23688W        W39305   4.746  15.856   4.281  0.0565  0.0005 -0.2802
23689W        W39306  12.721  18.123  14.985  0.3086  0.3484 -0.1373
23690W        W39307  12.785   6.208   3.524 -0.1084 -0.2892  0.0346
23691W        W39308  10.761  11.957  11.194  0.0018  0.0741  0.2564
23692W        W39309   6.029  15.401  13.866 -0.1306 -0.0038  0.2535
23693W        W39310   5.410  15.859  15.225 -0.1776 -0.3149 -0.2023
23694W        W39311   6.771  18.919  14.026  0.2367 -0.3015  0.0056
23695W        W39312   7.523   5.551   4.126  0.1408 -0.1092  0.0110
23696W        W39313   3.473   4.454   4.356  0.3543  0.2052  0.0664
23697W        W39314   8.616  18.428  11.617  0.1059  0.2337 -0.1341
23698W        W39315   6.767  17.744  14.845 -0.1924 -0.3136 -0.1083
23699W        W39316  12.211   6.402   4.318  0.0423  0.0477  0.4430
23700W        W39317  13.111   9.057  12.161 -0.1351  0.0583  0.1591
23701W        W39318   4.698   7.667   5.489  0.1080  0.0368  0.1344
23702W        W39319   6.293  11.937   3.478  0.2436 -0.0617  0.0065
23703W        W39320  11.112   2.434  14.893  0.0039 -0.1577  0.0102
23704W        W39321   5.558  11.220   1.627 -0.2102 -0.2363 -0.4282
23705W        W39322  13.939  18.157  15.202  0.0587 -0.0703 -0.2565
23706W        W39323  15.771  12.109  14.868  0.1018 -0.0838  0.1406
23707W        W39324  18.731  17.863  10.369  0.0655 -0.1322  0.1924
23708W        W39325   1.508   0.549   2.971 -0.0793  0.0872 -0.1419
23709W        W39326  17.534  18.678   3.084 -0.3695 -0.2081 -0.3444
23710W        W39327   5.041   0.978   3.897 -0.1410 -0.3452 -0.0658
23711W        W39328  14.603   8.398  14.771 -0.1061 -0.0808  0.0520
23712W        W39329   8.901  14.402   3.796 -0.2582 -0.0952 -0.1431
23713W        W39330   5.527   7.849  15.219 -0.2780  0.0861  0.0438
23714W        W39331  18.161  10.902  12.082 -0.3490 -0.3756 -0.0244
23715W        W39332  18.704   8.522   1.770 -0.0632 -0.1282  0.2368
23716W        W39333   9.846  16.835  13.655 -0.0380  0.0511 -0.2444
23717W        W39334  14.414   6.497  10.048  0.2682 -0.0843 -0.0916
23718W        W39335   1.453   8.818   5.173 -0.0783 -0.0553  0.3702
23719W        W39336  13.097  18.296   0.957  0.0565 -0.0677 -0.0446
23720W        W39337   9.074  10.603   3.174  0.0387  0.0972  0.2033
23721W        W39338  15.531  18.523  13.441  0.3352  0.2915  0.0272
23722W        W39339   2.934   8.342  13.309 -0.2100 -0.0229 -0.1860
23723W        W39340  10.903  17.359   0.701 -0.1055 -0.0218  0.0273
23724W        W39341   8.536   5.561  11.723 -0.1204  0.3262 -0.1727
23725W        W39342  14.220   5.357  10.179 -0.2089  0.3223 -0.2416
23726W        W39343   9.936  15.394   0.114 -0.0937 -0.0331 -0.3091
23727W        W39344   8.425  10.092   5.199 -0.1687 -0.1116 -0.1907
23728W        W39345  16.327   8.911   2.227  0.0138 -0.2184  0.1501
23729W        W39346  15.811   5.228   3.981 -0.0042 -0.1148 -0.3213
23730W        W39347   2.630   8.265  14.806 -0.0118 -0.3643  0.3656
23731W        W39348   2.470   2.896  11.961  0.1726  0.1455 -0.1000
23732W        W39349  16.492   0.902  12.993  0.1946 -0.0741  0.1068
23733W        W39350   5.982  16.900  14.962 -0.0804  0.0642  0.0022
23734W        W39351   3.154   2.271  12.900 -0.2871 -0.2084 -0.1761
23735W        W39352   5.391   8.203  14.764 -0.1018  0.2015  0.1067
23736W        W39353   6.179   3.037  15.066 -0.0997  0.1359  0.0518
23737W        W39354   7.678  11.772  11.577 -0.1742 -0.0199 -0.1593
23738W        W39355   3.857  18.266  13.185  0.1274  0.1147  0.0338
23739W        W39356   2.769  11.566  14.834 -0.2884 -0.2950  0.0357
23740W        W39357   3.914   2.501  11.857  0.2137 -0.0823 -0.0135
23741W        W39358   3.742   0.547  11.199  0.2608  0.0913  0.0675
23742W        W39359   0.238  15.639   4.162 -0.2406 -0.2027 -0.0048
23743W        W39360  13.342  11.327  14.225  0.2222 -0.0431  0.1201
23744W        W39361   5.313   8.418  12.851  0.1323  0.2477 -0.0078
23745W        W39362  14.480  18.232   1.178 -0.4591 -0.0221 -0.5185
23746W        W39363  13.313  16.802   5.138 -0.0189  0.3300  0.0968
23747W        W39364   7.936  18.938   2.936  0.0609  0.6057 -0.0838
23748W        W39365  16.727  13.929  11.413 -0.1231 -0.0163 -0.1083
23749W        W39366   5.618  14.782  10.917  0.2290  0.2793  0.1550
23750W        W39367  15.507   3.529   4.287 -0.1981 -0.1509  0.3523
23751W        W39368  16.906   2.452   3.836  0.3542  0.3526  0.1346
23752W        W39369  13.375  17.026   3.735 -0.0690 -0.0405 -0.2942
23753W        W39370   3.083  16.682  14.492  0.2927 -0.1789 -0.2767
23754W        W39371  18.896  14.134   1.738 -0.1828 -0.1856  0.1915
23755W        W39372  16.450  12.632  12.091 -0.1374  0.0983  0.0554
23756W        W39373  11.747  15.148   0.124  0.0785 -0.3118  0.1547
23757W        W39374   2.074   4.086   0.869 -0.2234  0.0411 -0.1842
23758W        W39375  10.993  11.772   1.832 -0.0890 -0.3548 -0.0508
23759W        W39376   5.135  14.972  13.997  0.1467 -0.0947  0.1278
23760W        W39377   5.991  14.062   2.634  0.2960  0.3553  0.3085
23761W        W39378  12.633   6.020  11.357  0.3172 -0.2326 -0.3498
23762W        W39379   2.506   8.784   1.994  0.0554  0.1439  0.0127
23763W        W39380  14.928  19.079   0.249  0.0090 -0.2126  0.0412
23764W        W39381   3.495  13.962  11.153 -0.0311  0.2533  0.0698
23765W        W39382   7.325   6.760   5.863  0.3476 -0.2334  0.2146
23766W        W39383   9.871   6.939   3.655  0.3200 -0.0649 -0.0401
23767W        W39384   5.950   0.799   0.171 -0.1077  0.1104 -0.1958
23768W        W39385   5.765  12.905   2.891 -0.2091  0.1911  0.1926
23769W        W39386  13.516   3.934   2.092  0.1130  0.3227  0.3479
23770W        W39387  14.745   7.837  14.145  0.1423  0.1398  0.0362
23771W        W39388  12.851   0.430   2.409  0.0329  0.1169 -0.2294
23772W        W39389  15.915  14.352  15.181 -0.1173  0.1026  0.1792
23773W        W39390   8.800   5.338  14.939  0.1663  0.0626  0.0299
23774W        W39391  14.244  12.862   1.394 -0.4203 -0.3192  0.0160
23775W        W39392  13.071  18.762   0.680 -0.4146 -0.1043 -0.2833
23776W        W39393  18.225  16.700  11.937 -0.2153 -0.2782  0.0689
23777W        W39394   2.918   6.124  14.111 -0.2585 -0.3135  0.0093
23778W        W39395   6.075   7.456   1.007  0.3253  0.0709  0.1862
23779W        W39396   2.900   2.428   3.373  0.3050  0.2211 -0.2975
23780W        W39397  13.586  18.357   0.743 -0.0581  0.0105  0.1305
23781W        W39398  18.053   3.107  13.539  0.2347  0.1290  0.1059
23782W        W39399   1.840   1.669  14.206  0.2630  0.3289  0.3805
23783W        W39400   5.784  14.868   0.154  0.0901  0.1576  0.1791
23784W        W39401   2.444   3.371   2.331  0.1370  0.0471 -0.0107
23785W        W39402   5.959  15.435   4.850 -0.1423 -0.2121  0.0348
23786W        W39403  14.950   9.127   2.820  0.2435 -0.4594 -0.1405
23787W        W39404   1.155   0.854  11.186 -0.1069 -0.0206  0.0712
23788W        W39405   9.278   6.132   2.149  0.0423 -0.1429  0.2044
23789W        W39406  12.205   9.103  14.512 -0.0159  0.1374  0.1353
23790W        W39407  17.465  17.092   4.090 -0.1080 -0.1376  0.3654
23791W        W39408   0.511   9.381   4.035  0.1859  0.2892 -0.0898
23792W        W39409   1.595  18.421   5.662 -0.1107 -0.0191 -0.2307
23793W        W39410   3.285   6.177  11.472 -0.5033  0.0396 -0.1400
23794W        W39411  12.841   8.088  14.407  0.0687 -0.4253 -0.0383
23795W        W39412   4.455  16.890   1.921 -0.0186  0.0650  0.0602
23796W        W39413  15.010   6.511   0.291  0.1629  0.1486  0.1454
23797W        W39414  18.817   8.914   3.643  0.1614 -0.2505 -0.0989
23798W        W39415  13.900   5.497  11.510  0.2418  0.2493 -0.0950
23799W        W39416   5.005  13.797  10.875  0.2852 -0.1010  0.0071
23800W        W39417  10.567   5.574   3.456 -0.4747 -0.2557 -0.2038
23801W        W39418  14.797  11.921  12.839 -0.0476 -0.0534  0.1249
23802W        W39419   2.325  13.439   4.314  0.1302  0.3465  0.2954
23803W        W39420   1.378  14.485  12.187  0.1054 -0.1065 -0.1326
23804W        W39421  13.702  15.160   1.763  0.0008 -0.2670 -0.0022
23805W        W39422  15.358  13.013  11.404  0.2316  0.2023 -0.0427
23806W        W39423  11.100   8.556  12.520  0.0687 -0.0094  0.1745
23807W        W39424  13.714   8.472   4.393 -0.1661 -0.0586  0.0554
23808W        W39425   3.150   0.479  14.317  0.0945 -0.0858  0.2194
23809W        W39426  11.994   0.787   3.988 -0.1932 -0.4400 -0.0099
23810W        W39427  13.273  16.462  10.832  0.1417 -0.0438  0.0990
23811W        W39428  15.874   9.186  12.560 -0.0907  0.2579  0.2778
23812W        W39429  14.241   0.997  14.902  0.1458  0.3228  0.2570
23813W        W39430  17.808  16.415  10.324 -0.0950 -0.1063 -0.1562
23814W        W39431   6.728  18.262  11.918 -0.2869 -0.0427  0.1728
23815W        W39432  15.574  14.723   0.621  0.1443  0.0717 -0.0038
23816W        W39433   0.515   4.031  10.765 -0.0211  0.0121  0.1925
23817W        W39434  18.812   1.229   1.903 -0.1813 -0.2442 -0.2970
23818W        W39435   2.638   8.597  13.909  0.1465  0.0962 -0.1969
23819W        W39436  17.634   3.521  14.341  0.3654 -0.1826 -0.1288
23820W        W39437  14.964   7.563  10.127 -0.2515 -0.2662  0.2961
23821W        W39438   0.465  13.271  12.410 -0.0193 -0.1283  0.4432
23822W        W39439  11.191   6.639   4.246  0.1032 -0.0111 -0.3595
23823W        W39440  15.830  18.396  12.195  0.0937 -0.0942  0.1237
23824W        W39441   5.730  12.833   0.806  0.4198  0.2850 -0.0162
23825W        W39442   7.343  16.974  12.666 -0.1191 -0.0763 -0.0717
23826W        W39443  17.917   9.790   5.156  0.2346  0.1511 -0.3330
23827W        W39444  13.836  13.278   2.737  0.4077 -0.0092  0.0070
23828W        W39445   8.395   9.691  12.174  0.0095 -0.0806  0.0356
23829W        W39446   0.437  12.979  13.613 -0.0498  0.0162  0.1419
23830W        W39447  17.829   4.611   4.899 -0.4732 -0.1771  0.0409
23831W        W39448   7.321   9.175   3.321  0.0926  0.0632 -0.1319
23832W        W39449   9.558   7.867   3.785 -0.5503 -0.1570 -0.3827
23833W        W39450  13.413  12.647   1.627  0.4927  0.1069 -0.0235
23834W        W39451  10.917  11.782   3.073  0.0367 -0.1198  0.1263
23835W        W39452   5.277   2.313  14.142 -0.0766  0.0262 -0.0563
23836W        W39453   6.613   9.991  13.597 -0.4190  0.3149 -0.1705
23837W        W39454  14.816  15.058   3.964 -0.1708  0.2105  0.4109
23838W        W39455  14.158   6.414   9.293 -0.1103 -0.1293  0.0946
23839W        W39456  13.106  16.057   3.823  0.2832 -0.0064 -0.3265
23840W        W39457  12.990   2.186  15.033 -0.1069  0.0539  0.1317
23841W        W39458   5.322   0.423   2.381 -0.0018 -0.1808  0.5409
23842W        W39459  11.551  10.291  14.064 -0.0661 -0.4347 -0.1062
23843W        W39460   1.309  10.257   2.320  0.1305 -0.0328  0.1267
23844W        W39461  17.781   9.925  11.978  0.1496 -0.1436  0.1858
23845W        W39462  15.925   0.533   2.202  0.4158  0.1609  0.1150
23846W        W39463   6.542  10.308  14.881 -0.0974 -0.0761 -0.0623
23847W        W39464  10.172  16.289  11.707  0.0258 -0.0220  0.4011
23848W        W39465  12.390  14.552  13.447  0.1113 -0.0260 -0.0237
23849W        W39466  18.239  18.417   4.935  0.1426  0.1502 -0.0697
23850W        W39467  16.493  11.535  14.537 -0.1517  0.3357  0.2224
23851W        W39468  18.171   1.310  15.253  0.1628  0.0082  0.0127
23852W        W39469   1.084   3.148   4.526 -0.0452 -0.0874 -0.0642
23853W        W39470   0.441  13.855  13.547  0.1699  0.1730 -0.1779
23854W        W39471   4.606   1.383  13.922 -0.0060  0.0182 -0.1498
23855W        W39472  13.387  11.629   5.826  0.2470 -0.0672  0.1424
23856W        W39473  11.853   8.530   2.472 -0.0995  0.0704 -0.1662
23857W        W39474  17.190  17.296  13.499  0.1507  0.0745  0.6225
23858W        W39475   6.269  16.230   1.869 -0.0054 -0.2311 -0.0409
23859W        W39476   0.431  15.184   2.752 -0.0062 -0.1820 -0.1284
23860W        W39477   6.954   2.659   1.499  0.2746 -0.2408  0.1017
23861W        W39478  18.299  18.856  12.742 -0.1534 -0.2203 -0.3061
23862W        W39479   2.508   5.930  10.931 -0.0898  0.0758  0.0932
23863W        W39480  10.829   8.695  15.148  0.3152 -0.3366 -0.0706
23864W        W39481  14.309  10.626   1.119 -0.1186  0.0786  0.2234
23865W        W39482  13.294  14.355   4.196 -0.1820  0.3113 -0.3547
23866W        W39483   2.730  13.808   2.536  0.0771  0.2083  0.0608
23867W        W39484   3.271  18.987   4.172  0.0866  0.0015 -0.3664
23868W        W39485   7.152   0.459  14.203  0.5429  0.1077  0.3388
23869W        W39486   7.749   4.350   2.133  0.1419 -0.2242  0.1396
23870W        W39487   1.720  12.894   0.891 -0.0364 -0.2823 -0.0552
23871W        W39488   1.750   8.129   2.966 -0.0652 -0.1658 -0.1252
23872W        W39489  17.544   7.036   1.560  0.3647 -0.0654  0.0241
23873W        W39490   6.484  14.704   2.117 -0.2489  0.3406 -0.1304
23874W        W39491   1.327   9.385   2.207  0.1838  0.2163 -0.2598
23875W        W39492  12.630  14.938  13.069 -0.1793  0.4545  0.1675
23876W        W39493   7.249   0.993  13.602  0.4140 -0.0608 -0.4085
23877W        W39494  11.831  10.540   1.380 -0.1815 -0.2132  0.1798
23878W        W39495   8.967   7.697   4.883 -0.2981 -0.0683 -0.0004
23879W        W39496   9.538  11.860  14.732 -0.1575  0.0235  0.0031
23880W        W39497  12.659   7.101  12.488 -0.2641  0.1954  0.0827
23881W        W39498  17.027  17.695  14.653 -0.1019 -0.0051  0.0592
23882W        W39499   9.185   0.461   2.744  0.5072 -0.0564 -0.1085
23883W        W39500   2.938  13.200   1.006  0.3072  0.1324 -0.0207
23884W        W39501   6.263  11.284  10.641 -0.5378  0.2086 -0.2257
23885W        W39502  15.757   6.237   2.719 -0.0771 -0.1512 -0.0326
23886W        W39503  17.616   7.581   1.706 -0.0750  0.1614  0.2084
23887W        W39504   4.825   9.398   2.878  0.5866  0.0579  0.0433
23888W        W39505  16.761   9.709  13.890  0.0764 -0.2409  0.1551
23889W        W39506   6.674  16.700  13.370 -0.0728  0.0658  0.0906
23890W        W39507   7.651   3.864   0.373  0.0811 -0.0058 -0.2910
23891W        W39508   8.135   7.797   0.237 -0.0278 -0.0934  0.1629
23892W        W39509   2.669   0.113  11.311 -0.0526  0.1483 -0.0169
23893W        W39510  13.698   4.869   1.075 -0.0747  0.0687 -0.0996
23894W        W39511  13.535   6.485   2.334  0.2667  0.0052 -0.1429
23895W        W39512  11.161   9.220   3.108 -0.0505  0.0181 -0.1008
23896W        W39513   9.533   2.424  12.999  0.0584 -0.3481  0.0842
23897W        W39514  10.993   1.734   9.689  0.3324  0.6204 -0.0620
23898W        W39515   9.016   6.142  13.538 -0.0201 -0.4684 -0.0945
23899W        W39516   5.042   6.725   2.855  0.0633  0.0762 -0.1929
23900W        W39517  17.016  13.452  14.354 -0.2068 -0.0077  0.1358
23901W        W39518  11.900  13.783  14.082 -0.1331 -0.1057  0.1421
23902W        W39519  11.962   5.672  15.194 -0.1073  0.1934  0.2696
23903W        W39520  14.221   6.290  11.937 -0.2738 -0.5272  0.1391
23904W        W39521  17.435   8.030   0.363 -0.0317 -0.1968 -0.0406
23905W        W39522   3.731  14.262   0.900  0.3979 -0.0278  0.0263
23906W        W39523   4.392   6.629  14.961  0.1410  0.3009 -0.1197
23907W        W39524  11.108   6.209   3.114  0.0521  0.1646 -0.0915
23908W        W39525   9.341   4.173  10.503  0.0679 -0.2447 -0.1888
23909W        W39526   7.180   2.120  15.185 -0.2734  0.0628 -0.2167
23910W        W39527  17.308  18.651   5.033  0.0451 -0.0951  0.0409
23911W        W39528  11.578  17.377   3.030 -0.2131 -0.0028  0.1217
23912W        W39529  14.115   6.075   2.867 -0.2641 -0.0050 -0.2338
23913W        W39530   0.657  12.331  13.060  0.0364 -0.0089 -0.3924
23914W        W39531   8.167   5.776   4.936  0.0781  0.0110  0.0084
23915W        W39532   2.576   9.161   5.196 -0.1915  0.1939  0.1636
23916W        W39533  18.588  17.738  11.309  0.0812 -0.1355 -0.2610
23917W        W39534  18.394  14.777   1.407  0.2098 -0.0764 -0.1594
23918W        W39535   7.455   2.714   5.115 -0.2170 -0.2695 -0.3110
23919W        W39536   8.353   9.173   0.172 -0.0959  0.3058  0.1398
23920W        W39537   9.884   4.726  10.672  0.0998  0.0959 -0.0822
23921W        W39538   6.558  18.357  14.886  0.0332 -0.2622 -0.2360
23922W        W39539   8.489  10.850   2.322 -0.1265  0.0798  0.1384
23923W        W39540   8.501  14.666   5.043  0.0636 -0.0486 -0.4249
23924W        W39541  14.004  12.593   0.882  0.2336 -0.3639  0.1590
23925W        W39542   6.871  13.695  13.866  0.0969  0.1881  0.1082
23926W        W39543  13.819   5.883  12.960 -0.0190  0.0857  0.2407
23927W        W39544  13.389   8.037  10.505 -0.0916 -0.1105  0.1990
23928W        W39545   6.889   7.081   0.641 -0.0028  0.2965  0.0114
23929W        W39546  11.004   9.109  12.437 -0.1860  0.3524 -0.2241
23930W        W39547  12.868  19.023   2.805  0.0289  0.0927  0.1847
23931W        W39548   9.244   9.107  14.282  0.2528 -0.0144  0.2241
23932W        W39549   7.739  10.283  14.443 -0.2519  0.2150  0.1560
23933W        W39550   5.271   6.534   4.445 -0.1817 -0.1054 -0.0753
23934W        W39551   6.669  13.740   1.315  0.1124 -0.1448  0.2354
23935W        W39552  18.410   0.644  11.418  0.2121 -0.2363  0.0702
23936W        W39553   9.725   9.611  12.817  0.2028 -0.0210 -0.0087
23937W        W39554   3.744  14.849   3.192  0.1052 -0.1789 -0.1011
23938W        W39555   3.511   0.740   5.318 -0.3885  0.2655 -0.0678
23939W        W39556  13.990   2.086   2.232  0.1558 -0.2293 -0.0226
23940W        W39557   4.453  11.560  10.530 -0.0463 -0.1871  0.2156
23941W        W39558   5.898  14.798  14.531 -0.1029 -0.2039  0.2405
23942W        W39559  16.024  17.690   3.274  0.0958  0.1319 -0.1234
23943W        W39560  17.639   6.880  12.610  0.2324 -0.2273 -0.1617
23944W        W39561  11.277  18.330  10.425 -0.0378 -0.0170 -0.0103
23945W        W39562   6.654  14.829  11.262  0.0506  0.1297 -0.2245
23946W        W39563   5.274  16.914   0.755  0.1922 -0.0432  0.2918
23947W        W39564  11.096   7.186   9.672  0.0955  0.1121  0.0313
23948W        W39565  11.787  16.668   0.891  0.1048 -0.1885 -0.0167
23949W        W39566  18.924   6.830   3.716 -0.2473 -0.0008 -0.3235
23950W        W39567  17.810   9.861  10.471 -0.0246 -0.1156 -0.1112
23951W        W39568  15.244   6.180  14.555 -0.0163  0.3291 -0.1024
23952W        W39569   8.528   8.367   2.243 -0.2849  0.0451  0.1141
23953W        W39570   3.280  11.993   2.814 -0.1279  0.0053 -0.2264
23954W        W39571   0.544   0.085  11.078 -0.0891  0.3112 -0.0929
23955W        W39572  14.227  12.688  14.383  0.0013 -0.0445  0.0583
23956W        W39573   6.074   7.194   4.673 -0.1297  0.0930  0.0373
23957W        W39574   3.100  11.612  12.519 -0.1063 -0.2183  0.1112
23958W        W39575  18.219   8.221  10.928 -0.2931  0.0062  0.1011
23959W        W39576   1.359  15.101  15.288  0.0373 -0.4021  0.1911
23960W        W39577  12.667  11.456   5.119  0.3277 -0.1241  0.1724
23961W        W39578   8.555  13.166   0.026 -0.1141  0.0315 -0.0119
23962W        W39579   6.987   0.390  12.271  0.1556  0.0406 -0.0101
23963W        W39580   3.036  10.281   2.403 -0.1238 -0.1717  0.1934
23964W        W39581   5.029  15.705  12.652  0.1436  0.2896 -0.0221
23965W        W39582   3.892  17.570  14.071 -0.1028 -0.2005  0.0037
23966W        W39583   8.660   4.600   3.809  0.0491 -0.2555  0.4960
23967W        W39584  13.189   1.154   1.499  0.4094  0.0378  0.0230
23968W        W39585  13.073   6.839  13.264  0.1740 -0.0289 -0.3050
23969W        W39586  17.699   2.102  13.293 -0.0239 -0.3259  0.0219
23970W        W39587   4.462   4.415   2.016  0.1362 -0.1300 -0.0411
23971W        W39588  16.262   4.975   1.375 -0.0013 -0.1190  0.1262
23972W        W39589   2.556  16.817   0.848 -0.2233  0.1110  0.0309
23973W        W39590  18.976   0.553  11.463 -0.0158 -0.2434 -0.1917
23974W        W39591   4.659  16.821  12.507  0.0219  0.1064 -0.0890
23975W        W39592   8.296  13.209  10.651 -0.1081 -0.0992 -0.2194
23976W        W39593  11.864   8.143   0.559 -0.0653 -0.0327  0.0096
23977W        W39594  18.116   6.700  14.869 -0.3530 -0.0376 -0.1220
23978W        W39595   2.980  18.763   2.686 -0.0037 -0.2645  0.0400
23979W        W39596   1.459  14.273  14.369  0.3068 -0.1694 -0.0255
23980W        W39597   6.480   2.578  14.332  0.0446 -0.1439  0.0132
23981W        W39598  18.695  15.565   1.871  0.1672 -0.0947 -0.0491
23982W        W39599   4.797  14.547   3.135 -0.1694  0.1323 -0.0791
23983W        W39600   9.619  13.176  10.359  0.2711  0.1991  0.0707
23984W        W39601  16.979   9.159  10.759  0.0840  0.1771 -0.2804
23985W        W39602   2.801   3.349   1.698 -0.2493 -0.1187  0.3423
23986W        W39603   4.355  12.014  13.927 -0.0304  0.1337 -0.2194
23987W        W39604   0.918   9.525  15.262 -0.1149 -0.1597  0.2244
23988W        W39605  13.935  14.026   2.287 -0.1424 -0.1056 -0.1752
23989W        W39606   6.213  11.405   0.380  0.2586 -0.3312  0.3388
23990W        W39607  11.203  15.376  13.143 -0.3511  0.3451  0.3502
23991W        W39608  11.372   5.868  13.813 -0.2422 -0.1057 -0.0645
23992W        W39609   3.213   3.234   4.673  0.1911 -0.0402  0.1151
23993W        W39610   6.734   8.614  15.055  0.0632 -0.0754  0.0209
23994W        W39611   0.834  16.125   1.256 -0.2914  0.1299 -0.4361
23995W        W39612  15.208   6.988   1.343 -0.2228 -0.2575 -0.0252
23996W        W39613   8.239  11.212   2.115 -0.0340  0.1168  0.0604
23997W        W39614   9.298  14.592   0.487  0.0194  0.0992  0.2967
23998W        W39615  19.004   8.637  15.254 -0.3579 -0.3006 -0.0078
23999W        W39616   9.625  10.837   1.809 -0.0650 -0.3682 -0.1657
24000W        W39617  13.432  14.859  11.832  0.0773 -0.0431 -0.0370
24001W        W39618   7.187  13.261  12.607 -0.0351 -0.1650 -0.1532
24002W        W39619   5.974  17.633   1.956  0.2283  0.0938  0.1087
24003W        W39620   4.226  10.681   1.743 -0.1192  0.1371 -0.0950
24004W        W39621  15.871   5.643  13.652  0.2464  0.0538 -0.0517
24005W        W39622   0.165   5.943  11.810 -0.0243 -0.3530 -0.2043
24006W        W39623   0.726  11.075   2.444 -0.2475 -0.1069  0.1965
24007W        W39624  12.471   6.030   9.507  0.2166 -0.0626  0.0952
24008W        W39625  18.170   3.313  15.046  0.1028  0.0052  0.1815
24009W        W39626  18.226  16.944   2.473 -0.0158 -0.0133  0.1371
24010W        W39627   1.141   5.011  11.867  0.1399  0.1462  0.4328
24011W        W39628   7.055  18.311   0.937 -0.4101  0.0169 -0.0033
24012W        W39629  13.457   8.361   1.461 -0.0873  0.4556 -0.0206
24013W        W39630  15.869   7.009  13.875 -0.0103  0.1903  0.1741
24014W        W39631  17.719  17.461  14.155 -0.2803 -0.2559 -0.2041
24015W        W39632  10.093   7.000  14.352 -0.0893  0.1427  0.1290
24016W        W39633   9.404  14.012  10.585 -0.0639  0.2935  0.0463
24017W        W39634  18.557   6.411   5.250 -0.0400 -0.0682  0.0527
24018W        W39635  15.803   5.357   0.011  0.1281 -0.0602  0.3862
24019W        W39636  14.686  13.102  13.682 -0.1340 -0.0202 -0.2822
24020W        W39637   0.087   5.388   0.238  0.0500  0.2651  0.0944
24021W        W39638  17.998   1.268   4.862  0.0557 -0.0143  0.1537
24022W        W39639   9.298   4.683   1.883 -0.0665 -0.1273 -0.0849
24023W        W39640   5.672  15.927   2.151 -0.2853  0.3655 -0.2613
24024W        W39641   7.598  14.998   4.396 -0.1670  0.0136 -0.0504
24025W        W39642  17.847   6.608   3.517  0.1264 -0.0360 -0.0290
24026W        W39643   9.385   2.250   5.147  0.4155 -0.2510  0.0910
24027W        W39644   0.720  16.464  10.824 -0.0541  0.0555  0.0663
24028W        W39645   2.735  17.150  11.229  0.0281  0.2133  0.2209
24029W        W39646  15.266  16.015   0.453  0.2946 -0.0540  0.2697
24030W        W39647   1.185   1.405   3.865  0.1680 -0.1403 -0.0202
24031W        W39648  12.693  11.967  14.463 -0.1861  0.1473 -0.0949
24032W        W39649  16.815  11.429   4.679  0.1288 -0.2230 -0.1200
24033W        W39650   3.581  14.949   0.916  0.4533 -0.1053 -0.1580
24034W        W39651   1.391   1.849  15.239 -0.0790  0.1705  0.3958
24035W        W39652   0.449  11.595   2.814 -0.1680 -0.0656  0.4954
24036W        W39653   7.215   6.828   1.022 -0.2444 -0.1596  0.2106
24037W        W39654   4.948  16.259   3.990  0.3748 -0.1958  0.0674
24038W        W39655   7.664   8.407  14.184  0.2023 -0.0845 -0.0297
24039W        W39656  16.355  16.578   1.486  0.0814 -0.1277 -0.1392
24040W        W39657  16.130   2.471   1.192 -0.2747  0.0437 -0.1066
24041W        W39658  13.843  10.925  11.251 -0.0622  0.3113  0.1217
24042W        W39659  18.561   0.552  12.331  0.1059 -0.3118 -0.1627
24043W        W39660   7.485   6.364   0.735  0.3622 -0.0337  0.2484
24044W        W39661  11.095  10.794   1.953 -0.3165 -0.0462 -0.1042
24045W        W39662  15.036   8.316  11.266  0.1299  0.1083 -0.3660
24046W        W39663   4.603   8.916  11.090 -0.1059  0.2197 -0.0860
24047W        W39664   5.025   8.814   0.458  0.1048  0.3249 -0.2750
24048W        W39665  10.532   1.054  13.073 -0.1639  0.3074  0.0027
24049W        W39666   4.318  19.038   0.259  0.0613  0.1004  0.3089
24050W        W39667   8.322   1.917  13.230 -0.0378 -0.1996  0.3624
24051W        W39668   0.134  13.896   1.293  0.0006 -0.1992  0.2148
24052W        W39669   8.021   6.242   0.527  0.2360 -0.0593  0.2140
24053W        W39670   6.206   8.481  14.098  0.0858  0.1797  0.2353
24054W        W39671  17.370   3.663   2.963 -0.0421  0.4732  0.0637
24055W        W39672  17.170   9.991   3.375 -0.0377  0.0065 -0.0228
24056W        W39673  11.390  13.388   2.087 -0.1320  0.4817  0.1097
24057W        W39674   4.439   2.717  11.557 -0.2206  0.1454 -0.5254
24058W        W39675  10.790  13.775   4.212 -0.1786 -0.1030  0.1439
24059W        W39676  13.320   9.821  13.147 -0.1024 -0.1126  0.0517
24060W        W39677   9.477  13.535   2.482 -0.0506  0.0636 -0.1133
24061W        W39678   1.849   2.396  12.415 -0.0890 -0.0603 -0.0190
24062W        W39679  14.724   8.464  13.530 -0.2867 -0.0439  0.2496
24063W        W39680  12.852   1.039  10.909 -0.0328  0.0556 -0.0373
24064W        W39681  10.292  11.561  13.470 -0.2597  0.0957  0.1247
24065W        W39682   9.799  10.858   2.776 -0.1717  0.1238 -0.0194
24066W        W39683  11.448  16.572   1.834  0.1201  0.0782  0.4557
24067W        W39684   9.345   0.421  14.680 -0.0687  0.2452  0.4504
24068W        W39685   7.300   1.456  12.922 -0.1290 -0.1780 -0.4901
24069W        W39686  10.047   4.454  13.689 -0.0917 -0.0893  0.2101
24070W        W39687  12.910   9.494   2.410  0.3093  0.2820  0.2610
24071W        W39688   0.887   2.192   3.517 -0.4933 -0.3587 -0.0476
24072W        W39689   1.026  17.343   2.684 -0.0360  0.2394  0.0040
24073W        W39690   3.697  14.710  12.866 -0.0488 -0.1889  0.1470
24074W        W39691   6.814  12.713  13.881 -0.3398  0.0883  0.1743
24075W        W39692  13.626  11.338  12.823 -0.0262  0.2759 -0.0923
24076W        W39693  11.710  16.592  14.809 -0.4531  0.2315  0.0765
24077W        W39694  10.871   6.230  12.712 -0.0169 -0.0872 -0.0907
24078W        W39695   4.152  16.341  12.876  0.0709  0.0070  0.1623
24079W        W39696   3.272   9.597  13.591  0.2269  0.0475 -0.1695
24080W        W39697  18.658  18.314   3.794  0.0840  0.0633 -0.3890
24081W        W39698   1.523  18.351   0.115 -0.2833 -0.0791  0.0097
24082W        W39699  16.255  12.462   2.512 -0.0537  0.0500 -0.3313
24083W        W39700   1.467   2.963  11.636 -0.0333  0.0466 -0.1721
24084W        W39701  11.955   5.804  12.991 -0.0534 -0.3485 -0.2144
24085W        W39702  12.909  11.612   3.961 -0.3638 -0.1515  0.4600
24086W        W39703   5.724  11.439   4.846  0.1791  0.1109 -0.1546
24087W        W39704  14.970  12.503  13.649  0.2964 -0.0372  0.0172
24088W        W39705   7.187   7.287   4.528 -0.0489 -0.2130 -0.0507
24089W        W39706  10.512   7.033  11.676  0.2325 -0.1277 -0.0335
24090W        W39707  15.514  11.946   5.126  0.1887 -0.1773  0.0467
24091W        W39708  11.349   9.728  10.849 -0.0887  0.2306 -0.1685
24092W        W39709  16.123   4.567   3.783 -0.1236  0.0190  0.0350
24093W        W39710   3.457  14.401  13.712  0.1281 -0.2666 -0.2576
24094W        W39711   2.090  18.338   3.442 -0.1226  0.1191  0.0123
24095W        W39712   4.561  14.511  12.349 -0.1076 -0.1940 -0.0367
24096W        W39713  18.347   9.756   3.629 -0.4751 -0.3970 -0.0686
24097W        W39714  10.674   6.649  13.163  0.0907 -0.0245  0.1314
24098W        W39715  13.772  11.574  14.941 -0.0625  0.1359  0.1933
24099W        W39716   0.883   9.641  10.844 -0.1141 -0.2428  0.3075
24100W        W39717  12.785  15.384   5.216 -0.1456  0.1808  0.1577
24101W        W39718   2.921   8.113  10.814 -0.2630 -0.0249 -0.0267
24102W        W39719  10.196  18.096  15.068 -0.0084 -0.1841  0.0246
24103W        W39720   7.046  14.525  13.379  0.4175 -0.3331 -0.0867
24104W        W39721  17.997  14.306   2.185 -0.1523  0.0481 -0.4489
24105W        W39722   9.558   9.923   2.659 -0.1361  0.2306 -0.1787
24106W        W39723  18.697  15.252  12.374  0.0020  0.1381  0.4138
24107W        W39724   0.392  17.900  11.438  0.2107 -0.0267 -0.2815
24108W        W39725   5.439  10.527  11.993  0.2006 -0.2687  0.3012
24109W        W39726  18.920   1.050   0.945  0.2940 -0.2939  0.0307
24110W        W39727  12.767  17.184  12.007  0.1976 -0.2871  0.0434
24111W        W39728   2.299  11.670   0.426  0.3974  0.1027  0.2720
24112W        W39729   1.761  16.016  14.187 -0.0015 -0.0362 -0.2256
24113W        W39730  13.787   5.682   0.919  0.0650 -0.0282 -0.0238
24114W        W39731  14.790  18.015  14.657  0.4857  0.1179 -0.0368
24115W        W39732   0.402   1.952  11.366 -0.3155 -0.0589 -0.1266
24116W        W39733   6.156  16.838   3.245 -0.4484  0.0866  0.2716
24117W        W39734  12.940  13.584  11.340 -0.1492 -0.1734  0.1479
24118W        W39735   0.771  14.795   2.745 -0.0466  0.5880 -0.3035
24119W        W39736  16.215   3.183  11.172  0.0254 -0.1474  0.1407
24120W        W39737   4.896   5.727  14.885  0.3236 -0.0557  0.2440
24121W        W39738   0.530   6.019   0.618 -0.0347  0.0209  0.1667
24122W        W39739   3.919  17.423  12.959  0.0011  0.1130 -0.2826
24123W        W39740  16.120  12.327  14.069 -0.2118 -0.3606 -0.1976
24124W        W39741   5.215   1.249  11.364  0.1285  0.3061 -0.0177
24125W        W39742   1.454  14.177  10.750 -0.0871  0.1006  0.3756
24126W        W39743  14.374   2.006  14.398 -0.0796  0.1414  0.2163
24127W        W39744  13.340  14.685  14.346 -0.1280 -0.3476 -0.0361
24128W        W39745  17.565   0.377  14.804  0.3387  0.2092  0.2303
24129W        W39746   1.285   0.385   4.436 -0.2452 -0.0849 -0.1925
24130W        W39747   3.135   7.538   2.371 -0.2259  0.2011  0.3033
24131W        W39748  11.002   3.980  10.445  0.2357  0.1285 -0.1618
24132W        W39749  12.311  11.585  13.062  0.0196 -0.1382 -0.0000
24133W        W39750   3.108   4.215   3.642  0.0831  0.2452 -0.1532
24134W        W39751  13.717   1.113   2.366 -0.0265  0.1358  0.0092
24135W        W39752   0.188  10.970  11.348 -0.1373  0.0685  0.3266
24136W        W39753   7.766   3.512   3.463  0.1158  0.0950  0.0388
24137W        W39754   0.435  11.741   3.436 -0.1193 -0.0432 -0.0449
24138W        W39755  16.793   3.054   2.072 -0.0825  0.0756  0.0844
24139W        W39756   0.400   4.906  13.696  0.0185  0.0887 -0.0658
24140W        W39757  17.872  11.131   2.612  0.1176 -0.0003  0.1032
24141W        W39758  17.720   7.936  13.162  0.3279 -0.0278 -0.1461
24142W        W39759   3.565  19.000   1.509 -0.3441  0.1213 -0.2517
24143W        W39760  16.466   1.513   0.039  0.2182 -0.2200 -0.1439
24144W        W39761  13.822   8.758   1.573 -0.0984 -0.0020 -0.3217
24145W        W39762  17.433   3.641  14.820 -0.1103 -0.1192  0.1150
24146W        W39763   8.564   5.995  11.509  0.3223 -0.3242  0.0461
24147W        W39764  17.087  16.204  11.442  0.0459 -0.2118  0.0741
24148W        W39765  12.946  10.648  13.977 -0.1017 -0.5803 -0.1153
24149W        W39766   7.839   4.538   5.239 -0.0484  0.0841 -0.2708
24150W        W39767  18.132  17.136  12.432  0.2474 -0.1037  0.0710
24151W        W39768  17.237   9.083   5.904  0.1908 -0.2650  0.0899
24152W        W39769   2.668  15.835  10.488  0.1886 -0.1869 -0.5506
24153W        W39770   2.078   2.693  14.293  0.2579 -0.1329 -0.0644
24154W        W39771   4.261   7.526   0.129 -0.2842  0.0666  0.0015
24155W        W39772   2.045  12.639  10.531 -0.1177 -0.3004  0.2439
24156W        W39773  15.644   2.566   9.966 -0.3702 -0.2134  0.4728
24157W        W39774  12.382   8.371   4.368  0.3596  0.1175 -0.0765
24158W        W39775  12.734   8.055  13.916 -0.4455 -0.0010  0.1262
24159W        W39776   4.709   7.515  12.873 -0.2588  0.1683 -0.2451
24160W        W39777  13.362  15.337   2.478 -0.1349  0.0056 -0.0118
24161W        W39778   8.991   7.070   5.070 -0.0135 -0.3877 -0.0506
24162W        W39779   9.356   6.978   0.936 -0.0906 -0.1860 -0.3340
24163W        W39780  13.980   5.574  14.868  0.0734  0.2017  0.2704
24164W        W39781   8.065   0.984   4.870  0.2556 -0.0707 -0.0480
24165W        W39782  18.907  16.995   3.948  0.2519  0.0961  0.2857
24166W        W39783   3.611   3.534   1.171 -0.3632 -0.0597  0.1662
24167W        W39784   4.728  17.255   5.395  0.0707  0.0780  0.3818
24168W        W39785  13.203   8.905  12.967  0.0826  0.0659  0.0738
24169W        W39786   3.371   8.011  11.312 -0.3139 -0.0942 -0.2700
24170W        W39787  13.526  15.787  11.500 -0.2107  0.3506  0.0122
24171W        W39788   8.510   1.373   4.257 -0.2366 -0.2153  0.0722
24172W        W39789   2.076  18.077  10.719 -0.1441  0.2027 -0.0830
24173W        W39790  16.274   6.763   3.326  0.2194 -0.0670  0.0714
24174W        W39791  14.567   6.566  12.175  0.4109  0.0002 -0.2165
24175W        W39792   4.488   3.991  11.572  0.4720  0.0848 -0.2636
24176W        W39793   5.960   2.200  13.071 -0.1117  0.1163  0.0837
24177W        W39794  17.714  14.140  10.757  0.3127  0.0204 -0.0034
24178W        W39795   9.394   5.313   0.824 -0.1752  0.3319 -0.0188
24179W        W39796   7.492   2.603   2.990 -0.2813  0.1525 -0.4288
24180W        W39797   4.653   4.883   2.134  0.1550  0.1485 -0.2121
24181W        W39798   6.904   0.546  12.834  0.0138  0.0777  0.2918
24182W        W39799  14.670   6.819  14.397 -0.0686 -0.2390  0.0865
24183W        W39800  13.636  13.686  11.901 -0.1869 -0.0169 -0.1390
24184W        W39801  15.486   6.857   3.933 -0.0297  0.1679  0.2839
24185W        W39802   0.320   5.837   1.085 -0.2354  0.3732  0.0116
24186W        W39803   3.814  10.526  10.050 -0.2180 -0.1087  0.2102
24187W        W39804   1.320   9.097  12.854  0.0602  0.2487 -0.1947
24188W        W39805   5.319  12.665   1.384  0.2058  0.1146 -0.0780
24189W        W39806  15.957   5.722   1.426 -0.0286  0.0380  0.0345
24190W        W39807   6.222  12.568   1.107 -0.2447 -0.1194 -0.2124
24191W        W39808   7.913  11.537   4.070  0.1130 -0.1648 -0.4080
24192W        W39809   8.578  10.495  14.059  0.1065 -0.4663 -0.0903
24193W        W39810  12.377   3.025   2.274  0.0047  0.0168  0.1094
24194W        W39811   1.673   7.207   4.127  0.0471 -0.2528 -0.1630
24195W        W39812   7.379   6.399   1.363 -0.0969  0.0001  0.0170
24196W        W39813  17.569  11.126  11.292 -0.0645 -0.1993 -0.1636
24197W        W39814   4.374  13.386  13.093 -0.0002 -0.5453  0.2576
24198W        W39815  15.364   5.676  13.686  0.1416  0.0627 -0.0633
24199W        W39816  13.459   3.123  10.561 -0.1382  0.3969 -0.0417
24200W        W39817  10.635   3.339  11.792  0.0455  0.1273  0.0260
24201W        W39818   5.221   1.819   5.578 -0.1784 -0.3990  0.0170
24202W        W39819   5.630   6.023   3.508 -0.2334 -0.0251 -0.0841
24203W        W39820   0.358  13.476  15.268  0.4062 -0.1978  0.3569
24204W        W39821  10.436   0.036  11.200  0.1744 -0.1222 -0.3598
24205W        W39822  17.171  14.506  14.312 -0.2913  0.0435 -0.0548
24206W        W39823   1.485   3.750   3.410 -0.0333  0.0658  0.0359
24207W        W39824  17.469   4.176  10.872 -0.1627 -0.1727 -0.1797
24208W        W39825  11.387  15.831  14.558  0.4719  0.0846  0.1413
24209W        W39826  12.984   3.571  12.058  0.2789  0.1884 -0.1152
24210W        W39827  17.335  11.357  14.714  0.3002 -0.1448 -0.2069
24211W        W39828  14.810   1.333   4.705 -0.0499  0.0089 -0.0150
24212W        W39829   0.683   6.893   3.924 -0.2772 -0.0963  0.3712
24213W        W39830   9.916  16.748  11.268  0.3517  0.0193 -0.0731
24214W        W39831  12.878   3.926  10.515 -0.1126  0.0088  0.0006
24215W        W39832  16.893   1.830   1.012 -0.3139 -0.1459 -0.3091
24216W        W39833   4.617   0.604  12.060  0.0995  0.2671 -0.1267
24217W        W39834   7.857  14.163  13.774 -0.3147  0.3634 -0.1027
24218W        W39835   6.631  18.017   4.987 -0.3274  0.0895  0.1684
24219W        W39836   2.420  14.075   0.217  0.0389  0.1389 -0.2273
24220W        W39837  15.851   6.160   0.329 -0.2121 -0.0028 -0.1569
24221W        W39838  10.857  16.364   2.923 -0.1649  0.6555 -0.2047
24222W        W39839  15.125  13.716  12.207  0.1783  0.0788  0.1317
24223W        W39840  18.978  18.585  10.059  0.1462  0.0429  0.0969
24224W        W39841   3.218   0.829  11.563  0.1743  0.2466  0.0496
24225W        W39842   6.553  16.045   4.598  0.0135  0.0087 -0.3934
24226W        W39843  14.558   6.543   4.770 -0.2957 -0.0090 -0.0597
24227W        W39844  18.816  18.649  11.382 -0.2695 -0.0054 -0.2565
24228W        W39845   5.293  18.399   1.568  0.0029  0.3477  0.0276
24229W        W39846   4.983   0.183  14.680  0.1126  0.1396 -0.0851
24230W        W39847  13.829   0.564   4.094 -0.1131  0.2182 -0.2811
24231W        W39848  15.357   5.383   9.565  0.0531  0.0551  0.2434
24232W        W39849   6.885   8.014   5.123 -0.3588  0.0113 -0.0431
24233W        W39850  11.180   3.536   3.247  0.0347  0.1254 -0.2406
24234W        W39851  18.824   3.231   5.392  0.1548 -0.1105 -0.1074
24235W        W39852   8.430   9.699   0.549 -0.1971 -0.0646  0.0303
24236W        W39853  10.819  16.716   4.389  0.0506 -0.1941 -0.1287
24237W        W39854  18.055  15.446  12.911  0.0370 -0.2805  0.1874
24238W        W39855   6.979   9.049   5.076 -0.0846  0.2531  0.0143
24239W        W39856  15.399  18.477   4.217  0.4117 -0.4733 -0.1281
24240W        W39857  10.288  17.967   1.194  0.1972  0.0972  0.1096
24241W        W39858   8.498   4.604  11.837 -0.0374 -0.3193 -0.2383
24242W        W39859  15.473  13.786   0.016 -0.2412 -0.0069 -0.0617
24243W        W39860  16.497  14.047   1.796 -0.2402 -0.2625 -0.2650
24244W        W39861  18.691   0.902  14.833 -0.3558 -0.0445  0.1360
24245W        W39862  13.927   8.053   3.666 -0.0111  0.0072  0.0429
24246W        W39863   6.068  11.597  15.183  0.1174 -0.2060  0.1121
24247W        W39864  15.984   7.050   4.779  0.2935  0.0717  0.0455
24248W        W39865   2.227   6.080  13.286 -0.0521 -0.2731  0.5310
24249W        W39866  17.435  13.830  11.151 -0.0401 -0.3857 -0.0156
24250W        W39867   0.356  10.275  13.264  0.1994 -0.0852  0.2594
24251W        W39868  15.980   2.852   0.004 -0.0858 -0.1756 -0.1863
24252W        W39869  10.224   9.516  15.121  0.1372  0.1107  0.1703
24253W        W39870  18.689   0.303   4.644 -0.0454  0.0520  0.0056
24254W        W39871   6.654   2.137  11.058  0.4692  0.0927 -0.0005
24255W        W39872   8.471  14.131   2.128  0.2648  0.1403 -0.1608
24256W        W39873  18.581   3.301   4.490  0.0391  0.2317  0.0727
24257W        W39874  14.213   3.653  11.283 -0.1518  0.1998 -0.0717
24258W        W39875   6.137  13.251  11.755 -0.0881  0.2559  0.2242
24259W        W39876  10.182   4.283  10.484 -0.0130 -0.1043  0.0091
24260W        W39877   0.829  15.760  12.147 -0.1439  0.1263  0.0147
24261W        W39878  18.250  12.258   2.068 -0.0107  0.1770  0.1498
24262W        W39879   3.303   8.185  15.237  0.1408 -0.0226 -0.2277
24263W        W39880  11.961   7.712  15.089 -0.1430  0.2369 -0.0330
24264W        W39881  12.358  12.182  14.829 -0.1056  0.3429 -0.0235
24265W        W39882   6.063   9.632  13.094 -0.1779 -0.1697 -0.0815
24266W        W39883   6.210   3.761   3.216 -0.0277  0.3082  0.2685
24267W        W39884  11.005   7.923  11.894  0.0802 -0.1559  0.0193
24268W        W39885   8.106   6.412   0.969  0.2949 -0.0771  0.0310
24269W        W39886   0.222  13.295   1.894  0.0079  0.1272 -0.1632
24270W        W39887   0.514   0.351   2.813  0.0461 -0.0596  0.0332
24271W        W39888  13.964   8.482   5.405 -0.0162  0.3031  0.2710
24272W        W39889   7.229  14.691  12.523  0.0223 -0.3001 -0.2654
24273W        W39890   8.299  10.770  14.984  0.0607  0.0811 -0.0809
24274W        W39891   4.644   0.771   2.846  0.3007 -0.0670 -0.0412
24275W        W39892  14.529   6.329  10.540 -0.0097 -0.0373  0.0973
24276W        W39893  15.497   9.849   1.866 -0.0861  0.2469 -0.1474
24277W        W39894   3.341  15.143   3.286  0.2940 -0.2209 -0.4652
24278W        W39895  12.432  15.996  13.119 -0.2695  0.0319 -0.1753
24279W        W39896   1.772  10.328  15.039 -0.1006 -0.1921  0.0683
24280W        W39897   1.818   3.673   0.831  0.1954 -0.0023  0.0227
24281W        W39898  11.822  17.044   0.397 -0.2324 -0.0783 -0.1271
24282W        W39899  16.531   5.759  14.336  0.0780 -0.3447  0.0286
24283W        W39900  12.661   1.886  10.687  0.2020  0.1358 -0.1112
24284W        W39901   7.002   9.871  13.873  0.1938  0.1858  0.0435
24285W        W39902   2.815   7.209  12.440  0.0394 -0.0088 -0.2311
24286W        W39903  13.751   9.277   1.368  0.0493 -0.0341 -0.1910
24287W        W39904   5.848   7.033  14.199  0.0486 -0.1036 -0.1430
24288W        W39905   5.514  18.382  11.330 -0.0525 -0.0383  0.4570
24289W        W39906   4.132  17.564  11.442 -0.2859 -0.4796  0.0318
24290W        W39907  15.419  12.281   1.558 -0.0506 -0.1067 -0.1367
24291W        W39908   7.261  17.354   4.357 -0.0584  0.0199 -0.1871
24292W        W39909   1.922  18.331  13.584 -0.0664 -0.2535  0.0797
24293W        W39910   5.171  17.532  11.198  0.1030  0.0117  0.2499
24294W        W39911   6.852   4.568   3.015 -0.1819  0.0589  0.0084
24295W        W39912  15.243   2.548   1.692 -0.0649 -0.1225 -0.1918
24296W        W39913   5.744   1.702  12.176  0.1056 -0.2086 -0.0269
24297W        W39914  14.352   5.063   3.691 -0.0274 -0.0152 -0.0047
24298W        W39915  18.354  17.518   4.480 -0.1038  0.1759 -0.1387
24299W        W39916  13.960  14.762   3.526  0.1338  0.3145 -0.0709
24300W        W39917  14.398   8.444   2.824 -0.2156 -0.0036  0.1400
24301W        W39918   6.329   2.546   3.884  0.0161 -0.0963  0.4403
24302W        W39919  14.050   0.050  11.910 -0.2667  0.1703 -0.1460
24303W        W39920   2.134   1.871  11.431 -0.0956  0.1060 -0.1135
24304W        W39921  13.562   8.801   2.403 -0.0350  0.0258  0.1600
24305W        W39922   9.601   5.584   3.393 -0.3569  0.0817  0.0719
24306W        W39923   0.851  13.076  10.852  0.2723 -0.2704 -0.2077
24307W        W39924   5.114   1.295   5.653 -0.2020 -0.1451  0.1803
24308W        W39925  11.329  14.081  12.075  0.3226 -0.1705 -0.3603
24309W        W39926   1.702  10.633   2.515  0.0940  0.1012 -0.3143
24310W        W39927  16.558  14.054   1.258  0.4176  0.0135  0.0180
24311W        W39928  18.655  18.425   1.623 -0.0292 -0.1802 -0.2432
24312W        W39929  11.680   3.978   1.031  0.0929 -0.0359  0.1582
24313W        W39930   3.893   7.332   2.561 -0.1345 -0.0008  0.3457
24314W        W39931  17.987   7.552   4.553  0.0805 -0.4748 -0.3380
24315W        W39932   7.123  16.268  11.546  0.2594  0.3659 -0.6307
24316W        W39933   8.832  12.933  12.997 -0.1866  0.0974  0.0428
24317W        W39934  14.207   4.609  11.347 -0.1045 -0.2691  0.0928
24318W        W39935   0.017   7.140  10.827 -0.1659 -0.1097  0.1752
24319W        W39936  14.648  10.707  10.899  0.1350 -0.2216 -0.1043
24320W        W39937   6.993  11.951   1.203  0.0469  0.1334 -0.2129
24321W        W39938  15.644   6.002  11.331  0.2477 -0.0575  0.0333
24322W        W39939   4.569  15.723  12.919 -0.0086  0.0249 -0.0678
24323W        W39940  16.014  12.611  10.968  0.1800  0.0116 -0.0462
24324W        W39941  16.118  18.684   2.647 -0.1511 -0.3333  0.0910
24325W        W39942  14.368   8.885  13.766 -0.2573  0.0150  0.2812
24326W        W39943   0.738   7.551   2.042 -0.0770 -0.2474  0.5026
24327W        W39944  17.069   6.938   2.410  0.0592 -0.1807  0.2661
24328W        W39945  15.069   1.559  12.766  0.0482  0.0423 -0.2060
24329W        W39946   9.809  12.582   4.340 -0.1223 -0.2877  0.0592
24330W        W39947  13.700   2.022   4.192 -0.0411  0.2504  0.3475
24331W        W39948   6.449   3.280  11.263 -0.0695 -0.2216 -0.5728
24332W        W39949   6.318  11.778  11.684  0.0726 -0.0002 -0.2816
24333W        W39950  14.183   7.583   3.640  0.0303 -0.1595 -0.2156
24334W        W39951  12.291   2.026   2.360  0.0829  0.3240  0.0538
24335W        W39952   4.717   6.931  14.216  0.1175 -0.0409  0.1691
24336W        W39953  12.097  11.183   2.630  0.1239  0.0491  0.4347
24337W        W39954   1.813  12.459  15.131  0.2216 -0.2158 -0.1101
24338W        W39955   1.671   0.907   1.255 -0.2517 -0.0359 -0.0380
24339W        W39956   2.200   6.352  14.173 -0.4065  0.2283 -0.0341
24340W        W39957  15.455   2.416   0.560 -0.1215 -0.1261  0.2374
24341W        W39958   6.094   5.477   2.078 -0.0156  0.3386  0.1180
24342W        W39959   7.874   3.570   0.734 -0.1534 -0.1325 -0.0641
24343W        W39960  16.722   1.399   0.896 -0.1487  0.2575  0.1059
24344W        W39961  12.421  13.358   4.474 -0.1599 -0.0403  0.1401
24345W        W39962  17.880  14.990  13.516 -0.1356 -0.1665 -0.0329
24346W        W39963   5.644  17.555  15.025  0.0318 -0.2023  0.0961
24347W        W39964  18.134  16.236  11.250 -0.2771 -0.2463  0.0570
24348W        W39965   8.085   6.436   2.574  0.2122 -0.2554  0.0554
24349W        W39966   9.463  18.649   0.878 -0.1535 -0.1035 -0.1669
24350W        W39967   5.535   7.900  14.343 -0.2610  0.0009 -0.2866
24351W        W39968   5.206   9.248   0.653  0.0669  0.0539  0.0593
24352W        W39969   9.685  12.102  13.950 -0.0919  0.0213  0.3736
24353W        W39970  19.044   7.847  14.692  0.1171 -0.1466 -0.1944
24354W        W39971   7.808  12.242   1.142  0.1274 -0.0527 -0.0883
24355W        W39972   8.179   5.914   0.870 -0.0874 -0.0467  0.1837
24356W        W39973  18.735  13.278   3.597  0.2939  0.2661  0.0003
24357W        W39974  15.823  17.218  15.159 -0.0071  0.2101  0.2174
24358W        W39975  16.235  10.640   0.809  0.1134  0.0833 -0.1828
24359W        W39976   1.112  15.937   2.012  0.1454  0.3235  0.3516
24360W        W39977  16.747  11.439   2.494  0.0106 -0.1755 -0.0055
24361W        W39978  16.480   1.294  14.396 -0.2302  0.5585  0.0580
24362W        W39979   4.682  14.270  12.908  0.3027 -0.0129  0.1521
24363W        W39980  16.158  18.406  11.566 -0.3698  0.1531  0.3466
24364W        W39981  15.138   1.251  14.719 -0.1641  0.0784 -0.2060
24365W        W39982   4.004   8.019   4.808 -0.5403  0.3682 -0.0657
24366W        W39983  11.631  13.948   3.354  0.2023 -0.0390 -0.0315
24367W        W39984  10.023   8.537   2.061  0.1400 -0.1203 -0.2623
24368W        W39985   3.060   6.517   0.792 -0.1471  0.1206  0.0007
24369W        W39986   9.214  10.541  15.050 -0.2450 -0.1454 -0.0794
24370W        W39987  15.837   6.433   9.934  0.0650 -0.1568  0.0807
24371W        W39988  15.994   4.652   4.303  0.2152  0.1621 -0.0153
24372W        W39989   8.719   5.993   2.566 -0.0190  0.2445 -0.0449
24373W        W39990  18.335  17.201  14.859  0.0820  0.1609  0.2142
24374W        W39991  16.512  16.636  14.612  0.0704 -0.0312 -0.2193
24375W        W39992   4.307  11.364   3.814  0.1383 -0.5188  0.3645
24376W        W39993   4.448  16.749   0.065  0.3006 -0.1051 -0.1420
24377W        W39994  11.357   4.823   0.367  0.0598 -0.1259 -0.3979
24378W        W39995  15.457   1.374   2.697 -0.1426  0.1466  0.1094
24379W        W39996  12.954  17.423  13.351  0.0528  0.3354  0.4025
24380W        W39997   9.633   0.011   1.990 -0.2119  0.1408 -0.1604
24381W        W39998  17.909   2.102   1.277 -0.0337  0.0974  0.1095
24382W        W39999  10.486  19.045  15.104  0.0237 -0.0772  0.3020
24383W        W40000   9.953   5.320   4.310 -0.1392  0.0928  0.1823
24384W        W40001  10.615   6.604  10.714  0.0938  0.2628  0.1711
24385W        W40002  16.871   1.436  14.135 -0.1653 -0.2521 -0.1221
24386W        W40003   1.227   1.847   0.526  0.1958 -0.0566  0.1758
24387W        W40004   5.667   1.153  14.356  0.3714  0.0306 -0.1392
24388W        W40005  10.727  14.039  14.108  0.3525 -0.0991  0.0467
24389W        W40006   2.026  11.976   3.610  0.0661  0.1414 -0.1263
24390W        W40007   6.839  15.485   0.110  0.1708 -0.0166 -0.1471
24391W        W40008   6.825   4.432   3.702 -0.0109 -0.1799 -0.1275
24392W        W40009  12.555  12.804   4.412 -0.1112  0.0996 -0.1841
24393W        W40010   1.046  14.902  10.958  0.1123  0.1189  0.2041
24394W        W40011   5.639   1.274   4.022  0.1480 -0.2564 -0.0371
24395W        W40012  12.680  17.995  13.157  0.2893 -0.4456 -0.1966
24396W        W40013   1.967   4.544   5.731 -0.4069  0.0008  0.2522
24397W        W40014   2.903   1.096   4.650 -0.2431 -0.0954 -0.0509
24398W        W40015   7.221   5.612   4.695 -0.4066 -0.1070  0.1866
24399W        W40016   0.116   2.928  11.595 -0.2405 -0.2593  0.0844
24400W        W40017   7.912  13.501   5.272  0.2762  0.1390 -0.1466
24401W        W40018  18.651  11.219  14.675 -0.2333  0.4188 -0.1025
24402W        W40019   1.776  17.126   0.593  0.1526  0.4700  0.0087
24403W        W40020   0.916   0.539   2.095  0.3934 -0.2659  0.0872
24404W        W40021   5.902   3.440   3.483  0.0997 -0.3017  0.0899
24405W        W40022  10.269  10.060  13.947  0.2980  0.3641  0.1829
24406W        W40023  11.365   0.074  13.403 -0.0759  0.1835 -0.0521
24407W        W40024  11.467   3.310   1.145  0.2541  0.0753 -0.0990
24408W        W40025  18.931   4.009   2.746  0.3567 -0.3367 -0.5746
24409W        W40026  15.675  16.424   2.735  0.1971  0.0710 -0.1419
24410W        W40027  15.732   5.246  13.889 -0.0350 -0.1302  0.1556
24411W        W40028  15.997  12.527  12.335 -0.0086 -0.0961  0.2582
24412W        W40029  11.705  10.930  13.212  0.2507  0.1285 -0.0566
24413W        W40030   4.949   8.893  13.508  0.1353 -0.2011 -0.0732
24414W        W40031  17.361  15.017   1.138  0.2234  0.3776  0.1227
24415W        W40032  17.560   8.839  10.600  0.0441 -0.1104  0.0689
24416W        W40033   0.206   0.862  12.877  0.2769  0.2751  0.1789
24417W        W40034   4.128   0.327  14.531  0.0973 -0.3299  0.1496
24418W        W40035   0.596  16.098  12.497  0.1625  0.0213 -0.0965
24419W        W40036  16.744   5.220   3.165 -0.5222 -0.0709  0.2425
24420W        W40037  17.053   9.168   1.063  0.0736 -0.0275  0.0517
24421W        W40038   0.624  18.418  12.412  0.0376 -0.2660 -0.1312
24422W        W40039   5.118   1.503   5.173 -0.3120 -0.0181  0.1834
24423W        W40040  18.860   3.190   2.518 -0.3240 -0.0900  0.1895
24424W        W40041   3.289  11.469  13.576 -0.1846  0.1447 -0.0383
24425W        W40042   2.751   3.682   0.886  0.1531  0.1899  0.2545
24426W        W40043  11.557   3.997  13.863  0.2221 -0.0305 -0.0351
24427W        W40044  18.373   3.593  13.141  0.3112 -0.1028  0.2465
24428W        W40045   4.312   7.422   5.786  0.1754 -0.1290 -0.1735
24429W        W40046  10.501   5.967  12.469 -0.2275 -0.0919  0.0216
24430W        W40047   5.502   5.068   1.065 -0.0797  0.5252 -0.1955
24431W        W40048  16.107  16.818   4.262 -0.1884 -0.0114 -0.0052
24432W        W40049   6.448  15.765  14.860  0.0164 -0.0199 -0.0365
24433W        W40050  13.231  17.695   5.103  0.4175  0.1354  0.0062
24434W        W40051   9.840   9.782  13.617 -0.0017  0.1446 -0.1651
24435W        W40052   0.584   7.389   4.709  0.1871 -0.0565  0.1934
24436W        W40053   2.689   2.870  10.663  0.1099  0.0334 -0.1891
24437W        W40054  17.376   8.774   3.820 -0.0773 -0.3287 -0.0418
24438W        W40055   1.851  13.384   5.582  0.1153  0.1969 -0.2435
24439W        W40056  17.365   9.291   3.804 -0.2086  0.0394 -0.0897
24440W        W40057   9.295   8.597   9.805  0.0483 -0.1298  0.0632
24441W        W40058  15.355  19.006   1.996 -0.2278  0.0569  0.1441
24442W        W40059   2.113  15.412  14.908 -0.4750  0.2280  0.2031
24443W        W40060   0.727   1.579  12.294  0.0207 -0.3997  0.1988
24444W        W40061  11.329   6.347  12.950 -0.2043 -0.0762  0.1071
24445W        W40062  10.672  12.396  11.469 -0.0522 -0.1645 -0.0752
24446W        W40063  16.839  12.168   5.523 -0.1856  0.2523 -0.0877
24447W        W40064   3.819   4.098  11.938  0.0684 -0.1257 -0.2872
24448W        W40065   8.866   4.844   1.638  0.1447  0.0911 -0.0243
24449W        W40066   9.081  10.742   5.380 -0.1539  0.4241  0.0197
24450W        W40067   5.582   1.264  13.065  0.3404 -0.1392  0.0969
24451W        W40068   2.603   0.729   4.331  0.0047 -0.5689  0.0292
24452W        W40069  13.506  14.544  15.123  0.1061  0.0752  0.0653
24453W        W40070  13.654  11.431  11.012  0.1713  0.0884  0.0436
24454W        W40071   9.308  12.869   0.773 -0.3797  0.0430 -0.0913
24455W        W40072   4.355  18.956  13.463 -0.1470  0.0367  0.0964
24456W        W40073  14.637   5.272   3.153 -0.2973  0.0188 -0.0273
24457W        W40074  16.856   1.088  14.572 -0.3693  0.4453  0.2434
24458W        W40075   6.290  15.661   0.837 -0.0603 -0.2769  0.0937
24459W        W40076  16.698  17.608  15.048  0.0454  0.0551 -0.2684
24460W        W40077   9.864  16.655   0.920  0.0500 -0.4707  0.0482
24461W        W40078   0.827  18.473  13.297  0.0221  0.0550  0.1229
24462W        W40079  18.546   5.261  13.662 -0.1241  0.0763 -0.0127
24463W        W40080  10.803   9.433  13.749  0.1575 -0.1067  0.1103
24464W        W40081  11.319  14.842   1.547 -0.0590 -0.2214 -0.4167
24465W        W40082  10.598   0.898   1.891 -0.2377 -0.0101 -0.0987
24466W        W40083   3.812  15.815   4.927  0.1369 -0.0416  0.0164
24467W        W40084   0.924  17.291  11.693 -0.0193 -0.0656 -0.3506
24468W        W40085   6.173  17.203  10.402 -0.2369 -0.2309 -0.1843
24469W        W40086  12.697  15.452  11.161  0.1378  0.0074 -0.2131
24470W        W40087  13.422   3.961   4.518  0.2202 -0.1761  0.1363
24471W        W40088  18.776   0.128  15.180  0.0200 -0.0301  0.0263
24472W        W40089  18.333  13.945   0.676 -0.1542 -0.0224 -0.0162
24473W        W40090  18.574   7.706  13.534 -0.2871 -0.1767  0.0080
24474W        W40091   7.298  17.900  12.620  0.1138 -0.2245  0.1735
24475W        W40092   2.805  10.621  12.203 -0.2948  0.0181 -0.1938
24476W        W40093  14.634  13.565  13.411 -0.3344  0.0335  0.0745
24477W        W40094   5.495  12.308  13.570  0.2328 -0.1404  0.4126
24478W        W40095   2.593   8.792   2.626 -0.3092  0.1310  0.1011
24479W        W40096  18.174  12.344  10.910 -0.0116  0.2982  0.2571
24480W        W40097   9.863   4.150  14.012 -0.1433  0.2021  0.2610
24481W        W40098   8.008  14.982   4.015  0.0533 -0.0781  0.0306
24482W        W40099   2.931  11.746   2.033  0.0339  0.2282  0.0318
24483W        W40100  18.128  14.482   3.385 -0.1392  0.1496  0.0161
24484W        W40101   9.546   1.467   1.909  0.1567 -0.0359 -0.0573
24485W        W40102  11.107   5.166   1.447  0.0848 -0.1059 -0.3188
24486W        W40103  18.596   8.507  10.867  0.1470  0.0032 -0.0480
24487W        W40104   6.907  11.386  14.466  0.0432  0.0422 -0.1497
24488W        W40105   9.241   9.556  15.058  0.3625  0.0018 -0.0767
24489W        W40106  12.902   1.663   0.605 -0.1392  0.1323  0.2271
24490W        W40107  11.426  16.406  13.965  0.2735  0.0418  0.0107
24491W        W40108   0.628   5.371   1.209  0.0277 -0.5405 -0.0496
24492W        W40109  11.446  17.116  12.369  0.3074 -0.0663 -0.0976
24493W        W40110  10.115  17.288  12.734 -0.0342  0.2518  0.1243
24494W        W40111   0.265  17.152  11.510  0.2096 -0.2113 -0.4075
24495W        W40112  14.858   8.609   1.140  0.2467  0.0924 -0.1756
24496W        W40113  15.694  11.941  11.191  0.0461 -0.3126  0.3624
24497W        W40114   8.804  13.739   0.480  0.1693 -0.3429  0.1897
24498W        W40115  15.655   4.140  13.993 -0.0766 -0.0939  0.0368
24499W        W40116   6.369  17.456   0.612  0.2261 -0.0411  0.0217
24500W        W40117   9.738   9.281  13.638  0.1168  0.2062  0.2738
24501W        W40118  13.287  12.818   5.698  0.2464  0.1936  0.0828
24502W        W40119  11.614  14.353   3.562 -0.2664  0.1350  0.2434
24503W        W40120  14.690   8.318   0.753  0.1270 -0.0360  0.2516
24504W        W40121  18.540   6.117  10.510  0.1485 -0.1688 -0.0567
24505W        W40122  15.314   3.694  11.390 -0.1250  0.3943 -0.2642
24506W        W40123  17.701  14.624  12.665  0.0891  0.0553 -0.3406
24507W        W40124  16.204   2.928   5.208 -0.1531  0.1725 -0.3540
24508W        W40125  11.961  17.595  14.938 -0.0519  0.2555 -0.0040
24509W        W40126   4.035   9.836   3.629  0.0754 -0.5001 -0.0766
24510W        W40127  10.250   4.442  15.048 -0.0959 -0.0888 -0.2525
24511W        W40128   6.550   7.520   2.853  0.2553  0.2214 -0.1803
24512W        W40129  16.305   7.544   0.987  0.0551 -0.0417 -0.3236
24513W        W40130  18.505  11.469   4.082 -0.0981 -0.1432 -0.0199
24514W        W40131   4.913   7.139  12.276  0.1829 -0.2030  0.1376
24515W        W40132  11.284  18.266   0.736  0.0213 -0.0093 -0.0254
24516W        W40133   3.657   1.863  15.267 -0.2483  0.1666  0.0899
24517W        W40134  10.383   3.926  12.793 -0.3359 -0.0276  0.0463
24518W        W40135   8.021  10.130  10.944  0.2576 -0.2274  0.1719
24519W        W40136   0.973   6.161   5.445  0.1985  0.2556  0.0358
24520W        W40137   2.798  11.471  13.259  0.0341 -0.2255  0.1944
24521W        W40138  18.391  18.888   1.457  0.0817 -0.0302  0.2548
24522W        W40139  10.121   6.295   0.203 -0.0986  0.1391  0.2487
24523W        W40140  15.806  11.177  11.284  0.3772  0.2160 -0.0490
24524W        W40141   7.419   5.649  11.945  0.0365  0.2557  0.0867
24525W        W40142   2.759   1.527  13.209  0.0664  0.0123  0.1133
24526W        W40143   5.707   2.624  11.136 -0.2290  0.3102  0.0787
24527W        W40144  15.074  14.074  14.214 -0.0305  0.0506  0.0820
24528W        W40145  13.366  17.733   2.577  0.5878  0.1809  0.0477
24529W        W40146   2.423   8.568   3.804  0.2650  0.1009 -0.3849
24530W        W40147  16.996   3.884  13.579 -0.0311  0.0688  0.2387
24531W        W40148  14.621  17.638  14.413 -0.3361  0.0003  0.1138
24532W        W40149   0.907  13.453  14.223  0.2455  0.2295 -0.1719
24533W        W40150   2.530  15.771   1.716  0.3415  0.0180  0.1530
24534W        W40151  11.442  13.331  15.234  0.2748 -0.1742 -0.2495
24535W        W40152   8.187   7.746   4.160 -0.1204  0.2580 -0.1889
24536W        W40153   0.268   3.567  12.048 -0.1187  0.0768  0.0292
24537W        W40154   5.597  17.782  13.065  0.0488 -0.1818 -0.1830
24538W        W40155   7.993  17.696   1.838 -0.0152 -0.0172  0.1114
24539W        W40156   5.387  16.704  10.958 -0.0178  0.2045 -0.0505
24540W        W40157  15.504   7.945   0.561 -0.0826  0.0687 -0.0797
24541W        W40158   4.912   2.925  13.073  0.0203 -0.1004 -0.1157
24542W        W40159   9.952  15.889   0.487  0.2430 -0.2609  0.0500
24543W        W40160   6.879   7.793  13.948  0.3087 -0.1024 -0.2094
24544W        W40161  16.578  10.345   4.670 -0.2883 -0.0315  0.0626
24545W        W40162  11.199   4.344   2.201 -0.0413 -0.2312  0.2212
24546W        W40163  11.349  12.347   9.880  0.2377 -0.3065  0.0356
24547W        W40164   4.762  17.200   0.140 -0.0371  0.1053 -0.0854
24548W        W40165   4.313  15.534   1.865  0.0408 -0.2877  0.1177
24549W        W40166   9.518   6.528   3.441 -0.4338  0.3188 -0.1657
24550W        W40167  16.420   3.181  11.989  0.1338  0.0291  0.0302
24551W        W40168   8.313   4.833   1.603  0.0940  0.1717 -0.4962
24552W        W40169  17.300  13.064  11.226  0.0835 -0.1125 -0.2103
24553W        W40170  16.584   0.967   4.583 -0.1589 -0.0775 -0.0479
24554W        W40171   7.069   2.097  10.752  0.2430 -0.4133  0.1983
24555W        W40172   7.265   4.915  14.725  0.2802  0.1786 -0.1405
24556W        W40173  18.939   4.194  15.206 -0.1820  0.0461 -0.0931
24557W        W40174   3.653  12.227  10.960 -0.0891  0.0494  0.0221
24558W        W40175   9.412  18.745  12.579  0.0331 -0.1798 -0.2381
24559W        W40176   9.114  13.080  13.611  0.0603  0.2688  0.0564
24560W        W40177   0.473   5.142  12.462 -0.3603 -0.1153  0.1817
24561W        W40178   6.422  15.811   5.867 -0.3180 -0.2208 -0.2446
24562W        W40179   5.702  12.691  11.306  0.3696 -0.1895 -0.0919
24563W        W40180   5.914  10.538  14.375  0.1740 -0.2891 -0.2559
24564W        W40181   2.026  10.785  15.285  0.2708 -0.1161 -0.2173
24565W        W40182   7.849  18.694   0.179  0.0196  0.1714 -0.1457
24566W        W40183  16.152   2.693   2.648  0.1113  0.2772 -0.2145
24567W        W40184  16.343   1.619  10.272  0.1126 -0.1820 -0.0089
24568W        W40185  14.991  17.957   3.374 -0.0707 -0.1219 -0.1570
24569W        W40186   4.995  10.103   2.343  0.0493 -0.1395 -0.2883
24570W        W40187  12.589  13.824   4.617 -0.0867 -0.1139 -0.1051
24571W        W40188   2.009   2.315   0.582  0.1576 -0.0166 -0.0488
24572W        W40189  16.957  16.679  14.215 -0.1467  0.1584  0.2047
24573W        W40190  14.578   6.906   4.453 -0.0904  0.0866  0.2740
24574W        W40191   9.026  15.273  13.387  0.0567 -0.1768  0.1419
24575W        W40192   3.006   2.048   3.872 -0.0094  0.0720 -0.1977
24576W        W40193   9.061   3.651  11.160 -0.3271  0.1021  0.1512
24577W        W40194   6.867   0.967   3.402  0.1802  0.2463 -0.1404
24578W        W40195  14.472  13.565   1.619 -0.0711 -0.1670 -0.1770
24579W        W40196  11.719   3.381  14.554 -0.0499  0.0797 -0.0382
24580W        W40197  17.792  18.545  13.519 -0.2256 -0.2990 -0.0738
24581W        W40198   8.050   7.184  13.224  0.2527 -0.4271  0.3661
24582W        W40199  11.879  14.899  14.815  0.0051  0.2084  0.0721
24583W        W40200   3.112   9.057  12.191 -0.0202 -0.3973 -0.6933
24584W        W40201  11.366   3.526  14.971  0.0483 -0.1892  0.2328
24585W        W40202   0.641  17.866  10.552 -0.0531 -0.3165 -0.0339
24586W        W40203  14.007   6.139  14.110 -0.0041 -0.1563 -0.0080
24587W        W40204  13.671   7.927  13.756 -0.0282  0.2705  0.0537
24588W        W40205   2.797   1.094   4.070 -0.2178 -0.2166 -0.1158
24589W        W40206   5.784   8.143  13.222 -0.2409 -0.2280  0.0791
24590W        W40207   8.010   6.229  11.553  0.1169 -0.0476  0.0595
24591W        W40208  16.969   6.339   3.036  0.1056  0.0733 -0.1143
24592W        W40209  19.001   1.157  14.155 -0.1898 -0.1046  0.0823
24593W        W40210  11.121  16.194   2.012  0.0707  0.2349  0.0540
24594W        W40211   5.613   5.392   2.303 -0.1553 -0.1577  0.2723
24595W        W40212   9.136  17.265  12.451  0.1839 -0.3305  0.1271
24596W        W40213   5.048  14.023   0.583 -0.0422  0.0162  0.0423
24597W        W40214   5.071   3.377  12.161  0.1296 -0.1187 -0.2552
24598W        W40215  16.266   8.410   0.849  0.2526 -0.2059 -0.0036
24599W        W40216   9.457  16.065   3.752 -0.4976  0.0050  0.2265
24600W        W40217   5.372  17.277   4.744 -0.0441  0.0591  0.2652
24601W        W40218   8.731   2.301  15.057 -0.0569  0.0583 -0.1389
24602W        W40219  19.069  15.280   3.037 -0.1887 -0.0687 -0.1379
24603W        W40220  16.365  14.073  12.338  0.0539 -0.1712 -0.2069
24604W        W40221   1.058   7.905   2.298  0.2677 -0.1478  0.1411
24605W        W40222   6.522  11.745  14.877  0.0681  0.0270 -0.0433
24606W        W40223   9.449   3.358   0.486 -0.1812 -0.0472  0.0043
24607W        W40224  11.000   2.939  14.929  0.0798 -0.1678  0.0123
24608W        W40225   8.516   6.340  10.999 -0.1107 -0.1307  0.4272
24609W        W40226   9.810  19.067  12.385  0.3871  0.1214 -0.0947
24610W        W40227  17.526  13.287   0.809 -0.1433 -0.3804  0.0461
24611W        W40228  16.065  16.121   0.052  0.1544  0.4675 -0.0788
24612W        W40229   7.746   2.187   2.731 -0.2062  0.0615  0.2511
24613W        W40230  10.928   4.159  12.045  0.3870 -0.0696  0.3039
24614W        W40231   4.055  10.096   0.399  0.2037 -0.1197 -0.3805
24615W        W40232  11.389  16.913  15.038 -0.0836  0.0685 -0.2001
24616W        W40233   4.974  15.941  14.576  0.3195 -0.1369 -0.1352
24617W        W40234  15.834   7.738   2.279  0.1388  0.1974  0.2128
24618W        W40235  18.510   2.404   5.329  0.3381  0.1294 -0.1063
24619W        W40236  16.905  15.578  10.869  0.0616 -0.0692 -0.3260
24620W        W40237   7.237   5.431  13.319 -0.2429  0.0137 -0.1052
24621W        W40238   3.042   7.353   0.250 -0.3440  0.0461  0.0866
24622W        W40239   6.862  11.727  14.046  0.4274 -0.0660  0.2595
24623W        W40240  16.950   3.454  14.884 -0.1768  0.2255 -0.1070
24624W        W40241  18.215  17.235   4.850  0.1446  0.2275  0.0333
24625W        W40242   1.807  12.234   0.435  0.1396  0.1542  0.1484
24626W        W40243   7.794  10.361  11.919  0.3285 -0.0270 -0.1716
24627W        W40244  10.812  12.972  12.985  0.0554  0.4878  0.3006
24628W        W40245  11.956  14.024   3.807 -0.2639  0.2360  0.1070
24629W        W40246   6.731  16.488   5.042  0.0786 -0.0733  0.0077
24630W        W40247   7.693  13.058   0.425  0.0584  0.2263 -0.0671
24631W        W40248  10.530  18.476   1.936  0.0383 -0.1094 -0.1651
24632W        W40249  14.015   3.667   0.645  0.0425  0.0528  0.1361
24633W        W40250  15.442   8.731  14.745 -0.2583 -0.1439  0.1692
24634W        W40251  12.822   6.404  14.790 -0.2889  0.2117  0.2225
24635W        W40252   3.457   5.298   4.263  0.0396  0.0845 -0.2080
24636W        W40253  10.836  17.336   4.585 -0.0135  0.1017 -0.3276
24637W        W40254  17.189   5.344  12.586 -0.2800  0.1052  0.0746
24638W        W40255  16.233   3.334   4.896  0.4106 -0.0747 -0.1122
24639W        W40256   2.462  14.726  12.703  0.3096  0.0470 -0.3192
24640W        W40257  14.259  16.303  13.876 -0.0944 -0.2183  0.2474
24641W        W40258   5.416  18.494  14.722 -0.1612  0.0761  0.1579
24642W        W40259   7.174   5.996   2.395  0.0402 -0.0169  0.1345
24643W        W40260  15.246  14.753   3.948  0.0611 -0.2028  0.0680
24644W        W40261   8.564   9.294  10.102 -0.3160  0.0219  0.3750
24645W        W40262  18.112   6.865  11.823 -0.3596  0.2543 -0.2029
24646W        W40263  18.899  12.450  12.400 -0.1638 -0.1408 -0.0795
24647W        W40264   2.461  13.881  11.639  0.3504  0.1280  0.2706
24648W        W40265   3.008   6.475  13.729 -0.0460  0.0250  0.1673
24649W        W40266   8.080   0.225  14.787 -0.1039  0.1734  0.0959
24650W        W40267   3.720   0.836   2.002 -0.3266  0.1784 -0.0143
24651W        W40268   2.658   0.542   0.608 -0.0906 -0.1679  0.3778
24652W        W40269  10.506   2.538  12.108  0.0974 -0.0807  0.1457
24653W        W40270  17.955   2.718   2.283  0.2712 -0.2219  0.0721
24654W        W40271  11.913  11.106  11.776  0.1147  0.0685 -0.0865
24655W        W40272   8.503  12.766  14.319  0.2583  0.1725 -0.2657
24656W        W40273  16.432   8.570  13.049 -0.0421  0.0424  0.2079
24657W        W40274   0.253  10.200   1.663 -0.2818 -0.0292 -0.2827
24658W        W40275  13.651  12.821   2.965  0.1780 -0.1646 -0.1914
24659W        W40276   6.203   9.741  10.690 -0.1234 -0.0694  0.1078
24660W        W40277  18.140   3.377   4.790  0.0303  0.2132 -0.0539
24661W        W40278  12.976   5.685  11.212  0.0774 -0.0926  0.3533
24662W        W40279   4.811  16.419   1.512  0.0704  0.2089  0.1242
24663W        W40280  13.058  11.738   2.164 -0.4758 -0.0246 -0.0136
24664W        W40281  16.163  16.423   5.037 -0.1823 -0.0678 -0.0505
24665W        W40282  13.016   0.022  14.073 -0.0212  0.1471  0.0369
24666W        W40283  17.501   4.875   5.234 -0.0034  0.4133 -0.2138
24667W        W40284   7.277  10.212  14.151 -0.0273 -0.1733  0.2504
24668W        W40285   0.141   3.303  10.840 -0.0035  0.5288 -0.1441
24669W        W40286   0.440  17.018   1.381 -0.1895  0.0011  0.0806
24670W        W40287  15.958  11.223  11.782  0.1820 -0.0481  0.0145
24671W        W40288  16.233  17.409  14.891  0.1092  0.0909 -0.3475
24672W        W40289   3.063  14.630  12.167 -0.1618 -0.2902  0.2548
24673W        W40290   5.717  16.583   2.537  0.2607  0.1952  0.4018
24674W        W40291  15.450   6.982   1.866 -0.0551  0.0806  0.0678
24675W        W40292   2.242  15.619   4.526 -0.0757 -0.1311  0.4988
24676W        W40293  14.670   5.637   0.553 -0.0087  0.0978  0.0027
24677W        W40294   4.686   7.038  12.756 -0.0638 -0.2667  0.2309
24678W        W40295   5.962   4.426  13.165 -0.0853 -0.3810 -0.3249
24679W        W40296   2.843  16.353   0.775  0.0526 -0.3580  0.0513
24680W        W40297   4.568  13.575   1.819 -0.0354 -0.3144  0.0587
24681W        W40298   6.799   4.046  13.451  0.0988 -0.4388  0.0188
24682W        W40299   8.725   4.505  15.066  0.2701  0.1429 -0.2991
24683W        W40300  18.159  16.173   0.564  0.2194 -0.0518  0.2743
24684W        W40301  11.530   8.496  14.592 -0.0149  0.2744  0.0148
24685W        W40302  16.809   1.458  11.101  0.2037 -0.0277  0.2849
24686W        W40303   3.268  18.678   1.793 -0.3135  0.0434 -0.2593
24687W        W40304  14.866  18.997  14.840  0.0732  0.0938  0.0895
24688W        W40305  13.757  17.531  10.905  0.0208 -0.0264 -0.0346
24689W        W40306   5.039   3.333   1.030  0.1654 -0.2537  0.2421
24690W        W40307   5.671   4.470  10.441 -0.0239  0.1590  0.1005
24691W        W40308   5.646   5.992  15.033 -0.2173  0.3977 -0.0376
24692W        W40309   3.658   1.602   4.330 -0.1967 -0.2078  0.1349
24693W        W40310  18.224  16.681   2.915 -0.0637 -0.4938 -0.3812
24694W        W40311   5.730  16.050   1.177 -0.0224 -0.3320 -0.1009
24695W        W40312  16.141  10.605  14.151  0.3268 -0.3068 -0.2871
24696W        W40313   6.907  13.145  11.206  0.3685 -0.0064 -0.0360
24697W        W40314   8.623   6.744   4.960  0.0102  0.0640  0.0809
24698W        W40315   9.021  15.560   4.894 -0.0801 -0.0844 -0.3150
24699W        W40316   4.074   4.167   3.688  0.1287 -0.1440  0.2474
24700W        W40317   6.264  17.227   4.633  0.1705  0.4337  0.1334
24701W        W40318  15.580  13.222   3.058 -0.0511  0.0157  0.0312
24702W        W40319   5.483  15.907   4.514 -0.1146  0.1521 -0.1274
24703W        W40320  13.025   1.212   5.669 -0.0318 -0.0413  0.0248
24704W        W40321   5.010  10.771   1.844 -0.1161  0.1895 -0.1536
24705W        W40322  10.029   1.492  14.393  0.3241 -0.0751  0.1192
24706W        W40323  10.044  16.897  14.242 -0.0057 -0.0864 -0.1283
24707W        W40324  15.186  15.506   3.910  0.2424  0.2133 -0.0451
24708W        W40325   4.593   6.578   5.283 -0.0589 -0.1385  0.3762
24709W        W40326  13.887   2.192  14.732 -0.0814  0.4422  0.0594
24710W        W40327   8.101  13.125   5.432 -0.1355 -0.1670 -0.3886
24711W        W40328   4.832   5.269   4.360  0.1598  0.1415 -0.0471
24712W        W40329   7.170   6.188  13.576 -0.0886  0.0471  0.0937
24713W        W40330   8.032   9.275  14.310  0.0189 -0.1715  0.2318
24714W        W40331  12.537  14.962   5.318 -0.1357  0.0204 -0.1461
24715W        W40332   9.500   5.941   3.798  0.2468 -0.0244 -0.2837
24716W        W40333   8.896  12.208  15.275  0.0800 -0.1907 -0.1701
24717W        W40334   2.697   8.951   4.696 -0.1450 -0.1601  0.0813
24718W        W40335   3.141  16.929  11.094  0.1912 -0.2358  0.1895
24719W        W40336   8.888   8.551   3.936 -0.0299  0.0232 -0.0072
24720W        W40337  10.360  12.930  11.636  0.1029 -0.2537  0.1813
24721W        W40338  17.988  13.821   1.928 -0.0976  0.0734 -0.3711
24722W        W40339   7.230  16.215   2.946 -0.3779 -0.0721  0.1239
24723W        W40340  16.557  15.109   1.276  0.3247 -0.1040  0.0103
24724W        W40341   3.106   3.470  13.177 -0.1310  0.0742  0.1240
24725W        W40342  19.034  16.107  11.667  0.0990  0.0217 -0.1513
24726W        W40343   2.853  18.507  11.018  0.0705 -0.0237 -0.0784
24727W        W40344  13.735   8.688   4.881  0.0934 -0.1060 -0.1718
24728W        W40345   1.341  17.922   4.735  0.0444 -0.0636 -0.1124
24729W        W40346  17.465   9.438   0.886 -0.1435 -0.0462  0.0757
24730W        W40347   8.934   3.208   1.110  0.0174  0.0706 -0.1208
24731W        W40348  14.100   3.617  14.905 -0.2912 -0.0309  0.2711
24732W        W40349   0.648  12.904  11.737 -0.1920  0.2999 -0.0012
24733W        W40350  15.064  12.960   2.028  0.3019 -0.0130  0.3566
24734W        W40351   4.338  15.503   4.180 -0.0488  0.4199  0.0158
24735W        W40352   8.733  13.974  11.191 -0.1313  0.1945  0.0355
24736W        W40353   2.114  17.114  14.906 -0.0673 -0.2093  0.2312
24737W        W40354   7.414  16.121   1.665  0.1150  0.1164  0.0226
24738W        W40355   4.306  13.146   1.448 -0.1501  0.1772 -0.0339
24739W        W40356  11.201   2.205   9.571  0.3927 -0.0741  0.0358
24740W        W40357  14.850  11.861   9.457 -0.0810  0.1419  0.1128
24741W        W40358  16.361   2.976  14.122 -0.0309  0.0762  0.2349
24742W        W40359   3.029   5.969   0.713 -0.2785 -0.0440  0.4579
24743W        W40360  16.967   9.681   0.958  0.0827  0.1633 -0.0649
24744W        W40361   0.211   2.567   3.135 -0.7060  0.2951 -0.1427
24745W        W40362  13.046  13.853  12.895 -0.1040  0.1420 -0.2466
24746W        W40363   1.712   2.013  13.644 -0.1538  0.2178  0.3143
24747W        W40364   5.111   3.714  13.743  0.0423  0.1774  0.0614
24748W        W40365   5.544  16.576  13.060 -0.0231  0.0601 -0.3109
24749W        W40366   9.927  15.279   2.597 -0.2465 -0.2257  0.0455
24750W        W40367  11.930  17.090   4.352  0.0896 -0.0490  0.2979
24751W        W40368  13.331  16.250  11.305  0.0363 -0.2021  0.2902
24752W        W40369   2.144  13.388  13.429 -0.1217 -0.3448 -0.1970
24753W        W40370  11.364   6.544  10.847 -0.4116  0.2982  0.1770
24754W        W40371   2.363   2.839   1.917 -0.0985  0.0368 -0.1002
24755W        W40372   5.468   1.693   4.459  0.1925  0.0020  0.1452
24756W        W40373  17.902  13.104   9.843  0.2959  0.0266  0.0994
24757W        W40374   6.284   8.678   0.427  0.2441  0.1055  0.0059
24758W        W40375   7.156   6.754   4.598  0.0212 -0.1112 -0.2323
24759W        W40376  13.879  11.091  10.759 -0.0156 -0.0620  0.2821
24760W        W40377   9.175  15.530   4.446 -0.0903 -0.0425 -0.0712
24761W        W40378   9.174   3.253  10.648 -0.0023 -0.4933  0.0535
24762W        W40379  15.797   4.610   5.809 -0.0428 -0.0222  0.2143
24763W        W40380   7.482   9.656   3.236  0.0597 -0.1643  0.4390
24764W        W40381   7.978   6.021  13.513  0.1061 -0.3697  0.0159
24765W        W40382  10.675   5.626   1.080  0.3957 -0.1680  0.0263
24766W        W40383  11.387   9.810  15.036 -0.0084  0.1634  0.6133
24767W        W40384   9.840  10.208  11.213 -0.1584 -0.1403 -0.0326
24768W        W40385  16.474   8.058  12.828  0.0140 -0.1231  0.0050
24769W        W40386   5.226  15.035  11.760  0.2595  0.1721 -0.3236
24770W        W40387   3.698   7.552  13.052  0.0968 -0.0677 -0.1014
24771W        W40388   0.718  18.406  14.725  0.2291 -0.0969 -0.2488
24772W        W40389  16.645   5.884   3.006  0.0520  0.0051 -0.2992
24773W        W40390  14.962   0.284   3.719  0.0413  0.0099  0.0279
24774W        W40391   8.810   6.358  12.753 -0.0676 -0.1281 -0.2528
24775W        W40392   5.334  17.023  13.198 -0.3292 -0.3221  0.2936
24776W        W40393   9.705   3.205   4.748  0.2463 -0.0069  0.3591
24777W        W40394   2.706   5.870  10.016 -0.2871  0.0942  0.0423
24778W        W40395   0.758   1.204  15.234 -0.0725 -0.1468 -0.1954
24779W        W40396   3.688  18.500   5.760 -0.0168  0.1607 -0.1917
24780W        W40397  16.947   2.940   3.906 -0.0770 -0.2869 -0.1665
24781W        W40398   7.310  10.195  11.765 -0.0341 -0.3146  0.1918
24782W        W40399  13.622   8.815  14.942  0.0981  0.1158  0.2556
24783W        W40400   6.186  13.146   0.294  0.0314 -0.1333 -0.0920
24784W        W40401   7.783   1.267   0.916 -0.4134  0.2426  0.2700
24785W        W40402  16.952  15.605  14.556  0.2883 -0.3594  0.2109
24786W        W40403  15.650  14.472  11.390  0.0521 -0.1615 -0.1413
24787W        W40404  12.593  15.994   2.093  0.0961  0.1888 -0.0734
24788W        W40405  16.810  14.948   2.084 -0.1717 -0.1699 -0.3279
24789W        W40406  12.764   1.251  11.513  0.2349  0.0057  0.0265
24790W        W40407   2.340   0.525  12.706 -0.0539 -0.0460  0.2685
24791W        W40408   4.086  15.470   0.273 -0.0315 -0.1394  0.0844
24792W        W40409  10.373  15.997   4.210 -0.3297  0.1793 -0.0191
24793W        W40410  18.950  18.761  15.219 -0.2041 -0.0571  0.0054
24794W        W40411   3.572   1.728   1.837 -0.2212  0.0255  0.0574
24795W        W40412   6.781  18.546   1.655  0.0735 -0.2000  0.4419
24796W        W40413   7.268  10.853   4.874 -0.1136  0.3091 -0.0915
24797W        W40414   0.877  15.816   3.259  0.0847  0.0519  0.2140
24798W        W40415   8.863   5.289   4.694  0.2332  0.3516 -0.3397
24799W        W40416  15.694  18.895  14.936 -0.1217 -0.1590 -0.1806
24800W        W40417   7.965  12.711   3.253 -0.1368 -0.1663 -0.2370
24801W        W40418  15.163  14.782   1.354 -0.0136  0.3989 -0.2509
24802W        W40419  17.003  15.944  14.975  0.1744 -0.2320 -0.0698
24803W        W40420  10.336   4.530   3.746  0.5758 -0.1913  0.2541
24804W        W40421  17.001   3.705  12.632  0.0831  0.2269 -0.0242
24805W        W40422   4.555  16.613   2.790 -0.2015 -0.0931  0.2524
24806W        W40423   5.775   6.159   3.953  0.1892 -0.1115  0.0893
24807W        W40424   3.627  12.724   0.682  0.3331  0.0813  0.0850
24808W        W40425   9.444  16.044  13.095  0.1453  0.1276 -0.3084
24809W        W40426   8.105   7.291  12.185 -0.2498 -0.1268  0.0045
24810W        W40427  14.954  12.456  12.904 -0.2344 -0.0630  0.1346
24811W        W40428   1.136   0.954  13.649  0.3050 -0.0824 -0.5111
24812W        W40429   4.410   3.884  12.661 -0.0295 -0.1070  0.1257
24813W        W40430   1.802  16.357  12.821 -0.4526  0.1429  0.3254
24814W        W40431  18.248  15.346  11.906  0.0791  0.0681  0.1224
24815W        W40432   5.008   2.270  11.963  0.0474 -0.2206 -0.1415
24816W        W40433  17.047  15.063   4.870  0.1942  0.0004  0.2295
24817W        W40434  14.327   0.386   9.731  0.0416 -0.1049  0.0494
24818W        W40435   5.928  17.205   4.160  0.1116 -0.0794  0.0611
24819W        W40436  10.583  11.452   4.699  0.1659  0.0117 -0.0471
24820W        W40437  14.117   1.322   3.594 -0.0857 -0.1147 -0.0085
24821W        W40438   9.313   3.554  13.887  0.2009  0.0374 -0.1670
24822W        W40439   6.879  10.707   5.148  0.0533  0.1976  0.3665
24823W        W40440  10.128  18.264  10.837 -0.1035  0.2151  0.1339
24824W        W40441  15.740   5.984  13.226  0.3604  0.0229 -0.1861
24825W        W40442   0.167   2.303   0.885 -0.0507 -0.2117  0.2859
24826W        W40443  15.770  10.761   1.088  0.1242 -0.0627 -0.0967
24827W        W40444   4.482   2.029   2.530 -0.0550 -0.0043 -0.1891
24828W        W40445  12.017   8.430   5.126 -0.0767 -0.2310 -0.2103
24829W        W40446   6.010   7.867   3.988  0.0102  0.0699 -0.0714
24830W        W40447   6.294  17.324  14.089 -0.1391 -0.1736 -0.2182
24831W        W40448  17.685  13.278  12.088  0.0400  0.1338  0.0088
24832W        W40449  17.587   8.456  13.340  0.2030  0.0334  0.1077
24833W        W40450   3.203  16.572   1.041 -0.2392 -0.1415  0.0572
24834W        W40451  12.382   2.772   2.914 -0.2657  0.1522 -0.1933
24835W        W40452  15.059   5.832   2.001  0.1643 -0.0705  0.0543
24836W        W40453  15.440   1.812   2.796 -0.2491 -0.1488  0.0477
24837W        W40454   5.564   1.138   5.087 -0.0771 -0.1653 -0.0668
24838W        W40455  12.967  15.756  15.042 -0.1237 -0.4736  0.0881
24839W        W40456  10.034   8.414  12.758 -0.3927 -0.2115  0.1094
24840W        W40457  11.779  12.904  11.032 -0.0540  0.3435 -0.0385
24841W        W40458   3.429   9.336  14.968  0.1397  0.1735  0.0344
24842W        W40459  10.463  17.516   5.289  0.3784 -0.2768  0.1165
24843W        W40460   8.988   9.897   9.556  0.2402  0.0906 -0.0870
24844W        W40461   9.771   2.387   1.873 -0.1657  0.1454 -0.3222
24845W        W40462  14.032   7.838  12.364  0.2865 -0.0909  0.0900
24846W        W40463  10.604   8.407   1.980 -0.2372  0.0656 -0.0262
24847W        W40464  11.736   9.852  13.963 -0.3659  0.2508  0.3217
24848W        W40465   3.885  12.906   3.093 -0.3920 -0.1197 -0.1209
24849W        W40466  11.073  11.771   1.186 -0.0617 -0.1345  0.1344
24850W        W40467  18.943   3.568   4.200  0.1040 -0.2544 -0.0686
24851W        W40468  10.752   9.529  12.604 -0.1023  0.0555  0.3559
24852W        W40469   0.986  17.718   5.009 -0.1941  0.2650  0.1432
24853W        W40470   9.593  12.188   1.151  0.1867  0.3860 -0.2201
24854W        W40471   3.807   0.131   3.028  0.2010  0.4469  0.2259
24855W        W40472   2.947   2.159  13.424 -0.1731  0.3253 -0.0830
24856W        W40473  16.348  15.928   3.864  0.0833 -0.0460 -0.0422
24857W        W40474  17.595   1.690   5.561  0.1956 -0.1838 -0.1823
24858W        W40475   3.192  12.793  14.449  0.0069 -0.3284 -0.0607
24859W        W40476  17.727   0.849  14.624  0.0374 -0.1257 -0.2406
24860W        W40477   1.878   3.275   1.197 -0.3354  0.1572 -0.5765
24861W        W40478   5.517   1.775   2.516 -0.3404  0.0308 -0.0228
24862W        W40479   3.361  19.075   0.901 -0.0300 -0.0329 -0.1007
24863W        W40480  15.718   3.741  12.207 -0.0305 -0.0582 -0.2542
24864W        W40481  13.876   8.352   2.776 -0.0786  0.1488  0.4731
24865W        W40482   0.038  18.644   1.741 -0.0939  0.3280 -0.0863
24866W        W40483   7.181  13.107  13.154  0.3784 -0.1252 -0.0911
24867W        W40484   4.536   3.181  12.803  0.1653 -0.0689 -0.0047
24868W        W40485  18.435   7.788   2.806  0.0881  0.2525  0.0221
24869W        W40486   5.318  14.498  11.922  0.3374 -0.2163 -0.0420
24870W        W40487  18.534  13.016   1.130 -0.0922  0.2048  0.1935
24871W        W40488   7.596   7.237  12.964 -0.1336 -0.1300  0.4263
24872W        W40489   3.000   3.312  10.060  0.0278 -0.2019 -0.0364
24873W        W40490  13.583  10.095  13.471 -0.1991 -0.2349 -0.2568
24874W        W40491   6.413  11.021   1.298  0.2964 -0.0097  0.0302
24875W        W40492   6.277  14.138  13.054  0.0931 -0.0438  0.0007
24876W        W40493   2.693   4.310  13.333  0.2594  0.0033  0.4965
24877W        W40494  13.511  18.538   2.214  0.0124  0.1342  0.1421
24878W        W40495   9.752  15.314  14.573  0.0773 -0.4385 -0.2681
24879W        W40496   1.135   8.181   2.693 -0.0674  0.1948  0.1516
24880W        W40497   5.434   0.060   9.653 -0.0523 -0.1683  0.2511
24881W        W40498  14.515  11.161   1.882  0.0001  0.1090 -0.0499
24882W        W40499  15.778   8.354   0.778  0.0901  0.0387  0.2985
24883W        W40500  14.928   4.067  12.497 -0.0844  0.0317 -0.0052
24884W        W40501   9.202  17.442  15.016  0.1935 -0.4164  0.1100
24885W        W40502  17.813   3.871  10.619 -0.0453 -0.1554 -0.0569
24886W        W40503   7.926   4.692  12.712 -0.3361 -0.0761  0.0330
24887W        W40504   4.160   0.996   4.145  0.2069 -0.0484  0.2061
24888W        W40505  18.846  11.795   0.637  0.0810 -0.1199 -0.1292
24889W        W40506  11.780  11.187   2.045 -0.0141 -0.0489  0.0085
24890W        W40507   6.251   9.770  11.184  0.3621  0.0882 -0.0229
24891W        W40508   3.034   2.233   5.910  0.3670 -0.3146 -0.2411
24892W        W40509  14.977   9.385  14.399  0.2891  0.0187 -0.0451
24893W        W40510   0.938  11.597  12.563  0.4111  0.1345 -0.1812
24894W        W40511  12.945  14.375  14.630  0.2287  0.0049  0.0981
24895W        W40512   5.736   2.912  13.696  0.2275  0.1039  0.1674
24896W        W40513  12.892  18.133   4.730 -0.5214 -0.4033 -0.4038
24897W        W40514   7.441  16.117  14.746 -0.1794 -0.0168 -0.2326
24898W        W40515   9.220   2.363  15.201  0.1706 -0.3879  0.1169
24899W        W40516   6.954   0.345   1.956 -0.1519 -0.0698 -0.0231
24900W        W40517  14.288   8.886  11.362  0.0305 -0.0070  0.0540
24901W        W40518  17.830   4.945  12.226  0.1428 -0.2256 -0.0464
24902W        W40519  13.751  16.327   0.401  0.2790 -0.2852  0.2880
24903W        W40520   1.651  14.403  11.690 -0.1478  0.1106  0.1520
24904W        W40521   3.169   5.745   9.735  0.0089 -0.1746 -0.0312
24905W        W40522   2.865   9.369   0.741 -0.0408  0.0662  0.0739
24906W        W40523  11.784  16.023   3.519  0.0409  0.1678  0.1244
24907W        W40524  12.975  13.266   1.016 -0.0980 -0.1956 -0.1695
24908W        W40525  16.161  16.810  15.254 -0.0064 -0.0352 -0.1180
24909W        W40526  17.745   2.361  10.889  0.1990  0.1936 -0.1684
24910W        W40527  13.118   2.789  14.415 -0.2019 -0.0369 -0.1028
24911W        W40528   7.281   4.843  13.797  0.3346 -0.1782  0.2933
24912W        W40529   1.614   2.570   1.531  0.3237 -0.0181  0.1719
24913W        W40530  11.555  17.323   4.034 -0.0521 -0.0782  0.0792
24914W        W40531   2.154   3.502   5.773 -0.3461 -0.4566 -0.0199
24915W        W40532   7.715  16.884   0.743  0.2089 -0.3242  0.2361
24916W        W40533   1.645   3.371  11.197  0.2969  0.3054 -0.0122
24917W        W40534  15.632  16.610   5.543 -0.1930 -0.0502 -0.2456
24918W        W40535   6.304   7.512  11.657 -0.2988  0.3847 -0.0535
24919W        W40536   5.624  16.467   0.574  0.0673 -0.2118 -0.2003
24920W        W40537   5.268  13.923   4.427  0.2739 -0.0848 -0.2400
24921W        W40538  15.166  13.302  13.735  0.0373  0.0542  0.1907
24922W        W40539   9.160  19.068   2.934 -0.2940  0.3215  0.1639
24923W        W40540   3.269  13.933  14.995 -0.2235  0.0726  0.2637
24924W        W40541  18.950  17.790  15.177  0.3982  0.0215  0.3951
24925W        W40542  13.514   4.803   3.935  0.0754 -0.0130 -0.1212
24926W        W40543   8.359   5.969  14.435  0.0449  0.3733 -0.3112
24927W        W40544   1.348   1.865   2.305 -0.4298 -0.2520 -0.2310
24928W        W40545   8.292   4.702   3.412 -0.1974 -0.2694  0.2482
24929W        W40546   1.084  18.214   0.876 -0.1278 -0.2237  0.0978
24930W        W40547  12.926   2.251   0.624 -0.1432 -0.0089 -0.1343
24931W        W40548  18.024  18.508   5.421  0.0725 -0.2118  0.1304
24932W        W40549   3.049  17.086   3.189 -0.0210  0.0784 -0.0650
24933W        W40550  12.357  16.545  11.728  0.1100  0.5259  0.2205
24934W        W40551  11.061  15.221   1.319  0.0882  0.0307  0.3287
24935W        W40552   0.645  13.757   5.336  0.2045  0.0843 -0.2962
24936W        W40553  14.044   4.070   0.878  0.0619  0.1662  0.0057
24937W        W40554  15.413   0.199   2.395  0.3748  0.0313 -0.1241
24938W        W40555   7.774   0.903   0.268 -0.3615  0.0650  0.4337
24939W        W40556  10.637  13.433  12.315  0.0929 -0.2360  0.1170
24940W        W40557   9.101   9.740  11.834 -0.1742 -0.4242 -0.0819
24941W        W40558  14.660   4.858  11.360 -0.2310 -0.4001  0.0287
24942W        W40559   9.719   0.640   4.565 -0.0188 -0.0818  0.0653
24943W        W40560  13.176   5.230   5.310 -0.3071  0.0860  0.2242
24944W        W40561  16.858   6.316  13.681 -0.3118 -0.0021 -0.2314
24945W        W40562   8.432   4.883   4.245 -0.1246 -0.3803 -0.0194
24946W        W40563   7.487   5.744  13.632 -0.1117 -0.0904 -0.2296
24947W        W40564   0.595   1.381   1.783  0.2432 -0.0299  0.2144
24948W        W40565  18.627   5.303  15.275 -0.0768 -0.1580 -0.3169
24949W        W40566  17.272  11.368   3.688  0.0578  0.0934 -0.0607
24950W        W40567  14.143   4.401  11.793  0.2544  0.0759 -0.1609
24951W        W40568   8.139   5.055  10.553  0.1283  0.0489  0.1122
24952W        W40569   3.306   7.605  15.175 -0.3269  0.0371 -0.0914
24953W        W40570  15.147  15.880  12.545  0.2713  0.0782  0.0884
24954W        W40571   5.059  12.100   4.353 -0.4263 -0.0772 -0.1703
24955W        W40572   0.417   6.554  14.604 -0.0709  0.2722  0.0327
24956W        W40573  18.396   7.218   4.321 -0.1352 -0.0214 -0.1391
24957W        W40574  15.955   5.352   2.813  0.4192 -0.0065 -0.0285
24958W        W40575   2.670  11.409   1.466 -0.0457  0.2698  0.2025
24959W        W40576   8.680   2.750   3.508  0.0087  0.2212  0.1194
24960W        W40577  15.981  12.546  11.803 -0.0899  0.2205 -0.0679
24961W        W40578  14.766   6.868   3.677  0.0194 -0.2145 -0.0562
24962W        W40579   5.815   8.309   0.728  0.1493  0.2142 -0.0112
24963W        W40580  13.879   1.946  14.292 -0.0920  0.1341 -0.1081
24964W        W40581   6.022   9.426  13.546 -0.1608  0.2927 -0.1922
24965W        W40582   0.183  15.670  11.299 -0.1193 -0.1443  0.1103
24966W        W40583  17.273  13.830  12.205  0.2309  0.0054 -0.2482
24967W        W40584   6.074   7.311   1.469 -0.0126  0.0984 -0.0272
24968W        W40585   3.226   1.742   1.030 -0.4218  0.1736  0.0825
24969W        W40586   2.980  16.455   3.756  0.2637 -0.1647  0.3049
24970W        W40587  15.440   6.755   4.652 -0.0899  0.0950 -0.4344
24971W        W40588   8.944  14.215   0.449  0.1916  0.0360  0.1371
24972W        W40589  13.301   3.286  13.221 -0.0996 -0.3758  0.2435
24973W        W40590  16.209   3.684  14.783  0.0109 -0.0854  0.0718
24974W        W40591  14.086   5.232  10.681  0.0382  0.1268 -0.0140
24975W        W40592   5.804  12.495  10.545  0.3366 -0.2435 -0.0907
24976W        W40593  10.142   5.829   3.625  0.1971  0.0884  0.0246
24977W        W40594  11.073  16.595   5.395  0.0605 -0.0419 -0.1213
24978W        W40595  16.168   7.586   4.764 -0.2788 -0.0677 -0.0243
24979W        W40596   3.551  17.693   1.838  0.2407 -0.0076 -0.0704
24980W        W40597   5.314   8.601   3.420 -0.4312  0.1452 -0.0120
24981W        W40598  17.632   8.570  11.759  0.0610 -0.0510  0.0372
24982W        W40599   7.715   9.457  14.625 -0.3451 -0.2002 -0.0073
24983W        W40600  18.279  16.644   1.991 -0.0271 -0.3402  0.0729
24984W        W40601   8.268  18.914   0.995 -0.0804 -0.3329 -0.3003
24985W        W40602  14.005   8.762   0.006 -0.2948  0.3789 -0.1371
24986W        W40603  12.060   1.129  14.552  0.1137 -0.0563 -0.5502
24987W        W40604  10.123   1.773  12.468 -0.1491 -0.0192 -0.0283
24988W        W40605   1.626  14.872  12.910 -0.0086  0.1552  0.1435
24989W        W40606   1.242   5.054  15.056 -0.1641 -0.0529 -0.1066
24990W        W40607   6.019  18.085  12.923 -0.2487 -0.0924 -0.0358
24991W        W40608   8.305  18.429   2.249 -0.3761 -0.0346 -0.3244
24992W        W40609   1.892   3.122  13.116 -0.0902  0.1485  0.3843
24993W        W40610   3.970   8.418  13.051  0.2928  0.1861 -0.0617
24994W        W40611   4.934   3.752   6.129  0.0354 -0.2055  0.0547
24995W        W40612   0.707   2.959   5.253  0.1869  0.2438 -0.2855
24996W        W40613   7.565  12.970   0.941  0.1212  0.1251 -0.1310
24997W        W40614  14.161  10.942   0.747  0.0044 -0.1685  0.2761
24998W        W40615  13.947   7.572  11.315 -0.0122  0.3179  0.1620
24999W        W40616  16.458   0.108  11.812 -0.1082 -0.0376 -0.0490
25000W        W40617  15.425  13.186  12.809 -0.0913 -0.2300 -0.4395
25001W        W40618   9.114  18.778   0.535 -0.3153 -0.1012  0.0209
25002W        W40619   7.277  17.029   3.989  0.1294  0.0852 -0.0584
25003W        W40620   7.541   0.845   0.805  0.1489 -0.1067 -0.1025
25004W        W40621   6.980  13.719  10.520 -0.4226  0.1317 -0.0483
25005W        W40622  18.995  14.322   3.755 -0.1388 -0.1524  0.0871
25006W        W40623   0.151   4.005   3.396 -0.0061 -0.0931  0.0036
25007W        W40624  18.869  13.145   5.446 -0.0646  0.0481  0.3492
25008W        W40625   5.466  18.303   3.885 -0.3903 -0.0386 -0.0329
25009W        W40626   8.698  16.189  14.161  0.1286  0.2813 -0.3888
25010W        W40627  16.779   0.458   2.380 -0.1095  0.0462 -0.0022
25011W        W40628   5.729  18.012   4.862  0.1164 -0.4023  0.0982
25012W        W40629   0.956   1.887   3.040  0.2780 -0.2443  0.1248
25013W        W40630   4.084  13.241   3.420  0.0366 -0.4239 -0.0468
25014W        W40631   4.886  12.695  12.046  0.0611  0.2089 -0.1029
25015W        W40632   0.045  16.362   3.515 -0.0099  0.1729 -0.1775
25016W        W40633   8.495  10.053  10.744  0.1175 -0.0186  0.0319
25017W        W40634  16.072  11.680  15.177 -0.2108 -0.0168  0.1244
25018W        W40635   2.348  10.906  13.614 -0.4114  0.1953 -0.0362
25019W        W40636  16.331  12.442  13.574 -0.1910 -0.0131 -0.4496
25020W        W40637   0.592  12.605  11.297 -0.0083  0.0584 -0.1392
25021W        W40638  18.102   5.007  13.580  0.1191 -0.0579 -0.0061
25022W        W40639  10.878  10.049  13.865 -0.0183 -0.2647  0.0021
25023W        W40640   8.684   9.041   3.991  0.1431 -0.1237  0.0668
25024W        W40641   6.538  14.258   3.717 -0.2345 -0.1083  0.1006
25025W        W40642  15.131  15.062   2.897 -0.0026  0.0970 -0.0130
25026W        W40643   8.861  13.151   0.892 -0.1871  0.0717  0.2863
25027W        W40644  11.551  11.901  11.306 -0.3165 -0.0930  0.0915
25028W        W40645  13.428   8.831   3.457  0.0340 -0.1466  0.1844
25029W        W40646   4.656   5.136   4.813 -0.0766  0.1749 -0.4171
25030W        W40647  16.515  12.507   0.780  0.4132  0.1669 -0.2384
25031W        W40648  11.319   4.209  14.237 -0.2682  0.2166 -0.1957
25032W        W40649   5.089  14.605  12.780 -0.1596 -0.2320  0.3140
25033W        W40650  18.604   1.708   1.665  0.1096 -0.1434  0.1495
25034W        W40651   2.809  14.584   2.677 -0.4192  0.2371  0.3048
25035W        W40652   9.152   5.625  14.739  0.1026 -0.0344 -0.1876
25036W        W40653  18.553  10.733  14.738  0.3793 -0.1226  0.2359
25037W        W40654   6.200  18.647  15.055 -0.0421 -0.2325  0.2004
25038W        W40655  18.282  18.235   2.901 -0.3093  0.2895  0.3222
25039W        W40656  15.944  11.171   3.120 -0.2193 -0.0941  0.1268
25040W        W40657   1.988   3.194   2.294 -0.0669  0.1478 -0.1869
25041W        W40658  16.136   6.353   3.642  0.0100  0.2450 -0.1158
25042W        W40659   9.855   7.086  12.912 -0.1887 -0.0773  0.2422
25043W        W40660  17.693   7.655   4.134  0.1848  0.2474 -0.1164
25044W        W40661   4.385   6.008   2.904 -0.2670  0.0483  0.1545
25045W        W40662  10.153  11.116   4.928 -0.2132  0.0290 -0.3963
25046W        W40663  14.805   1.039   0.627  0.0543  0.2423 -0.0981
25047W        W40664  15.782   3.888  10.322 -0.2610 -0.5125  0.0929
25048W        W40665   3.314   5.405  13.025 -0.1042 -0.1717 -0.1389
25049W        W40666   7.400  18.505  13.324 -0.0942 -0.4038 -0.1631
25050W        W40667  17.439   9.020   3.222  0.1673  0.4797 -0.1991
25051W        W40668  14.340  14.910  11.485  0.3142 -0.0571 -0.2567
25052W        W40669   0.811  18.647   0.919 -0.2492 -0.1847  0.3143
25053W        W40670  13.038   2.265   5.581  0.2620 -0.3295 -0.1819
25054W        W40671   6.635   6.246  11.162  0.0630 -0.2526  0.2810
25055W        W40672  10.076  15.948  13.119 -0.0977 -0.0504 -0.0717
25056W        W40673   2.451  18.062   0.551  0.0666  0.2002  0.4814
25057W        W40674  10.198  18.002   3.011  0.3206 -0.3532  0.2395
25058W        W40675   8.754   1.007   3.215 -0.3446 -0.0812 -0.1491
25059W        W40676  15.590   0.448  11.363  0.1433  0.0897  0.0414
25060W        W40677   7.262  11.317   0.489  0.1786  0.4793 -0.1216
25061W        W40678  17.874  13.875   3.252  0.0055 -0.2156 -0.2611
25062W        W40679  12.037  19.016   3.637 -0.0076  0.1058  0.1031
25063W        W40680   9.330   3.032   1.511  0.3223  0.0035 -0.0355
25064W        W40681   2.868   3.296   5.065 -0.2394 -0.3513 -0.0103
25065W        W40682  10.012   0.885   4.161  0.2436 -0.2917 -0.2506
25066W        W40683   5.108  18.595   0.225 -0.0178 -0.4463 -0.0119
25067W        W40684   3.314   7.361  13.378  0.1307  0.1187 -0.0529
25068W        W40685  11.070   7.342  10.148  0.0849  0.2993  0.0766
25069W        W40686   4.795  15.358   2.517  0.1063  0.1171 -0.5344
25070W        W40687   6.766  14.667  10.750 -0.0630  0.1916 -0.3099
25071W        W40688  12.037  11.935  12.663 -0.1286 -0.1612  0.0449
25072W        W40689   8.133  13.702   0.605 -0.0231  0.1255 -0.0823
25073W        W40690   7.146   9.375  11.628  0.3731 -0.1706  0.2618
25074W        W40691   7.021  12.962   2.218 -0.0533 -0.1058 -0.1578
25075W        W40692  17.461   8.403   1.371 -0.2750  0.0724  0.1623
25076W        W40693   0.940   0.949   3.894  0.1888  0.0060  0.1701
25077W        W40694  16.338   0.366   1.043  0.1816  0.0063 -0.0624
25078W        W40695  18.039   8.594  14.927 -0.2197  0.0575 -0.2259
25079W        W40696  11.113  11.636  11.235  0.0493  0.0442  0.1166
25080W        W40697  15.266  18.469   1.975  0.1042 -0.2894  0.1955
25081W        W40698   1.777   7.607  14.834 -0.1117  0.3100 -0.2137
25082W        W40699   9.271   4.863   3.294  0.1632  0.1824 -0.0120
25083W        W40700  11.404  16.743   0.212  0.1115 -0.0047 -0.2450
25084W        W40701   7.717   0.677  11.191  0.0369  0.0160  0.2262
25085W        W40702   5.398  11.239  11.742 -0.1677  0.2102 -0.2513
25086W        W40703  12.063   9.159   0.393  0.2206 -0.0101  0.3176
25087W        W40704  13.785  18.387  10.911 -0.0154  0.0594 -0.2739
25088W        W40705  14.474   0.347   1.216  0.0987 -0.0453 -0.0880
25089W        W40706   8.211   3.119  14.570  0.0649  0.1492 -0.0319
25090W        W40707  14.823   2.690  12.811 -0.2329 -0.2827  0.1027
25091W        W40708  17.687   8.280   4.740  0.0776  0.1394 -0.1761
25092W        W40709  16.591   6.360  10.723  0.2690 -0.1054 -0.1626
25093W        W40710  15.596   4.662   0.590  0.0377 -0.4169  0.0042
25094W        W40711   5.787   5.259   5.657 -0.3423  0.3340  0.0418
25095W        W40712   7.347  11.527  13.143  0.0460  0.1140  0.1862
25096W        W40713   1.709  17.307  13.510 -0.1530 -0.1720 -0.0149
25097W        W40714   9.922  18.477  11.652 -0.1681 -0.0416 -0.1295
25098W        W40715   2.194  16.673   0.252 -0.2908 -0.1956  0.2034
25099W        W40716  10.436   8.520   4.441  0.1436  0.1561  0.0587
25100W        W40717  14.906  18.410   1.533  0.0402 -0.0148 -0.2015
25101W        W40718  12.095  17.952  12.893  0.0777  0.1094 -0.0789
25102W        W40719   0.400   2.102   3.371  0.0847 -0.1319  0.0468
25103W        W40720  10.526   9.878   2.102 -0.1268  0.2727  0.2899
25104W        W40721  17.623   2.469  13.562 -0.1479  0.3649  0.0003
25105W        W40722   6.947   0.681   2.897  0.1759  0.1681 -0.2038
25106W        W40723   9.082  17.963   1.400 -0.1264  0.1780 -0.0606
25107W        W40724  13.100  13.215   2.142  0.1663  0.1929  0.1592
25108W        W40725  13.533  10.402   3.748  0.0718  0.1383  0.0409
25109W        W40726  15.556   1.493   1.614  0.3872 -0.0426 -0.2233
25110W        W40727  12.692  10.836  12.622  0.1305 -0.0384 -0.3304
25111W        W40728   4.755   3.539   3.208  0.0721  0.0136  0.1694
25112W        W40729  14.019   5.754  11.987 -0.1663  0.0250  0.3564
25113W        W40730   5.199   8.372   4.786  0.3341 -0.1867 -0.2288
25114W        W40731  14.417   4.234   1.712 -0.2799  0.0255 -0.1056
25115W        W40732   3.104   8.538  13.774 -0.0645 -0.3637  0.0556
25116W        W40733  13.501  14.179  11.620 -0.3025  0.2817  0.0429
25117W        W40734   1.300  18.367  12.991 -0.3615  0.0974  0.0160
25118W        W40735   8.059   9.825   3.104  0.1329 -0.3142  0.2317
25119W        W40736  15.971  16.550   5.933  0.1327  0.0040 -0.0697
25120W        W40737  12.322   4.756  12.333  0.0245  0.0749  0.2858
25121W        W40738   5.460   7.047   5.417  0.0694 -0.0041 -0.0902
25122W        W40739  11.994   4.939   0.788 -0.1275  0.0738 -0.1621
25123W        W40740  10.881   2.856   0.929  0.3313  0.0235  0.0154
25124W        W40741   3.567   9.117   2.538  0.0242 -0.0167 -0.1411
25125W        W40742   3.745   7.114  11.326  0.0591  0.0252 -0.1584
25126W        W40743  13.866  15.763   3.582  0.0085 -0.1103 -0.1223
25127W        W40744   7.527  16.025  10.547  0.0716 -0.1564  0.3336
25128W        W40745   0.870   7.712   1.361  0.2591  0.2710 -0.1968
25129W        W40746  17.689   5.063   0.031  0.2415 -0.0889  0.1725
25130W        W40747  11.162   2.396   3.340  0.0549 -0.5084 -0.0781
25131W        W40748  10.989   5.433   2.558 -0.1921  0.2969  0.2525
25132W        W40749   2.923  15.762   5.046 -0.0947 -0.1499 -0.0129
25133W        W40750   2.274  16.939  14.120  0.0386 -0.2646 -0.2215
25134W        W40751   7.802  13.159   3.090 -0.3221  0.2493  0.1224
25135W        W40752   7.975   4.658   2.495 -0.0196 -0.1576  0.2410
25136W        W40753   0.681   0.808   3.331  0.0599  0.2093 -0.1389
25137W        W40754   2.202  11.979  10.158  0.1386 -0.0739 -0.2468
25138W        W40755  11.680  13.782  14.903 -0.0047  0.1222  0.0017
25139W        W40756  17.486  15.129   3.691 -0.5457 -0.3408 -0.2175
25140W        W40757  18.791  13.815  10.631 -0.0689  0.2170 -0.1298
25141W        W40758  18.140  18.048  12.170 -0.0943 -0.1377  0.0175
25142W        W40759  17.686  12.320  13.270  0.1563  0.0667 -0.1577
25143W        W40760   6.036  11.064   0.013 -0.2988  0.1272 -0.1616
25144W        W40761   0.473  16.594   0.429 -0.1654 -0.2261  0.0377
25145W        W40762  14.067  16.251   5.320 -0.2872 -0.1072  0.1388
25146W        W40763   8.611   4.510  11.067  0.2405 -0.1160 -0.1465
25147W        W40764   8.242  18.190   4.659 -0.2486 -0.0408  0.0448
25148W        W40765  18.107   9.749  11.345 -0.3971  0.2670  0.1277
25149W        W40766   0.028   3.812  10.818  0.1020  0.0499  0.1140
25150W        W40767  15.036  16.886  13.723 -0.1409 -0.0666  0.1730
25151W        W40768  11.209   3.823   1.323  0.1378  0.1394  0.1384
25152W        W40769   4.596  17.680   0.785 -0.0657  0.1079 -0.1502
25153W        W40770  17.894   4.151  13.224 -0.0764 -0.3133 -0.1278
25154W        W40771   1.119   3.961   5.302  0.0313 -0.0820  0.1166
25155W        W40772  15.898  16.369  14.624  0.1618 -0.3118 -0.1848
25156W        W40773   4.616   2.239  14.219  0.0169  0.0674 -0.1827
25157W        W40774   2.505  18.119  11.348  0.0634 -0.0036  0.1551
25158W        W40775  10.054   1.814   2.672  0.2941 -0.2608 -0.2662
25159W        W40776   8.650   0.088  14.699  0.1074 -0.1790  0.0345
25160W        W40777  14.455   9.986   3.422  0.1334  0.0874  0.0560
25161W        W40778   3.188   7.137   2.036  0.0778  0.1136  0.1025
25162W        W40779   9.730  14.081   1.054 -0.1289 -0.0859 -0.2480
25163W        W40780  12.801   5.333  12.590 -0.3143  0.0852  0.1978
25164W        W40781   0.618  13.463  10.593  0.0481 -0.1439  0.1023
25165W        W40782   9.425  18.893   0.162  0.0571 -0.3717 -0.0958
25166W        W40783  12.643  13.924   1.493  0.1925  0.1828  0.0313
25167W        W40784  15.145   7.635  10.611  0.1843  0.0736 -0.0820
25168W        W40785   9.226  13.528  13.740 -0.2317 -0.2978 -0.0576
25169W        W40786   3.091  13.125  14.828 -0.0828 -0.2206 -0.2972
25170W        W40787   1.149   1.735   4.786  0.0879 -0.0335  0.0348
25171W        W40788  11.007   8.125   1.739 -0.0752  0.5244  0.0705
25172W        W40789  11.540  12.828   5.927  0.0673  0.4718 -0.1811
25173W        W40790   4.556   1.328  12.935  0.4621  0.0894 -0.2482
25174W        W40791  18.331  12.588   4.735 -0.2081  0.0054  0.0314
25175W        W40792  15.255   3.608   4.798  0.1880 -0.2938 -0.1786
25176W        W40793  10.638  16.148   3.842  0.2016 -0.2417  0.3361
25177W        W40794   2.902   1.366   0.004 -0.3178  0.1120 -0.3654
25178W        W40795   1.758   9.181  13.685  0.0419  0.1566 -0.2502
25179W        W40796  17.613  18.399  12.737  0.3308 -0.2300  0.2796
25180W        W40797   0.378   0.454  14.503 -0.1902  0.0245 -0.2091
25181W        W40798  12.186  12.901   4.079 -0.0841  0.0421  0.2749
25182W        W40799   3.686  14.460  15.082 -0.1226  0.3960 -0.1200
25183W        W40800  16.064  15.715   3.321  0.1688  0.3002  0.0484
25184W        W40801  10.979   6.024  10.128 -0.1276 -0.2252 -0.0164
25185W        W40802   1.946   4.163   1.847 -0.0005 -0.1897  0.0752
25186W        W40803   0.450   9.357  15.275  0.2146  0.3300  0.1569
25187W        W40804   2.102  11.354   0.036 -0.0866 -0.1308  0.1673
25188W        W40805   5.285  10.879   3.409 -0.3151  0.1929  0.1499
25189W        W40806   7.762   5.157   2.407  0.0084  0.1586  0.3142
25190W        W40807   1.159   5.437   2.177  0.2517 -0.2634 -0.2071
25191W        W40808   8.270  10.425  14.501  0.0632  0.3743 -0.3792
25192W        W40809  14.632   0.797   9.513 -0.2401 -0.0290 -0.1193
25193W        W40810   0.509   9.738   1.920 -0.3043 -0.0782  0.0214
25194W        W40811  13.676  11.637  12.427  0.2925  0.2756 -0.1890
25195W        W40812   0.967  18.994   4.350  0.0807 -0.0053 -0.0357
25196W        W40813  15.243   6.003  14.053  0.1874 -0.0498 -0.1497
25197W        W40814   7.862  12.064   0.114 -0.2081  0.0232 -0.2806
25198W        W40815  11.631   2.912   4.045 -0.1790 -0.1278 -0.1023
25199W        W40816   0.464  11.880  14.660 -0.0798  0.0534  0.0128
25200W        W40817  16.365  13.917  11.749 -0.0961 -0.0954  0.0791
25201W        W40818   1.481  16.139   0.217  0.1187 -0.2851  0.1904
25202W        W40819  12.591   9.144   1.153 -0.3527 -0.0482 -0.2952
25203W        W40820  14.641  15.704   4.112 -0.0785 -0.2993 -0.0293
25204W        W40821   3.671  16.765  10.606  0.5137 -0.2454  0.0117
25205W        W40822  11.913   9.678  10.819  0.0468 -0.0739  0.0856
25206W        W40823  14.448  17.171  12.201 -0.0661 -0.5758 -0.0637
25207W        W40824  17.533  17.029  14.033  0.1249 -0.1218 -0.0827
25208W        W40825  14.358  11.704   2.783  0.0715  0.1658 -0.0192
25209W        W40826   0.217   8.874   1.005  0.1191  0.0848 -0.0821
25210W        W40827   7.073  13.757  12.920 -0.1215  0.0681 -0.0871
25211W        W40828   2.452   9.239   0.504  0.0530  0.1605 -0.1729
25212W        W40829  13.921  13.179  13.137 -0.1031  0.0756  0.0278
25213W        W40830  11.315  10.473   4.141  0.0870 -0.1364 -0.0510
25214W        W40831   6.558   0.271   9.684 -0.4126 -0.0734  0.2365
25215W        W40832   9.943   9.843  10.580 -0.0131  0.1468  0.0906
25216W        W40833   7.179   9.625   2.598 -0.0015 -0.0120  0.0507
25217W        W40834  10.891  11.406  14.418  0.2813  0.0823  0.0546
25218W        W40835   1.827  18.269   1.099  0.2639 -0.1359  0.2348
25219W        W40836  14.005  15.065   1.423 -0.1914  0.0699 -0.2545
25220W        W40837   6.635  12.715   4.388 -0.1333 -0.1144 -0.0454
25221W        W40838   6.754   3.009  14.261  0.0683  0.3935 -0.0092
25222W        W40839  17.351  18.979   4.499 -0.3359 -0.2655  0.1352
25223W        W40840   5.015  11.376   2.466 -0.1520  0.4374 -0.0560
25224W        W40841   3.224  12.729   0.232  0.1664  0.2038 -0.0416
25225W        W40842   7.873  17.341  12.206  0.0699  0.1457  0.1103
25226W        W40843  16.705   2.663  13.825 -0.0106 -0.1303 -0.0822
25227W        W40844   1.426   0.181  14.630  0.0130 -0.3793 -0.0503
25228W        W40845   0.718  11.719   4.770  0.2032  0.3680 -0.0523
25229W        W40846   2.840  18.353  12.307 -0.2378 -0.1502 -0.0638
25230W        W40847   8.343  12.374   4.203 -0.0479  0.0143  0.5503
25231W        W40848   6.069  15.520  10.495 -0.0067 -0.0823 -0.0862
25232W        W40849   7.040   1.479   3.577 -0.1493  0.2724  0.2656
25233W        W40850   5.716   1.186  11.271  0.1719 -0.2170 -0.1404
25234W        W40851  17.979   7.353   2.498  0.0464 -0.1663 -0.3141
25235W        W40852   7.289   0.772  12.320 -0.4121  0.4608 -0.0598
25236W        W40853   0.426  15.334  13.878  0.0824 -0.0752  0.1486
25237W        W40854   0.821   2.382  11.160 -0.3581  0.3039  0.2076
25238W        W40855  17.289   7.447  10.812 -0.0026  0.0492  0.0219
25239W        W40856   5.826   3.023   1.726 -0.0231 -0.0481  0.2237
25240W        W40857   7.737   5.977   3.606 -0.0065  0.1714  0.2179
25241W        W40858   5.916   2.654  10.637 -0.0851  0.2944 -0.0262
25242W        W40859   3.185  14.318  14.143  0.0405 -0.1241 -0.0831
25243W        W40860   3.665  10.869   0.517 -0.1616  0.1270 -0.0197
25244W        W40861  17.104   1.753  13.831 -0.1799 -0.0710  0.0406
25245W        W40862  10.922  16.115  12.614  0.1235  0.0480  0.1011
25246W        W40863  15.071  14.900   4.446 -0.0160  0.0698  0.0829
25247W        W40864   3.052   9.677   3.140 -0.2903 -0.0250  0.1049
25248W        W40865   9.936   7.843  12.502 -0.5653 -0.4609  0.1129
25249W        W40866   3.846   3.136  13.385 -0.0233 -0.0639 -0.2835
25250W        W40867  14.646   6.506  15.155 -0.5736  0.2073 -0.1024
25251W        W40868   3.939  17.421  12.383  0.0965  0.0878  0.1015
25252W        W40869  15.716  17.625   1.367 -0.0646 -0.1068 -0.1063
25253W        W40870   0.597  14.898  11.765  0.0601 -0.3803 -0.2809
25254W        W40871   7.156   6.709   0.436  0.0960  0.1148 -0.0011
25255W        W40872  12.689  17.625  14.713 -0.2075  0.1110 -0.2059
25256W        W40873  10.998  10.174   3.131  0.2979 -0.2185 -0.1081
25257W        W40874  17.397  11.901  13.294 -0.0358 -0.0680 -0.3303
25258W        W40875  11.533   9.176  12.493 -0.2562  0.0538  0.2582
25259W        W40876  13.045   3.793   0.208 -0.0477 -0.0591 -0.0278
25260W        W40877   6.605   2.551  11.387  0.0539 -0.1544  0.0102
25261W        W40878   8.927   4.916   5.134  0.0416  0.0674 -0.4558
25262W        W40879  10.533   1.774  12.208 -0.0090  0.1224 -0.2008
25263W        W40880  14.406  13.705  11.347  0.0696 -0.0890  0.1185
25264W        W40881   9.899   4.807  15.075  0.3885  0.2046 -0.0514
25265W        W40882   2.958   3.759  14.023  0.0749 -0.0874 -0.3705
25266W        W40883  16.793   6.734   4.252  0.2600  0.0957 -0.0528
25267W        W40884  13.196   4.840   4.955 -0.0911  0.2251 -0.1917
25268W        W40885   1.661   6.902  11.672  0.1490 -0.2632 -0.2289
25269W        W40886  12.740  16.858  12.722  0.1576  0.2236  0.3882
25270W        W40887   6.682  10.367  13.907 -0.0117 -0.0130 -0.0729
25271W        W40888   8.053   6.844  14.087 -0.1047  0.2507 -0.0720
25272W        W40889   5.229   0.655   1.512 -0.3002  0.1792 -0.1945
25273W        W40890  12.734   7.495   0.718 -0.2586 -0.0457  0.0206
25274W        W40891  15.343   9.056   2.402  0.1380  0.1392 -0.2980
25275W        W40892   2.754   9.903  12.571  0.4095 -0.2720  0.5272
25276W        W40893   4.695   2.464  13.335  0.1231 -0.3385  0.0163
25277W        W40894  10.193  17.566  13.727 -0.1759 -0.2036 -0.1940
25278W        W40895   9.251   5.748   9.779  0.1531 -0.2823  0.2141
25279W        W40896   6.364   2.780  10.519 -0.2555 -0.1736 -0.0085
25280W        W40897  16.388   4.063  11.056  0.1675  0.3273 -0.0957
25281W        W40898  12.471   5.818  12.409 -0.5053 -0.1541 -0.2361
25282W        W40899   2.636  16.341  11.501  0.1395  0.0014  0.0270
25283W        W40900  17.256  11.559   2.246  0.2741  0.2274  0.0821
25284W        W40901  11.585  10.476   2.504  0.0045  0.2356  0.2845
25285W        W40902  13.171  13.185   1.544  0.0113  0.1134  0.1254
25286W        W40903  11.790  17.095  14.830 -0.3048  0.1621 -0.2343
25287W        W40904   1.666  10.809  14.378 -0.1033 -0.2187 -0.0617
25288W        W40905   4.096  18.702   2.105 -0.3048 -0.1375 -0.1949
25289W        W40906   3.057  18.484   4.870 -0.0131 -0.1896 -0.1758
25290W        W40907   6.045  10.632  10.486 -0.1677  0.4440 -0.1463
25291W        W40908   2.649   6.195   1.941 -0.0929  0.1091  0.1009
25292W        W40909   7.409   3.719  14.859  0.5782  0.0179 -0.1591
25293W        W40910   6.410  17.596  10.605  0.0585  0.0280  0.2677
25294W        W40911   7.928   4.919   3.720 -0.0198  0.1465 -0.0643
25295W        W40912   8.847  13.761   3.985 -0.0841  0.0826 -0.0634
25296W        W40913  11.522  13.749   0.508 -0.0855 -0.1649 -0.0445
25297W        W40914  11.788  18.808  13.561 -0.2479 -0.0531 -0.1460
25298W        W40915  10.162   8.568  14.113  0.1733 -0.2501  0.2121
25299W        W40916   9.385  13.511  11.866 -0.0784  0.0900  0.0324
25300W        W40917   5.799   0.315   1.976 -0.2037 -0.0657 -0.1703
25301W        W40918   4.799  15.827  11.771  0.3440  0.1259  0.0593
25302W        W40919   4.087   8.512  13.998  0.0584 -0.0772  0.1357
25303W        W40920   3.500   3.667   0.522 -0.0889 -0.0691  0.0822
25304W        W40921   8.961   8.273   0.983  0.1442  0.0850  0.0230
25305W        W40922  13.073   3.621   2.804 -0.2269  0.0701 -0.0321
25306W        W40923  11.638   6.953   3.494  0.0561  0.3321  0.1602
25307W        W40924  17.689  16.099   0.700 -0.0619  0.0090  0.1482
25308W        W40925   5.217  16.967  15.125  0.2264  0.1716 -0.0687
25309W        W40926  17.684   2.618   0.391  0.1109 -0.0063 -0.1517
25310W        W40927  16.151   2.403  12.248 -0.0747  0.1820  0.1429
25311W        W40928   4.936   2.965   2.385  0.1318  0.0397 -0.2641
25312W        W40929   8.609   4.296  12.197  0.0227  0.0144  0.0384
25313W        W40930   7.535   1.739   1.643  0.1008 -0.4366  0.0477
25314W        W40931  10.291  11.622   0.315  0.0901  0.1274  0.1096
25315W        W40932   2.810   2.572  10.207  0.0467 -0.3302 -0.2627
25316W        W40933  11.661  11.792   3.423 -0.1113  0.0443 -0.0064
25317W        W40934   8.592  12.648   1.256 -0.0302 -0.0797  0.0746
25318W        W40935   3.615   0.376  13.584  0.0797  0.1657  0.1037
25319W        W40936  14.037   5.365   2.822 -0.2793  0.0048  0.1854
25320W        W40937  17.463  10.767   4.089  0.3810 -0.0482 -0.0422
25321W        W40938  16.945   7.676   4.543  0.0783 -0.4579  0.4946
25322W        W40939   2.335  14.309  11.195 -0.0068  0.2310 -0.0643
25323W        W40940   6.228   4.424   4.691  0.2364  0.2339  0.1037
25324W        W40941  10.786  16.432  11.293  0.0781 -0.0571 -0.3592
25325W        W40942   0.912   9.023   0.584 -0.0595 -0.0429  0.1227
25326W        W40943  16.923  19.064   0.918 -0.1284 -0.1381  0.3177
25327W        W40944   9.900   7.631  10.656  0.0573  0.2005  0.0746
25328W        W40945  12.454   6.237   4.730  0.2127 -0.1983  0.1925
25329W        W40946  12.514  12.748  10.346  0.0361 -0.2423  0.0765
25330W        W40947   2.387  15.289  10.926 -0.1321 -0.0831 -0.3014
25331W        W40948  11.552   0.517   0.303 -0.0461  0.1393  0.0085
25332W        W40949  13.335   9.365   1.607  0.1725  0.2788  0.3595
25333W        W40950  18.253  12.439   3.453 -0.0023  0.1088 -0.1547
25334W        W40951   0.269  10.693  14.061  0.0423 -0.0530 -0.1455
25335W        W40952   5.753   0.003   3.581  0.3523 -0.1434  0.1819
25336W        W40953   0.781   3.646  12.873  0.0644  0.1705  0.2121
25337W        W40954   4.047  13.468   2.967 -0.2750  0.1427 -0.2963
25338W        W40955  12.706  12.634   3.254  0.1243 -0.0031 -0.0113
25339W        W40956  14.655  15.524  10.730 -0.0994 -0.3411 -0.0236
25340W        W40957   6.130   4.014   5.507 -0.2168  0.1866 -0.1266
25341W        W40958  14.447  11.874   4.892  0.2729  0.1087  0.3275
25342W        W40959   1.447   2.212   1.844  0.1966 -0.0162  0.0612
25343W        W40960   5.716  11.434   0.301  0.3208 -0.2418 -0.1149
25344W        W40961  13.455   1.565   0.393 -0.0249 -0.1042  0.1842
25345W        W40962   5.567   2.520   5.083  0.1699 -0.0420 -0.0134
25346W        W40963   0.825  16.229   3.589 -0.2861 -0.3304  0.2169
25347W        W40964   6.939   3.522  13.545 -0.0390  0.2094  0.1314
25348W        W40965  13.725   7.753  14.241  0.1078  0.1492 -0.1855
25349W        W40966   9.052   2.547   0.963 -0.1204 -0.1027 -0.1686
25350W        W40967  18.350   3.588  11.984  0.2831 -0.3850 -0.1768
25351W        W40968   2.231  16.042   5.574  0.1155 -0.0407  0.0889
25352W        W40969   6.170  18.390   2.380  0.4236  0.0132  0.2499
25353W        W40970   2.664   4.072   4.447 -0.0938  0.0182  0.1356
25354W        W40971  14.549  14.276  11.315  0.0285 -0.5111 -0.1002
25355W        W40972  14.204  18.336  12.716 -0.2716 -0.2465  0.3627
25356W        W40973   6.637  12.247  14.184 -0.1100  0.0502 -0.1317
25357W        W40974  11.097  18.689   0.433  0.0431 -0.2267  0.1901
25358W        W40975  17.245   3.392   1.879  0.0148  0.0308 -0.0248
25359W        W40976  14.018  10.045  10.747 -0.2471  0.0780  0.0898
25360W        W40977   8.201  13.477  13.482 -0.1455 -0.4083  0.2282
25361W        W40978  12.705  12.233  11.966 -0.1898  0.2457  0.4153
25362W        W40979   4.399   2.609  14.504  0.2591  0.0198 -0.2053
25363W        W40980  10.994  16.899  12.178  0.1797 -0.2634 -0.2121
25364W        W40981  18.227  16.589  13.881 -0.0988 -0.1102  0.0543
25365W        W40982  14.988  14.194  11.995  0.0493  0.1507  0.0861
25366W        W40983   8.831  10.147  11.684 -0.1640 -0.1378 -0.0953
25367W        W40984  14.417  18.992   0.046  0.0641  0.0648 -0.1003
25368W        W40985   8.747  13.098   3.825  0.2679 -0.4104  0.1239
25369W        W40986  18.021  10.213   2.430 -0.2225 -0.1229 -0.0036
25370W        W40987  12.408   5.469   0.198  0.0900 -0.1523 -0.1370
25371W        W40988  11.298   9.151  10.108 -0.0517  0.0689 -0.1602
25372W        W40989   1.508   3.743  14.408  0.2923 -0.3402  0.0989
25373W        W40990   7.457   4.495  12.890  0.0127  0.0253 -0.1794
25374W        W40991   0.199  14.477  14.007  0.0968 -0.1105  0.2512
25375W        W40992  16.631   4.129  13.716  0.1590  0.0206  0.1070
25376W        W40993   9.719   4.296  10.838 -0.1282  0.0017  0.0462
25377W        W40994  10.408  13.905  12.308  0.1708 -0.0851  0.1701
25378W        W40995   0.934   7.081  14.145 -0.0324 -0.1225 -0.0521
25379W        W40996   8.927   8.889   0.733 -0.2461  0.0360  0.1147
25380W        W40997  14.607  14.096   1.657 -0.1980  0.2874 -0.0357
25381W        W40998   8.647   2.944  14.457 -0.0655  0.1637 -0.0030
25382W        W40999   4.881   0.224   3.671 -0.1469  0.0764  0.1226
25383W        W41000  16.738  18.702   2.505  0.3675 -0.0407 -0.0119
25384W        W41001   6.714  15.198   4.174 -0.4393  0.2378 -0.1338
25385W        W41002  18.621  18.405  13.324  0.3104  0.1804  0.0169
25386W        W41003   8.187   2.480   1.795 -0.4116 -0.3138  0.2748
25387W        W41004  12.449   1.405  11.977  0.1171  0.0076 -0.1754
25388W        W41005  11.876  12.320   2.005  0.1254  0.2474 -0.1571
25389W        W41006   1.023  11.981  13.339 -0.0524 -0.0048  0.1975
25390W        W41007  10.648   4.468   4.120  0.1197  0.1076  0.1380
25391W        W41008  17.467   6.784  10.844  0.1557  0.3495 -0.1349
25392W        W41009   4.719   7.593  12.366  0.0154 -0.0697  0.3513
25393W        W41010  16.663  12.921   1.829 -0.0050 -0.2668  0.1145
25394W        W41011   0.318   1.856   0.964  0.4041 -0.0260 -0.0081
25395W        W41012   6.246   1.206   0.321 -0.4308 -0.0241  0.0221
25396W        W41013  13.688   4.964   3.105 -0.0791  0.4323  0.3903
25397W        W41014   9.345  15.959   3.116  0.1300 -0.0196  0.0122
25398W        W41015   0.134  18.120   2.913 -0.1305  0.0732  0.0108
25399W        W41016   5.357   4.319  12.239 -0.3005 -0.1120  0.1819
25400W        W41017   2.521  15.162  10.017  0.0808  0.0015 -0.3290
25401W        W41018  10.080  13.558  11.148  0.1101  0.0893 -0.1495
25402W        W41019  17.846   6.317  14.879 -0.1703  0.1362 -0.0067
25403W        W41020   9.927  14.944   6.153  0.2449  0.0687 -0.0711
25404W        W41021  17.147   9.164   1.551  0.1716  0.0448 -0.0470
25405W        W41022  18.900  12.995  11.533 -0.3160 -0.0005 -0.2879
25406W        W41023   1.769  12.879  14.683  0.3579 -0.0497  0.1177
25407W        W41024  11.391   7.981  13.588  0.3901 -0.1780  0.1528
25408W        W41025  12.336   0.717  14.718  0.0053 -0.0634  0.0623
25409W        W41026   9.941  14.230   4.862  0.0978  0.0958  0.0263
25410W        W41027   7.023  13.974   4.826 -0.1740  0.0148  0.1797
25411W        W41028   7.905  16.043   1.734  0.0026  0.0573  0.3192
25412W        W41029  17.067   7.364   2.630  0.3107  0.0016  0.0259
25413W        W41030   1.393   2.814  15.036  0.2719  0.1482 -0.4934
25414W        W41031  14.833  18.216   0.248  0.0700 -0.0300  0.1739
25415W        W41032  16.903   7.693   3.048  0.1111  0.0618 -0.2135
25416W        W41033  18.838   9.383  13.037  0.0886  0.4473 -0.1842
25417W        W41034   1.082   7.217   0.183 -0.0815 -0.1586 -0.1470
25418W        W41035   6.358   1.184   5.201  0.1543  0.2073 -0.1627
25419W        W41036   9.201   9.719  14.508 -0.1128  0.2311  0.0888
25420W        W41037   8.716  10.180   1.444  0.0261  0.0530 -0.0161
25421W        W41038   5.147   5.817  13.082 -0.2493  0.0015 -0.1764
25422W        W41039  19.057  10.521  11.444 -0.0689  0.0778  0.1110
25423W        W41040   5.248   2.927   5.268  0.2608  0.4019  0.3084
25424W        W41041  10.722   4.730   2.942 -0.0599 -0.0554  0.0073
25425W        W41042  10.233  12.719   3.594 -0.0348  0.0700 -0.2310
25426W        W41043   4.437  12.284   1.061 -0.2691 -0.1069  0.2142
25427W        W41044  18.914   7.596  12.604  0.4804  0.3818  0.1486
25428W        W41045  10.476   1.333  11.389  0.2600 -0.1845 -0.0485
25429W        W41046  14.964  11.531   2.061  0.0949  0.0034  0.0538
25430W        W41047   5.348  15.653   1.510 -0.0010 -0.1053  0.0975
25431W        W41048  11.255   9.018   4.795  0.0719  0.1574 -0.1065
25432W        W41049   3.319   0.112   5.260  0.1827  0.1166  0.0782
25433W        W41050  18.932   2.876   0.267 -0.2862 -0.0591  0.0364
25434W        W41051   6.271  18.440   3.719 -0.1311  0.3285 -0.0850
25435W        W41052   0.601  13.569  12.791  0.0742  0.2020 -0.0184
25436W        W41053   8.974  18.949   4.539 -0.2370 -0.0125 -0.0581
25437W        W41054  13.066  12.375  13.395 -0.0954  0.0499  0.2312
25438W        W41055  13.370  16.241   1.922  0.0602  0.2029  0.2132
25439W        W41056   9.319  14.143   3.795 -0.1682 -0.1569 -0.0427
25440W        W41057   0.903   6.778  13.484 -0.0035 -0.1544 -0.1183
25441W        W41058  15.545   2.274   5.111 -0.2169 -0.1230 -0.1106
25442W        W41059   1.646   3.198   3.384  0.0391 -0.0356  0.0670
25443W        W41060  16.530  11.653   1.236  0.1267  0.0253  0.2665
25444W        W41061  14.690  10.182   0.157 -0.2549 -0.0956  0.1955
25445W        W41062   3.992  17.643   1.541 -0.2136  0.1212 -0.1061
25446W        W41063  19.066   7.018  13.197  0.2611 -0.0229 -0.2030
25447W        W41064   5.947  10.240  12.254  0.0767 -0.1937  0.0496
25448W        W41065  17.894   8.702   1.848  0.1499  0.2869 -0.1295
25449W        W41066  10.961  12.673  13.389 -0.1888 -0.2300  0.1712
25450W        W41067  14.554  10.870   5.044 -0.3059 -0.1850 -0.0642
25451W        W41068  14.556  13.898  12.250  0.4010  0.0117  0.2762
25452W        W41069  12.951   4.095  12.806  0.3547  0.0539 -0.1453
25453W        W41070  18.442   3.238  12.765  0.2355 -0.1558  0.0866
25454W        W41071  17.621  12.722   0.649  0.3806  0.2310 -0.2963
25455W        W41072   1.721   7.182   2.046  0.0313 -0.1915  0.2449
25456W        W41073   6.775   7.011  13.247 -0.2121  0.1161  0.0165
25457W        W41074   4.999   3.966  10.933  0.2192 -0.0815 -0.0934
25458W        W41075  14.428  17.025   3.138 -0.2635 -0.1119  0.0446
25459W        W41076  18.393  11.349  11.740 -0.0144  0.0735 -0.0681
25460W        W41077   9.278   4.854   1.273  0.0539  0.1014 -0.0762
25461W        W41078  19.018  14.706   3.274 -0.0459  0.1756 -0.3281
25462W        W41079   7.631   4.751  11.837 -0.0771  0.0874  0.0505
25463W        W41080   3.793  18.813   1.091 -0.0200  0.0076 -0.0370
25464W        W41081   4.338   0.196  11.931  0.0545  0.1251  0.0809
25465W        W41082  13.503   8.321   2.460 -0.0195 -0.1839 -0.1188
25466W        W41083  18.309  17.056   0.678  0.0577 -0.1464 -0.3664
25467W        W41084  17.419   8.847   1.129 -0.0487 -0.1286 -0.0860
25468W        W41085   4.155  13.333  11.783 -0.2482  0.2390 -0.1538
25469W        W41086   7.555  13.429  10.722  0.0008  0.4271 -0.2233
25470W        W41087  15.806   8.583   4.506 -0.0172 -0.0096 -0.3493
25471W        W41088  14.339  11.171  14.460 -0.1683  0.1322 -0.0881
25472W        W41089   7.338   7.591  14.136  0.2271  0.2315  0.0668
25473W        W41090  16.675   3.976  11.505 -0.1774  0.1632 -0.0304
25474W        W41091   0.137   2.035   1.474 -0.2958 -0.1997  0.1163
25475W        W41092  11.169   3.913   2.476  0.2345  0.1873 -0.2948
25476W        W41093   1.868   5.744   5.728  0.1748  0.0846  0.1591
25477W        W41094  18.997  12.633   5.261  0.0553 -0.0335  0.2293
25478W        W41095   0.380   1.699   3.059 -0.1816  0.0922 -0.1217
25479W        W41096  12.066  16.611   4.204  0.1854  0.1280 -0.5023
25480W        W41097  11.060   0.852  14.476 -0.1277  0.0883 -0.0157
25481W        W41098   2.583  14.724  13.969  0.1608 -0.0691  0.2426
25482W        W41099   9.370   9.955  12.846 -0.2504 -0.0283 -0.0435
25483W        W41100  13.172   1.767  13.733 -0.0820 -0.4239 -0.1751
25484W        W41101  12.232  10.746  12.897  0.3411 -0.0764  0.1207
25485W        W41102   3.998  15.729   5.516  0.2775  0.0090  0.0925
25486W        W41103  10.858   5.335   4.145 -0.0361  0.0939  0.0408
25487W        W41104   3.039   9.829  11.152  0.1381 -0.1708 -0.2870
25488W        W41105   0.567   1.057  11.591  0.2989 -0.1383  0.0285
25489W        W41106  11.297   3.886   1.975  0.0117  0.1382  0.4135
25490W        W41107  14.854   1.356  12.167  0.2079 -0.0313  0.1312
25491W        W41108  14.652   8.110   3.092 -0.2734  0.1099  0.0920
25492W        W41109  17.042  12.915  10.005 -0.1975  0.3113  0.3442
25493W        W41110  17.123   5.781   5.059  0.1884 -0.1843  0.3300
25494W        W41111  18.395   5.030   2.804 -0.0073  0.0763  0.4088
25495W        W41112   4.616  12.622   5.156  0.1579  0.3307  0.1850
25496W        W41113  12.680  18.156   3.219 -0.1880 -0.3157 -0.0481
25497W        W41114  18.973  15.822  14.566 -0.0592  0.1516  0.0050
25498W        W41115  11.769   8.189  14.967 -0.2094 -0.3451 -0.2377
25499W        W41116   3.120  14.491   2.259 -0.2893  0.0877 -0.1255
25500W        W41117  11.412   5.685   1.483  0.4108  0.4745  0.2986
25501W        W41118   6.549  12.251  14.681  0.0726 -0.1285  0.1972
25502W        W41119   5.645  13.411  12.612 -0.0073  0.0744  0.4261
25503W        W41120  12.553  10.884   5.332  0.0306  0.4246  0.1749
25504W        W41121  14.443   2.014   0.420 -0.1676 -0.0772 -0.0931
25505W        W41122   9.801   5.639  10.685 -0.1295 -0.0341 -0.0207
25506W        W41123   1.996  17.365  10.320 -0.2302 -0.2013 -0.0746
25507W        W41124   3.987   5.175   1.182  0.0777 -0.0739 -0.0645
25508W        W41125  12.858  13.329   0.379  0.0073  0.1259 -0.0984
25509W        W41126   3.104  10.974  14.453  0.3233  0.1430  0.3881
25510W        W41127  16.285  13.483  12.507  0.2370 -0.2071 -0.2697
25511W        W41128  11.732  13.844  10.479  0.1131 -0.0101  0.1787
25512W        W41129  18.256   2.892   4.689 -0.0484 -0.0228 -0.1535
25513W        W41130   1.596  11.401   1.979 -0.0920  0.0532 -0.0356
25514W        W41131   6.252  13.609   2.646  0.1349  0.2395  0.0274
25515W        W41132   0.680  15.465  15.020 -0.0534  0.1155 -0.0960
25516W        W41133  17.042  10.970  14.265 -0.0055  0.0683 -0.0073
25517W        W41134   4.899  13.471  13.115 -0.0972  0.1320 -0.0751
25518W        W41135  16.261  17.419   0.199 -0.0257  0.1319  0.1967
25519W        W41136  11.288   8.009   4.165  0.3091  0.0021  0.0393
25520W        W41137  15.260  15.953  11.472 -0.0929  0.2717 -0.2591
25521W        W41138   4.495  16.650  12.963 -0.5034 -0.3361 -0.0484
25522W        W41139  14.426  16.659  13.054  0.2917 -0.3623 -0.1301
25523W        W41140   8.525  11.309  15.045  0.1305  0.0833 -0.2122
25524W        W41141  17.455  18.591  11.795 -0.5106 -0.3071  0.0994
25525W        W41142   2.390  14.791   5.579  0.0224  0.2715  0.4873
25526W        W41143   9.965  10.783   3.396 -0.1906  0.2310  0.2017
25527W        W41144  10.238  16.369   1.671 -0.2326  0.0740  0.0283
25528W        W41145   6.094   8.332   1.661  0.2168 -0.0753 -0.0653
25529W        W41146   3.022   9.746   2.618 -0.1317  0.0378  0.2127
25530W        W41147   8.843  15.848   4.276  0.2292  0.3560  0.0140
25531W        W41148  12.491   6.183  10.013  0.2259  0.1086 -0.2724
25532W        W41149  16.877   3.809  15.257  0.1350  0.5703 -0.0160
25533W        W41150  14.888   9.135   1.727 -0.3189 -0.2181 -0.1786
25534W        W41151   5.180   6.323   1.421  0.0218  0.1607  0.1548
25535W        W41152   6.692   7.002   1.637 -0.1939  0.2233  0.3758
25536W        W41153   7.762  11.899  14.308  0.2120 -0.0170 -0.0591
25537W        W41154   4.325  12.185   4.864 -0.0627  0.2342  0.0228
25538W        W41155   5.041  18.866   1.781 -0.0508  0.2859 -0.1622
25539W        W41156  16.777  10.961  13.252 -0.3640  0.3048  0.0928
25540W        W41157   1.411   2.139  12.354 -0.4100 -0.3606  0.1599
25541W        W41158  14.430   9.693   0.983 -0.5272 -0.3619 -0.0002
25542W        W41159   2.917  14.893  12.635  0.2659 -0.0308  0.1563
25543W        W41160   7.343  13.365   3.063 -0.2639  0.0809  0.3874
25544W        W41161  18.210   0.520   2.595 -0.0682  0.1574 -0.2086
25545W        W41162   5.519   8.576  13.621  0.0297 -0.0959 -0.1977
25546W        W41163  18.319  11.535   5.107  0.0334 -0.1227  0.1238
25547W        W41164  13.493  13.063  12.791  0.1910 -0.1259 -0.4314
25548W        W41165   9.513   3.988   0.837  0.1721 -0.2660 -0.2140
25549W        W41166  17.976  14.100   3.721  0.2990  0.0867 -0.0280
25550W        W41167   0.537   4.356   3.220  0.0478 -0.4516  0.2338
25551W        W41168  15.718   7.476   4.498  0.1287 -0.2429 -0.1676
25552W        W41169   8.913  18.934  14.192  0.0416  0.0896 -0.0183
25553W        W41170   3.201   4.027   0.763 -0.1010  0.0196  0.1806
25554W        W41171   4.321  15.938  11.604 -0.0321  0.1054 -0.0713
25555W        W41172   4.048  17.005  13.925 -0.0922  0.2845  0.1552
25556W        W41173   5.790   6.010  10.120 -0.0808 -0.1413 -0.0394
25557W        W41174   2.039   8.839   2.237  0.0130  0.1843  0.2737
25558W        W41175  18.148  14.373  15.197 -0.0581  0.0601 -0.3656
25559W        W41176  13.801   2.450  11.159  0.1144 -0.1306 -0.1905
25560W        W41177  15.984   5.672  11.084 -0.2381 -0.3430 -0.2064
25561W        W41178  14.890   6.363   0.868  0.1853 -0.2347 -0.2409
25562W        W41179  18.317   1.797  13.922  0.2082 -0.0912  0.1177
25563W        W41180  17.520   8.194   4.174  0.4561 -0.0894  0.0207
25564W        W41181  14.668   3.440   1.955 -0.1040 -0.1843  0.1191
25565W        W41182   7.564  17.460   0.178 -0.1880  0.3496 -0.1509
25566W        W41183   4.639  14.403   2.151  0.0544 -0.2143 -0.2642
25567W        W41184  11.026   4.733  15.267  0.0426  0.2353 -0.0484
25568W        W41185   1.905  12.881   3.240 -0.0518  0.2139 -0.1745
25569W        W41186   4.493  15.909  10.458  0.0391  0.3778  0.0466
25570W        W41187   2.858   1.309  11.125 -0.0683  0.2232 -0.0323
25571W        W41188   8.146   1.909  11.083 -0.2190 -0.0424 -0.1972
25572W        W41189   7.606   7.313  14.840 -0.0431  0.1036 -0.0662
25573W        W41190   3.902  18.065   1.998  0.0796  0.0486  0.0472
25574W        W41191  15.093  11.859  10.505  0.0379  0.3040  0.0437
25575W        W41192  12.333   3.305   2.801 -0.0494 -0.3191 -0.4599
25576W        W41193  17.377   8.635  14.986 -0.2782 -0.0086 -0.1725
25577W        W41194  15.702   6.321  12.744  0.0050  0.0866 -0.1789
25578W        W41195   0.811   2.018  12.489 -0.0950  0.0447  0.0659
25579W        W41196   5.859   4.620   3.630 -0.0945  0.3426  0.1946
25580W        W41197  16.489  16.476  13.844 -0.4805  0.0140  0.0495
25581W        W41198   5.923  14.080  12.529 -0.0048 -0.2411  0.0485
25582W        W41199   5.890   9.196   4.440  0.1718 -0.0037  0.0580
25583W        W41200  11.142   8.031  12.410  0.2078  0.0907  0.4985
25584W        W41201   4.227  15.802   5.919 -0.1465 -0.2867  0.1331
25585W        W41202   3.107  18.138  10.360  0.0178 -0.3637  0.1998
25586W        W41203   9.727   1.458  12.834 -0.0717 -0.4040 -0.0830
25587W        W41204   1.581  18.274  12.535  0.1683  0.0584  0.2527
25588W        W41205   3.785  13.892  14.951 -0.0964  0.0493  0.2663
25589W        W41206  15.055   3.308  14.640 -0.0561 -0.1060 -0.2165
25590W        W41207   1.571  10.087   0.410  0.1266  0.1108  0.1712
25591W        W41208   4.870  11.338   5.003  0.0670  0.0951  0.1170
25592W        W41209   9.668   5.180  10.368 -0.0450  0.0673  0.0144
25593W        W41210   9.467  18.005  12.911  0.0358  0.0140  0.1253
25594W        W41211  11.816  14.494  13.386 -0.2224  0.0151 -0.0999
25595W        W41212   3.545   2.835   6.644 -0.1779  0.0586  0.1857
25596W        W41213   8.935  17.781   3.009 -0.1401  0.1131 -0.3527
25597W        W41214  13.586  15.006   5.992 -0.2221  0.0360 -0.1282
25598W        W41215   6.811   0.161   2.461 -0.1326 -0.0347 -0.2269
25599W        W41216   9.052   1.864  14.943  0.1722 -0.3029  0.0086
25600W        W41217   6.398   3.748  12.610 -0.1318 -0.3394 -0.1398
25601W        W41218   6.364   0.424  10.516 -0.2197  0.0161 -0.4551
25602W        W41219   1.404  11.133   2.363 -0.0798  0.0269 -0.1921
25603W        W41220   9.326  14.693   3.610 -0.0184 -0.2141  0.3842
25604W        W41221  17.551   3.187   3.368  0.1021 -0.0204 -0.2188
25605W        W41222   5.425   2.213   9.935 -0.0143  0.3115 -0.1576
25606W        W41223   2.291  11.878  13.169 -0.0526  0.3340  0.2035
25607W        W41224   5.217  14.047   5.319 -0.1292  0.1811 -0.0453
25608W        W41225  11.543   1.055   3.393 -0.0333  0.0583  0.0149
25609W        W41226  16.181   3.896   4.760  0.0708  0.1769  0.2186
25610W        W41227  12.751  15.526   1.957 -0.0260 -0.1620  0.4633
25611W        W41228  18.937  12.009  12.770  0.2308  0.0911 -0.1919
25612W        W41229   9.153   7.395   2.507  0.1788  0.1097 -0.0558
25613W        W41230  13.371  10.831  11.067 -0.1375  0.2010 -0.0117
25614W        W41231   0.720   4.233   1.198  0.4086 -0.2404  0.0283
25615W        W41232  17.166  14.768   0.411  0.0711 -0.1486 -0.2246
25616W        W41233   9.746   7.188  10.512 -0.2387 -0.1398  0.0768
25617W        W41234   8.930   1.634  13.498 -0.0702  0.1568 -0.1695
25618W        W41235  18.110   4.397  11.372 -0.4829  0.1631  0.3867
25619W        W41236   4.966  11.699   4.640  0.0191  0.0136 -0.0276
25620W        W41237   3.593  13.472  10.967 -0.0962  0.0179 -0.1768
25621W        W41238  11.375  16.435  14.496  0.0119  0.2061  0.0558
25622W        W41239  14.245   3.437  10.785 -0.0088  0.0263 -0.0312
25623W        W41240   5.142   3.530  14.209 -0.1886  0.1569  0.1061
25624W        W41241   1.990  18.548   2.070  0.2895 -0.1375  0.0236
25625W        W41242  10.631   9.560   6.014 -0.1278  0.1720 -0.0513
25626W        W41243   7.256  13.557  12.087  0.1568  0.0677 -0.2281
25627W        W41244  10.500   2.862   0.610  0.1003  0.1907  0.0922
25628W        W41245  17.050   4.172   0.811 -0.4298 -0.1222 -0.1078
25629W        W41246  15.601   2.591   4.428  0.3596 -0.3375 -0.1271
25630W        W41247  10.838  16.376   1.006  0.0022  0.0721 -0.2034
25631W        W41248  10.561   7.616  13.242 -0.5589 -0.1237 -0.2934
25632W        W41249  15.322  15.391   4.396  0.2359  0.0208  0.4116
25633W        W41250   4.583   9.294   4.562 -0.0805  0.0018  0.0839
25634W        W41251   4.064   2.687  11.048  0.0127 -0.1099  0.1601
25635W        W41252   1.925  15.436  11.623 -0.0800 -0.1737 -0.1111
25636W        W41253  12.652   2.013   2.665 -0.1930  0.2595  0.1327
25637W        W41254  13.846   9.154   3.439 -0.2834  0.1461 -0.0346
25638W        W41255   1.146  14.279  10.339  0.1277  0.1214  0.1816
25639W        W41256   6.073  13.799   5.781 -0.0519 -0.3816 -0.1555
25640W        W41257   2.078   6.686  12.022 -0.0374 -0.0020  0.2181
25641W        W41258   2.801   0.782  14.604  0.0125  0.2209 -0.2835
25642W        W41259  18.437   5.466   2.049  0.0803  0.1878  0.4179
25643W        W41260   5.933   6.212   0.329  0.1110  0.2615  0.0483
25644W        W41261   7.497   9.358  10.623  0.2377  0.0030  0.1687
25645W        W41262   5.205   3.235  14.699  0.0531  0.1738 -0.0009
25646W        W41263   7.066   5.319   0.848  0.2500 -0.4354  0.2296
25647W        W41264   0.829   1.619  12.889  0.2710 -0.0825 -0.2706
25648W        W41265  14.886  18.197  11.787  0.0405  0.0481 -0.1159
25649W        W41266  12.962   1.112   4.806 -0.1770 -0.1827 -0.0435
25650W        W41267   7.460  16.392  15.180  0.2180 -0.1110 -0.1345
25651W        W41268   4.904   2.326  13.843 -0.0277  0.0191  0.1610
25652W        W41269  10.525  16.997  15.185 -0.1114  0.0838 -0.0462
25653W        W41270   5.810   0.771   3.247 -0.1290 -0.1026 -0.1390
25654W        W41271  18.101  16.412   3.705  0.1061  0.0307  0.2852
25655W        W41272   6.081  12.719  11.684 -0.0869  0.2626  0.0690
25656W        W41273   9.923  15.111   2.028 -0.1399 -0.2343  0.2468
25657W        W41274  15.283  13.471   2.748 -0.3184 -0.0148  0.4874
25658W        W41275   4.325   3.534   1.545 -0.0856  0.1784  0.1148
25659W        W41276   2.502  11.323   0.895  0.2834 -0.4655 -0.0305
25660W        W41277   0.847  13.967   4.017  0.0642  0.0777 -0.2770
25661W        W41278  15.284  16.719   2.541  0.0670  0.1586 -0.2705
25662W        W41279  10.499   9.588  11.586 -0.0500  0.1171 -0.0426
25663W        W41280  10.034   8.099   2.327 -0.3231  0.1876  0.1648
25664W        W41281   0.340  18.760   1.278  0.0287  0.3425  0.2597
25665W        W41282   2.714   8.639  12.360  0.0197 -0.4428  0.0776
25666W        W41283   1.679  14.788   0.847 -0.0152 -0.2369 -0.0088
25667W        W41284   4.883  10.017   5.482 -0.1280 -0.2138  0.0346
25668W        W41285  16.829  17.472  10.915  0.0101 -0.1589  0.0879
25669W        W41286   2.446  15.483   4.087 -0.1379 -0.0799 -0.3190
25670W        W41287   3.172  16.975   2.339 -0.2112 -0.1335 -0.1656
25671W        W41288   5.059   2.544   3.475 -0.2297  0.1840 -0.0434
25672W        W41289  12.958  18.867  10.384 -0.2066  0.0372 -0.0938
25673W        W41290   2.421   5.064   4.538  0.0451  0.1387  0.1290
25674W        W41291   8.470   2.958   1.094  0.1232  0.1276 -0.2689
25675W        W41292  17.273   6.247   1.267 -0.0931 -0.3818  0.1098
25676W        W41293  11.989   9.325  11.997 -0.1601 -0.1584 -0.1135
25677W        W41294   0.313   7.867  13.889 -0.1021 -0.1701 -0.4319
25678W        W41295  15.360   1.390  11.411 -0.1649 -0.0752 -0.2688
25679W        W41296  16.228  17.276  14.406  0.2074  0.1055  0.0305
25680W        W41297  17.835   4.572  13.511  0.1766 -0.3400 -0.1202
25681W        W41298   8.521  11.844   0.031  0.1594 -0.0015 -0.3100
25682W        W41299  14.655  10.755   0.799 -0.1204 -0.1260  0.0970
25683W        W41300  16.979  11.821   3.451 -0.1610  0.0542 -0.1609
25684W        W41301   2.531   9.688   5.574 -0.3901 -0.2661  0.2523
25685W        W41302   2.076   4.007   2.785  0.0629 -0.1738 -0.1724
25686W        W41303  12.782  10.674   4.332  0.1104  0.2585  0.3732
25687W        W41304  11.844   5.193  10.679  0.1151  0.2041 -0.0585
25688W        W41305  18.577  17.870  12.498  0.0391  0.2765  0.0001
25689W        W41306  16.168   3.372   0.159  0.0877  0.0115  0.0391
25690W        W41307  17.390  18.997  12.236  0.0684  0.2390 -0.1230
25691W        W41308  15.974   8.741  14.753 -0.4152 -0.1816  0.0579
25692W        W41309  11.037   5.761   3.735  0.1541 -0.0436  0.3454
25693W        W41310   9.527   6.774   0.501  0.3712 -0.3122 -0.1146
25694W        W41311   8.123   7.445   2.432 -0.1991 -0.2287  0.1067
25695W        W41312  14.698   5.403   1.656 -0.0745  0.0559 -0.2055
25696W        W41313  11.670   4.179   0.196 -0.0242 -0.1017  0.0492
25697W        W41314   1.546   4.288  12.598  0.0173  0.2695 -0.0702
25698W        W41315  16.479  18.953  13.672  0.4992  0.1002  0.1317
25699W        W41316   1.245  17.568  14.053 -0.0505  0.0427  0.3049
25700W        W41317  11.479  17.887   3.902  0.3426 -0.2675 -0.1304
25701W        W41318   9.552   0.346   1.638  0.1240  0.1720 -0.0632
25702W        W41319   7.873  11.561   1.139  0.0992  0.3658 -0.2539
25703W        W41320  12.626   1.607   9.419  0.0081 -0.0744 -0.0778
25704W        W41321  12.657  12.455   9.922  0.0760  0.0374  0.1077
25705W        W41322   4.596   1.483  11.939 -0.0109 -0.1702 -0.0456
25706W        W41323   5.562   9.756  14.260 -0.2662  0.1626  0.1745
25707W        W41324  17.660  15.377   1.309 -0.0940  0.1401 -0.2253
25708W        W41325  17.231   0.761  14.567  0.0852  0.2288  0.1790
25709W        W41326  16.230   0.860  13.504 -0.0189 -0.2221 -0.3666
25710W        W41327   7.048  13.222   0.466 -0.2717 -0.0627  0.0499
25711W        W41328   3.460   8.671   1.282 -0.1746  0.1676  0.1306
25712W        W41329  16.103  10.471  12.960 -0.1134  0.1626 -0.0685
25713W        W41330  14.310   8.454   1.763 -0.2647  0.0186 -0.0076
25714W        W41331  13.684   5.377  13.444  0.4929 -0.0008  0.2891
25715W        W41332  11.342   2.799   0.457  0.3825  0.1393 -0.2018
25716W        W41333  14.211   0.419  14.254 -0.0465  0.0503 -0.0916
25717W        W41334  12.732   0.901   3.134  0.1443  0.0136  0.1439
25718W        W41335  10.412  16.516  14.377  0.1708  0.1459 -0.1093
25719W        W41336  10.310  19.058  12.800 -0.1132  0.1320  0.0829
25720W        W41337   9.371   1.297   2.502  0.3464 -0.1011 -0.0041
25721W        W41338  12.068   3.787  12.631  0.2188 -0.0543  0.0303
25722W        W41339  13.762   6.262   3.751  0.0114 -0.1496  0.1499
25723W        W41340  13.925   6.472   3.197  0.0482  0.2314 -0.1865
25724W        W41341  14.568   7.354  14.031 -0.4044  0.2144 -0.1724
25725W        W41342  18.010  11.696  12.714 -0.0663  0.0381 -0.0869
25726W        W41343   3.133   2.406  11.423  0.2023  0.2595  0.4160
25727W        W41344  13.447   3.119  12.366  0.1391 -0.0131  0.1987
25728W        W41345  13.332  10.550   5.619 -0.0023 -0.0315 -0.2847
25729W        W41346  14.884   5.184  13.717 -0.2674  0.1593 -0.1129
25730W        W41347  17.306  12.995  12.528 -0.2456  0.0070  0.5084
25731W        W41348  15.221  13.802   1.010 -0.0550  0.1022  0.1173
25732W        W41349  12.218  16.287  12.178 -0.0199 -0.2558  0.2307
25733W        W41350  14.230   6.953   3.524  0.2117 -0.0639 -0.3656
25734W        W41351   4.326   2.339   3.458 -0.3636 -0.1318  0.1189
25735W        W41352   1.259   7.837   3.579 -0.0835  0.2054  0.0100
25736W        W41353  15.931   8.255  14.352 -0.0206  0.2812  0.0681
25737W        W41354   0.240   8.030  12.585 -0.4845 -0.0135  0.0778
25738W        W41355   6.416  18.349  12.727  0.4336 -0.4548  0.1986
25739W        W41356  16.874  16.423  10.618 -0.1938 -0.1538  0.1921
25740W        W41357  12.265   8.026  13.508 -0.1051 -0.3024  0.0337
25741W        W41358  10.832   8.579   5.548  0.2280  0.4068  0.2362
25742W        W41359   9.083   8.809  13.054  0.0204  0.1907 -0.0948
25743W        W41360  10.317   6.371   4.033 -0.4150 -0.2179 -0.0341
25744W        W41361   2.283  13.028   1.447  0.0460  0.2932 -0.1368
25745W        W41362  17.628  11.436   2.911 -0.3510 -0.0665  0.3368
25746W        W41363   5.765   9.016  11.813 -0.0076 -0.4107  0.0043
25747W        W41364   2.410  15.844  11.535  0.1829  0.1176 -0.1429
25748W        W41365  10.110   8.963  12.627 -0.3155 -0.1280 -0.0580
25749W        W41366  13.971   7.564   4.672  0.0888  0.2239  0.2737
25750W        W41367  11.084   1.772  12.723  0.0255 -0.0221 -0.2081
25751W        W41368  18.889   5.427   4.990  0.1472  0.1364 -0.0555
25752W        W41369   2.969   8.334  14.310 -0.1022  0.2174 -0.4794
25753W        W41370   8.299  15.624   5.729  0.0212 -0.0037  0.3122
25754W        W41371  18.290  14.115  14.124  0.1727 -0.3003  0.0314
25755W        W41372  18.577  11.862  14.938 -0.1655  0.1463  0.2778
25756W        W41373   5.711  16.213   0.155  0.3266 -0.0200  0.1906
25757W        W41374   2.915  18.224   9.881 -0.1630 -0.2485  0.3205
25758W        W41375  11.769  12.080   0.889 -0.1357  0.1162 -0.1438
25759W        W41376  14.496   4.843   4.340  0.1252  0.0665 -0.0876
25760W        W41377  15.132   7.155  13.524  0.4589  0.5143  0.2359
25761W        W41378   1.608  11.927   1.943  0.1044  0.4135 -0.1599
25762W        W41379   0.936  17.407  12.296 -0.0129  0.1073  0.0094
25763W        W41380   7.416   1.279   2.909 -0.1982 -0.3308 -0.0545
25764W        W41381   2.266   5.759   3.196  0.0469 -0.2893  0.0100
25765W        W41382  10.100  18.840   1.849  0.0170 -0.1096 -0.1953
25766W        W41383  16.001   3.598   3.818 -0.0506  0.0193 -0.1699
25767W        W41384   0.922  18.394   1.378 -0.0856  0.0777  0.1338
25768W        W41385   8.196   2.158   0.728 -0.4763  0.0519 -0.0616
25769W        W41386  18.546  17.843   3.961  0.1110 -0.1345 -0.0456
25770W        W41387   8.050   8.151   3.402 -0.0175  0.0391  0.2273
25771W        W41388   4.293  16.269   1.061 -0.1537  0.0641  0.2186
25772W        W41389  18.220   0.832   3.054  0.1605  0.0623 -0.1902
25773W        W41390   7.157   1.698   2.150  0.0731 -0.3249 -0.0083
25774W        W41391   2.372  18.975   3.566 -0.0992 -0.0424  0.0262
25775W        W41392  12.782   7.335   1.674 -0.0085  0.1808 -0.1216
25776W        W41393  18.239  14.371  10.618 -0.2610 -0.0532  0.3119
25777W        W41394   5.236  13.935  11.855  0.0808 -0.1058 -0.2301
25778W        W41395  16.318   9.188   9.975 -0.0211  0.2701  0.1014
25779W        W41396  13.831   3.901  14.397  0.0820  0.0532  0.1758
25780W        W41397   9.946  15.906  13.843 -0.2040 -0.2257  0.2191
25781W        W41398  17.980  17.157   3.080 -0.0870 -0.0077 -0.0657
25782W        W41399  17.296  15.740   3.204 -0.1398  0.1826 -0.0400
25783W        W41400  15.262   7.407   1.711  0.0912 -0.1437  0.3856
25784W        W41401  17.680  13.335  11.173  0.1585 -0.0906 -0.1562
25785W        W41402  11.673   0.887   1.670  0.0863  0.0984  0.0020
25786W        W41403   1.391  16.558   1.527 -0.1404  0.0270  0.1910
25787W        W41404   1.582   4.447  13.215  0.1912  0.0240  0.0818
25788W        W41405  16.229  11.233   3.721 -0.0020  0.2796  0.1430
25789W        W41406   3.593  19.045  11.626 -0.0563 -0.0379  0.1582
25790W        W41407   5.095  13.777   1.581 -0.1472 -0.0675 -0.1783
25791W        W41408  13.464   8.455  14.576 -0.1148  0.0726 -0.1729
25792W        W41409   9.196  10.332  10.293  0.1030  0.0440  0.0797
25793W        W41410   5.264   9.233  11.540 -0.1120 -0.0650  0.2194
25794W        W41411  10.311   1.861  11.291 -0.1824 -0.3344  0.0848
25795W        W41412  17.041  18.333  12.736  0.0537 -0.0507  0.0957
25796W        W41413   4.787  16.388  12.339  0.1470 -0.0942  0.0613
25797W        W41414   8.699   0.750   4.639 -0.1869  0.0869  0.0692
25798W        W41415   3.377   5.009   0.709 -0.0651 -0.0629 -0.0936
25799W        W41416   3.206   6.046   2.886  0.3512 -0.2069  0.0800
25800W        W41417  15.104  10.889  10.701 -0.1756 -0.0572 -0.4009
25801W        W41418  10.022   8.188  10.995  0.1423 -0.3245 -0.1186
25802W        W41419  11.999   3.126   3.661 -0.1053  0.1004  0.1360
25803W        W41420   7.884  13.320  14.095  0.0203  0.0356  0.0521
25804W        W41421   2.804  12.273   4.637  0.0226 -0.0089 -0.0387
25805W        W41422   7.418   8.518  10.361 -0.1346 -0.4098 -0.2295
25806W        W41423   4.390  15.069   4.328 -0.1974 -0.0892  0.1630
25807W        W41424   3.480  10.141   0.263  0.2970 -0.0447  0.0335
25808W        W41425  11.927   0.913  10.327 -0.1186  0.1889  0.0938
25809W        W41426   4.217   2.499   1.784  0.0451 -0.1689  0.3274
25810W        W41427   2.491  18.570  11.966 -0.0970  0.0899 -0.2038
25811W        W41428  13.356   8.153   4.760  0.3019 -0.2100  0.0222
25812W        W41429  11.954  17.430  14.422 -0.0527  0.4224 -0.0779
25813W        W41430   0.991   8.160  10.796 -0.0484  0.4629  0.2972
25814W        W41431  17.957   9.574   0.087 -0.1463 -0.2932 -0.1638
25815W        W41432   6.367  18.923  11.072  0.1111 -0.0790 -0.1205
25816W        W41433   6.898   2.963  13.787 -0.2551  0.1710 -0.2574
25817W        W41434  18.551   8.931  13.233 -0.0499 -0.0277  0.0226
25818W        W41435   2.603  13.055   1.849 -0.1350  0.0017  0.0205
25819W        W41436  17.155   8.255   3.812  0.0188  0.1997 -0.3313
25820W        W41437  12.575  12.422   1.015 -0.1659  0.2386 -0.0100
25821W        W41438   4.089   7.557   5.403 -0.2403  0.0808 -0.0208
25822W        W41439   7.852   8.919  13.981 -0.3246 -0.3443 -0.0227
25823W        W41440   7.576  11.817   4.868  0.1706  0.0614 -0.1391
25824W        W41441   5.549   5.651   4.420 -0.4604  0.0513 -0.1367
25825W        W41442   5.153  10.638   0.306  0.0904  0.0430 -0.1906
25826W        W41443  16.769  12.307  10.593  0.0058 -0.0383 -0.2908
25827W        W41444  10.748   5.242  12.426  0.1138  0.0340 -0.3467
25828W        W41445   2.415  11.568   2.490  0.0969  0.0297 -0.0775
25829W        W41446  10.430  14.735   9.618 -0.0027 -0.0122 -0.0017
25830W        W41447   1.385   8.877   0.523  0.1406 -0.2875  0.2210
25831W        W41448   6.172   8.009  14.558 -0.2140  0.1841 -0.1938
25832W        W41449  17.986  13.477   2.464 -0.3651 -0.0614  0.0206
25833W        W41450  13.088  15.960   4.631 -0.0226  0.1137  0.0462
25834W        W41451   3.048  12.117  12.458 -0.0148 -0.2111 -0.3600
25835W        W41452  18.698   3.210   3.028  0.2237 -0.2234  0.4206
25836W        W41453  12.387  12.920  13.791  0.0123 -0.0552 -0.2572
25837W        W41454   5.893   5.346   1.354 -0.0259 -0.0123 -0.0860
25838W        W41455   3.261  11.699   0.745  0.0651  0.3007  0.2727
25839W        W41456   9.769  10.453   3.684 -0.0962  0.0854  0.2196
25840W        W41457  11.212   1.429   2.289  0.1055 -0.1588  0.1558
25841W        W41458   7.982   4.370  11.750 -0.2744  0.1804 -0.3426
25842W        W41459  13.008   5.967   2.565  0.0064 -0.1539 -0.1358
25843W        W41460   6.056   8.216   4.816 -0.2399  0.1504  0.2584
25844W        W41461   1.072  15.579   0.007  0.2272  0.1061  0.1900
25845W        W41462   7.653  14.443  14.949  0.0720 -0.3356 -0.1392
25846W        W41463  15.562  11.212   0.862  0.1118  0.2839  0.4432
25847W        W41464  13.487   7.337   0.124  0.1785  0.0715  0.1046
25848W        W41465   7.308   2.367  14.521  0.2199  0.0184 -0.0410
25849W        W41466   0.813  15.591  14.212 -0.2315 -0.2043  0.0917
25850W        W41467  11.693   6.819   0.451  0.2127 -0.0307 -0.0769
25851W        W41468  14.388   4.267   9.527 -0.2922  0.2549  0.1012
25852W        W41469  12.453  15.097   3.001 -0.0131  0.0268  0.2324
25853W        W41470   3.648   6.311  10.728  0.0175 -0.2695 -0.0397
25854W        W41471  12.627   6.899   3.043 -0.0788  0.0739 -0.2100
25855W        W41472  13.889   3.908  10.240 -0.0201 -0.0182 -0.1852
25856W        W41473  19.073  13.782   2.708 -0.1652  0.0094  0.2854
25857W        W41474   7.057   0.065  11.745  0.3918 -0.1672 -0.0842
25858W        W41475   7.848  18.646   3.445  0.0361  0.0068 -0.1036
25859W        W41476  14.156  12.895   3.512 -0.1916  0.1787  0.3938
25860W        W41477   2.444   2.178   2.986  0.0526 -0.1600  0.1992
25861W        W41478   9.771  10.361   0.469 -0.2985 -0.2115  0.1951
25862W        W41479  13.069   9.758   4.383  0.3542 -0.0412  0.0882
25863W        W41480  14.777   0.521   5.625 -0.0159  0.0699 -0.2149
25864W        W41481  11.226   4.463   1.198  0.2545 -0.0932  0.2021
25865W        W41482  18.468   9.209  12.060  0.2846  0.1558 -0.1693
25866W        W41483   2.073   3.706   2.259  0.0739  0.0062 -0.0688
25867W        W41484  16.132  14.278   1.027 -0.1265 -0.0837 -0.0707
25868W        W41485   2.491  14.397   3.565 -0.1382  0.1155  0.2678
25869W        W41486  12.531  16.308   1.676 -0.1163  0.1650 -0.0751
25870W        W41487  13.416  16.273  11.788 -0.0845 -0.0851  0.0847
25871W        W41488  13.035   2.065  13.277 -0.0249 -0.1355 -0.0613
25872W        W41489   5.632  17.571  14.437  0.3014 -0.1140  0.0283
25873W        W41490   7.614   1.357   3.733 -0.1170  0.1645 -0.2778
25874W        W41491  13.803   3.249   0.993 -0.0611 -0.0809 -0.1535
25875W        W41492  10.670  16.205  14.082  0.0291 -0.3336  0.4596
25876W        W41493  11.995  12.006   3.098 -0.1741  0.3610  0.4291
25877W        W41494  15.208  16.126  13.460  0.1819  0.3017  0.1896
25878W        W41495   4.339   2.260  10.894 -0.0818  0.0713  0.0050
25879W        W41496  17.116   0.178  12.585  0.0193 -0.0461 -0.0176
25880W        W41497   3.643  10.146   3.695 -0.1573 -0.1412 -0.2572
25881W        W41498   9.150   6.601  12.393  0.0541  0.4834 -0.3443
25882W        W41499   5.399  18.307  13.816  0.1835 -0.0536  0.1023
25883W        W41500   0.864   4.955   0.136 -0.1799  0.0309 -0.1793
25884W        W41501  13.287  11.425   2.636  0.1345 -0.3244  0.3903
25885W        W41502  11.830  16.544  13.520  0.1561  0.1250 -0.0619
25886W        W41503   3.565   8.728   9.614 -0.0080  0.1574  0.3651
25887W        W41504   8.197  18.901   2.027  0.1023 -0.1727  0.0590
25888W        W41505  14.570   6.191   1.333  0.0039  0.3918  0.2867
25889W        W41506   4.367   8.397  15.182 -0.3983 -0.1522 -0.0596
25890W        W41507   7.147   7.225  12.722 -0.1976  0.2016  0.1303
25891W        W41508  11.804  13.592  12.254 -0.0123 -0.3946 -0.1312
25892W        W41509  17.837   8.762   3.697 -0.0949  0.0504  0.2890
25893W        W41510  12.721  11.539   0.720 -0.1341  0.2210 -0.2855
25894W        W41511   3.079   0.255   0.523 -0.3221  0.2481 -0.0627
25895W        W41512  17.057  17.180  14.000 -0.1100 -0.2188  0.0205
25896W        W41513  10.345  15.618   3.000 -0.0289 -0.0081  0.1631
25897W        W41514   2.234   2.726  15.078  0.0770  0.1352 -0.0808
25898W        W41515  14.565   2.286   4.923 -0.0403 -0.1997 -0.1207
25899W        W41516   2.058  17.445   0.913  0.4590  0.4414  0.0675
25900W        W41517  10.225  17.236   3.305  0.1149  0.1288  0.0622
25901W        W41518   5.820   5.494  15.206  0.1411  0.0760 -0.1246
25902W        W41519   3.194   8.857   3.991  0.1619 -0.0284  0.3760
25903W        W41520  17.642   9.330   2.437  0.2067  0.3230  0.1459
25904W        W41521   5.117  14.937   0.892 -0.2601 -0.3187 -0.0006
25905W        W41522   7.061  11.984   1.707  0.2522  0.1471 -0.0701
25906W        W41523   4.737   9.919   1.464  0.1022 -0.2925 -0.0217
25907W        W41524  18.467   5.604   5.847 -0.1150  0.0248 -0.1997
25908W        W41525  16.578  15.429  15.099 -0.0566 -0.0330  0.2780
25909W        W41526   9.833   7.140   4.980 -0.2961  0.0886  0.0780
25910W        W41527  12.604   5.255   2.970  0.2035 -0.1218 -0.0458
25911W        W41528  17.105  11.608   5.882  0.0771 -0.2354 -0.0207
25912W        W41529  13.591   1.615   4.795  0.2740  0.2110  0.0967
25913W        W41530   5.321   9.102   2.872 -0.1796 -0.3328 -0.0283
25914W        W41531  17.115  17.513   4.126 -0.1471 -0.3521 -0.0435
25915W        W41532  12.942   9.537  14.937 -0.0475 -0.1439  0.2832
25916W        W41533   7.512  13.935   4.636  0.1935  0.4538  0.1315
25917W        W41534  18.007   1.746   4.699 -0.1268  0.1350 -0.0099
25918W        W41535   8.848   7.949   1.957  0.0328 -0.1203  0.0219
25919W        W41536  15.818  13.270   1.605  0.3278 -0.1019  0.0054
25920W        W41537   5.435   2.061   6.008  0.2250  0.0683  0.2023
25921W        W41538   0.630  15.554  10.994 -0.0926 -0.0454 -0.0615
25922W        W41539  15.774  10.536   4.945  0.2179 -0.1792 -0.2712
25923W        W41540   5.766   4.336   4.503  0.2195 -0.1859  0.0215
25924W        W41541   2.486   3.661   4.934 -0.1753 -0.0824 -0.4200
25925W        W41542   6.248  16.263   4.157  0.1649  0.1523 -0.2251
25926W        W41543  17.039  12.808   1.486 -0.1589  0.3536  0.1572
25927W        W41544  10.645   3.410   5.433  0.0438  0.2124 -0.0853
25928W        W41545  10.667  12.957   2.346 -0.1219  0.2309  0.1729
25929W        W41546   6.732  17.223   2.932  0.1433 -0.2102  0.1885
25930W        W41547   3.571  15.897   3.935  0.0679  0.1762  0.2217
25931W        W41548   3.972   5.089  13.060  0.0603  0.0817 -0.0249
25932W        W41549  16.023  18.386   2.100  0.0426 -0.0914  0.1767
25933W        W41550  12.437   2.355  13.284 -0.2824  0.2962 -0.3221
25934W        W41551   3.799   2.931  12.089 -0.1479  0.0497 -0.0379
25935W        W41552   0.911  15.016   9.950  0.2607  0.0150 -0.2097
25936W        W41553  11.847  14.164  12.255  0.3152  0.1112  0.0333
25937W        W41554  18.849   7.893   3.308  0.3424 -0.2462  0.2719
25938W        W41555   0.769  12.040  10.651  0.0939 -0.6647 -0.2127
25939W        W41556   5.366   8.265   0.925  0.1441  0.1620  0.2615
25940W        W41557   2.362   8.396   1.050 -0.1480 -0.0320 -0.0663
25941W        W41558   0.927  15.330  11.865  0.1542  0.2041 -0.0408
25942W        W41559   0.896  11.707   3.595  0.0438  0.1996 -0.0977
25943W        W41560   6.917   6.130   1.449  0.2921  0.0763 -0.1685
25944W        W41561   8.443  14.705  11.765 -0.2054  0.0671  0.1806
25945W        W41562  14.707   3.694   4.008 -0.2521  0.1683  0.0371
25946W        W41563   0.207   6.128  15.100  0.3648  0.0426  0.0765
25947W        W41564  14.552   3.100  12.794  0.1063 -0.1194 -0.0837
25948W        W41565   7.803  17.709   2.498 -0.0307  0.0993  0.0877
25949W        W41566  12.689  14.487  10.911  0.0603  0.0684  0.2410
25950W        W41567   1.247   3.202  14.197  0.1886  0.1642  0.1794
25951W        W41568  17.567   4.500  13.936 -0.0346  0.4122  0.2634
25952W        W41569   4.720   8.380   4.578 -0.0513 -0.0651 -0.0469
25953W        W41570  16.969   9.342   2.852 -0.2921 -0.1919  0.5155
25954W        W41571   1.781   6.645  14.464 -0.3495  0.0627  0.2528
25955W        W41572  15.537  12.682   4.668 -0.1000  0.0665  0.0898
25956W        W41573   9.928   6.489  11.770 -0.0838 -0.0777 -0.2110
25957W        W41574   6.309   9.281   4.658  0.1111 -0.2081  0.0553
25958W        W41575   3.419   5.583   2.826 -0.1177 -0.2580 -0.1756
25959W        W41576   4.903   5.943  11.779  0.1088 -0.0416  0.0975
25960W        W41577  17.943  17.804   0.897  0.0043  0.1685 -0.2340
25961W        W41578   8.374  11.098  14.612 -0.2832  0.1623 -0.0470
25962W        W41579   7.769  10.115   0.097 -0.1973 -0.1887 -0.1874
25963W        W41580  16.203   8.184   1.993  0.1562 -0.1751  0.0636
25964W        W41581  16.597  15.668   1.195 -0.2502 -0.0869  0.1114
25965W        W41582   0.770   4.986  12.811 -0.0944  0.0351  0.0618
25966W        W41583   7.717  11.159  14.245 -0.0697 -0.1613  0.2087
25967W        W41584   2.734   2.352  12.664 -0.1842  0.1961  0.3232
25968W        W41585   2.408  15.735   0.728  0.2757 -0.0237 -0.2385
25969W        W41586   0.854   5.166   2.631 -0.4079  0.0487  0.0496
25970W        W41587  10.487   8.981   2.442  0.0407 -0.2639  0.0496
25971W        W41588  17.820  15.280  14.320  0.0240  0.0585 -0.0490
25972W        W41589   5.559   2.398  15.018 -0.2534  0.0488  0.0614
25973W        W41590  15.904   4.382   4.696  0.3282  0.1147 -0.1989
25974W        W41591   6.844  10.156   1.789 -0.3032 -0.0193  0.0386
25975W        W41592  10.689  12.902   5.983  0.0751 -0.0933 -0.1893
25976W        W41593  18.108   0.550   2.083 -0.0245 -0.0438 -0.3763
25977W        W41594  14.083  16.829  11.436 -0.0878 -0.1184  0.0436
25978W        W41595   0.672  12.488  10.305 -0.3354  0.2247 -0.0050
25979W        W41596   3.710  17.259   4.629 -0.0211  0.0410  0.2004
25980W        W41597   2.430   2.051   0.537  0.1326 -0.1838  0.0719
25981W        W41598  17.642  11.065  13.182  0.1970  0.0452  0.3351
25982W        W41599   0.054  11.376  11.075  0.2047  0.2936  0.1622
25983W        W41600  12.173  18.401   0.412  0.0862  0.2345 -0.3537
25984W        W41601  15.474  15.159  13.539 -0.0264 -0.0686  0.3485
25985W        W41602  18.408   1.712  14.947 -0.0677 -0.0245  0.2147
25986W        W41603   2.090  13.763  11.118 -0.0475 -0.3404 -0.2160
25987W        W41604  12.293   9.975  10.953 -0.2064  0.2989 -0.1095
25988W        W41605  17.575  16.280  14.600  0.1004  0.2146  0.0274
25989W        W41606  14.002   8.843   2.659 -0.0202 -0.3610 -0.1151
25990W        W41607  13.773   4.545   5.664  0.0181  0.0809 -0.1200
25991W        W41608   1.832   5.682   1.818  0.0505 -0.0043  0.0569
25992W        W41609   8.800  14.136   4.420 -0.2570 -0.2138 -0.0881
25993W        W41610   0.461  10.775  15.112  0.1574  0.0735 -0.1189
25994W        W41611   2.297  12.682   3.511  0.0154  0.0246 -0.1627
25995W        W41612  12.527   0.681  12.883 -0.0100  0.1865  0.1004
25996W        W41613  13.975   8.446  11.477 -0.2171  0.0823 -0.1392
25997W        W41614   1.545  15.197   4.319  0.1122 -0.1545 -0.1631
25998W        W41615   2.897   7.467  11.954 -0.1396 -0.1364  0.1846
25999W        W41616  12.734  18.881   4.532  0.2778  0.0161 -0.1177
26000W        W41617   4.244   8.037  11.121  0.1765  0.0156  0.0668
26001W        W41618   4.539  17.198  10.636 -0.0950  0.2754  0.0389
26002W        W41619   4.333  17.235   0.479 -0.1034  0.1466 -0.1229
26003W        W41620  12.217   1.026  13.806 -0.1211  0.2670 -0.1148
26004W        W41621  15.446   9.643  13.543  0.1166  0.0024  0.1679
26005W        W41622   0.531  13.924   4.863 -0.1308 -0.2584  0.2060
26006W        W41623  18.160   7.418  14.446  0.2572  0.1050 -0.2063
26007W        W41624  10.807  15.497   3.212 -0.1479 -0.1685  0.1670
26008W        W41625  11.994  11.442  13.423 -0.4204 -0.0616 -0.0734
26009W        W41626   9.837   6.735   0.051  0.1242 -0.2422 -0.2072
26010W        W41627   0.403   9.094  12.444 -0.1474 -0.2188  0.1815
26011W        W41628  18.584  14.071   2.739  0.1601  0.2417 -0.2919
26012W        W41629   3.479   1.287   2.159 -0.3411 -0.3404 -0.2923
26013W        W41630  17.647   5.227  14.361 -0.2503  0.0550  0.0916
26014W        W41631   7.883  13.493   4.767  0.1627  0.0037  0.0522
26015W        W41632   4.286  16.652   0.697 -0.0981 -0.1865 -0.4318
26016W        W41633  17.214   3.906  13.057  0.2458 -0.0709  0.2664
26017W        W41634  15.469  14.125  12.286 -0.1259 -0.2354 -0.2722
26018W        W41635   2.561  10.952   2.129 -0.0643 -0.3862 -0.1719
26019W        W41636  15.108  15.161  13.194  0.0200  0.3064  0.1440
26020W        W41637   1.323   5.583  14.997 -0.2158 -0.0081  0.0286
26021W        W41638  10.182  17.022   2.586 -0.2035  0.0928 -0.0849
26022W        W41639   2.372  15.333   1.889  0.3196 -0.3050  0.2137
26023W        W41640   6.160  17.010   0.949 -0.0240  0.2583  0.1433
26024W        W41641  10.448  15.717  15.179  0.2690  0.0770  0.3319
26025W        W41642  13.800  18.294  14.525  0.3723  0.4461 -0.2846
26026W        W41643   7.976  12.708   5.971  0.0357  0.1999  0.1532
26027W        W41644   6.804   7.981   0.489  0.1189 -0.0183  0.2078
26028W        W41645   3.825   7.538  15.146  0.3374  0.0928 -0.0856
26029W        W41646  15.239  14.594  12.272 -0.2681 -0.1457  0.0790
26030W        W41647  18.603  11.955   3.318  0.0416  0.0465  0.0995
26031W        W41648   6.005  18.878   1.451 -0.2119 -0.0462  0.0928
26032W        W41649   2.562  16.795  12.542  0.1098  0.2032 -0.1770
26033W        W41650   3.078  13.794   4.264 -0.2561 -0.1870 -0.0988
26034W        W41651  11.660  18.747  10.604  0.1024 -0.0111 -0.2129
26035W        W41652   9.742  18.538   1.725  0.0508  0.0798  0.1467
26036W        W41653   3.153   3.632  12.683 -0.0978 -0.1817 -0.1869
26037W        W41654   0.396  14.780   3.038  0.1255  0.1697  0.1591
26038W        W41655  18.207   2.450   1.973  0.0113  0.1561  0.0857
26039W        W41656  10.086   9.941   2.755  0.0277  0.2833  0.2112
26040W        W41657   3.211   1.088   5.086 -0.1394 -0.0335  0.1949
26041W        W41658   0.781   3.081  14.166  0.3490 -0.1557  0.1666
26042W        W41659  12.189   0.841   1.537 -0.1826 -0.1067 -0.1786
26043W        W41660   3.498  16.584   1.767  0.0266 -0.2629 -0.3162
26044W        W41661  18.887   0.336  13.711 -0.2961  0.1641 -0.0725
26045W        W41662   5.690  12.323   1.659 -0.1796  0.0268  0.0047
26046W        W41663   2.875   4.147   5.520  0.1266 -0.0605  0.1535
26047W        W41664   5.281  12.593  14.370 -0.3388 -0.0236 -0.2738
26048W        W41665  14.733   9.700  10.904  0.0541 -0.1506  0.1678
26049W        W41666   7.820   3.601  11.091 -0.0328 -0.0052 -0.1182
26050W        W41667  16.493  17.222   2.542  0.1933 -0.2341  0.1618
26051W        W41668  16.372  15.520  14.025 -0.2151  0.0249 -0.2670
26052W        W41669  11.514  14.157   2.172  0.2430  0.0894 -0.0172
26053W        W41670  10.689  12.063   2.709  0.0639 -0.0322 -0.3078
26054W        W41671   7.203   6.591   3.972 -0.2235 -0.3150 -0.2328
26055W        W41672  15.728  15.876   1.405 -0.0239  0.3766  0.1097
26056W        W41673   3.373   4.328  14.496 -0.0160 -0.0702 -0.2287
26057W        W41674  16.672   9.082  14.556  0.2001 -0.1559  0.1306
26058W        W41675  13.123   4.933   3.117  0.0762  0.1298  0.0605
26059W        W41676  12.590   1.685   3.138  0.0925 -0.1947 -0.0270
26060W        W41677   1.313  10.429   2.945 -0.2142  0.1315  0.0610
26061W        W41678  18.334  17.243   0.177 -0.1466  0.0902 -0.2365
26062W        W41679  11.402   0.545  11.484 -0.1279  0.3747 -0.2368
26063W        W41680   1.406  18.095   1.846  0.0780 -0.0845  0.0780
26064W        W41681   1.100  11.873   1.803 -0.1961  0.1590  0.1949
26065W        W41682   9.489   5.317  10.890  0.1048  0.2237  0.0414
26066W        W41683   9.173  13.972   5.306 -0.2047  0.2526  0.3539
26067W        W41684   8.797   3.684   1.165  0.0115  0.1559 -0.2175
26068W        W41685   6.490   8.485   4.593  0.2314  0.3376  0.2131
26069W        W41686  11.372   0.192   1.784  0.1288  0.3086 -0.0672
26070W        W41687   5.747  11.337  10.784  0.0996  0.1105  0.0448
26071W        W41688   3.410   6.218  14.018 -0.0117 -0.0705 -0.0475
26072W        W41689  13.779   7.691  13.266  0.1591  0.1675 -0.0723
26073W        W41690   0.357   8.871   3.402  0.0546  0.0900  0.1872
26074W        W41691  17.988  16.570   4.161  0.0784  0.1129 -0.1444
26075W        W41692   8.369   6.827   1.012  0.1048  0.4237  0.0329
26076W        W41693  10.168  14.966   4.433 -0.2053  0.0809  0.1332
26077W        W41694   3.461  12.544  15.115  0.1646 -0.0083  0.2662
26078W        W41695   4.866  18.414   2.055  0.6711  0.2464 -0.0165
26079W        W41696   1.702   7.656   3.811  0.0157 -0.0671  0.4469
26080W        W41697  14.250  11.400  10.396  0.2984 -0.1093 -0.1397
26081W        W41698   0.203  15.474  15.187 -0.0303  0.0962  0.0276
26082W        W41699   0.847   9.880  11.293  0.3225 -0.3993  0.0531
26083W        W41700   2.876  15.358  14.796  0.0968  0.0565 -0.4047
26084W        W41701  13.228  13.876   3.330 -0.0198  0.0126 -0.0293
26085W        W41702   9.662   7.000   3.222 -0.0456 -0.0567  0.0343
26086W        W41703   4.779  11.097  13.095 -0.0335 -0.6794 -0.1328
26087W        W41704   4.657   8.203  10.983 -0.0244  0.0865 -0.2450
26088W        W41705   4.722  16.199  14.180 -0.4119  0.2767 -0.4527
26089W        W41706   8.558   9.452   0.922  0.0929  0.1121  0.2471
26090W        W41707   5.871   3.828  12.451  0.0423 -0.2021  0.3613
26091W        W41708   8.393   1.792   4.612  0.1327 -0.4146  0.5938
26092W        W41709   8.545  16.043  12.119 -0.2172 -0.1252  0.2357
26093W        W41710  15.600  14.813   1.143  0.1105 -0.0573  0.2570
26094W        W41711   3.541   5.811  13.373  0.1224  0.0949 -0.0207
26095W        W41712  18.190   7.715   4.115 -0.2071  0.1103  0.2298
26096W        W41713   0.727  17.676   5.437  0.1293 -0.2936  0.2615
26097W        W41714   2.029   7.548  14.237 -0.0607  0.1075  0.0523
26098W        W41715  14.867  13.760   0.017  0.0756 -0.0605 -0.0035
26099W        W41716   8.272   0.963   4.383  0.0330  0.1525  0.0930
26100W        W41717  18.665   7.131  13.572  0.0394  0.1170 -0.1256
26101W        W41718   8.647   0.220  12.713 -0.1501  0.0426  0.3356
26102W        W41719  10.393   0.490   2.936 -0.5070  0.0672  0.0516
26103W        W41720  13.307  10.947  10.393  0.0099 -0.1687  0.1471
26104W        W41721   5.941   8.486  14.536 -0.0306  0.0405  0.0982
26105W        W41722   1.702   7.676   2.092 -0.0535 -0.0453  0.1835
26106W        W41723  16.788   2.913  11.627  0.1321 -0.0513  0.2874
26107W        W41724  13.191   8.773   1.742  0.1787 -0.3436  0.0296
26108W        W41725   0.581  12.399  14.930  0.1395  0.0996  0.0529
26109W        W41726   1.015   6.391   0.630  0.3964  0.2070  0.0924
26110W        W41727   5.437   5.100   4.170  0.0325  0.2534 -0.2402
26111W        W41728  10.543   6.160   2.364 -0.0485  0.0211  0.2319
26112W        W41729  13.566  14.232  14.678 -0.0235  0.1974  0.3934
26113W        W41730   0.245   5.111  11.275 -0.0825  0.0586  0.1503
26114W        W41731  11.278   4.481  14.803  0.0206  0.3941 -0.0555
26115W        W41732   6.271  15.416   1.615 -0.2798  0.2022  0.0027
26116W        W41733  15.360  17.356   0.327 -0.2307  0.0318  0.1620
26117W        W41734   3.383  12.573  13.857  0.0248 -0.1531 -0.0858
26118W        W41735   1.029  15.024   8.940  0.3147  0.1412  0.1331
26119W        W41736  12.177  12.261  10.747 -0.0335  0.0086 -0.4866
26120W        W41737   7.763   0.490  13.417  0.1805  0.1539 -0.1001
26121W        W41738  12.776   3.277  13.502  0.0691  0.3228 -0.0119
26122W        W41739  15.489   2.849   0.327 -0.2096  0.1199  0.0412
26123W        W41740  15.166  14.503  12.820 -0.0686 -0.1133  0.0560
26124W        W41741   0.777  16.746  12.240  0.1908  0.1076  0.1968
26125W        W41742   1.608   5.274   1.480 -0.2530 -0.2737 -0.0130
26126W        W41743  11.829  12.112   9.895  0.0629  0.2199  0.5750
26127W        W41744  12.575  18.502  13.263 -0.1277  0.0763  0.1351
26128W        W41745  10.070   4.630   1.224 -0.1682  0.2182  0.1177
26129W        W41746  11.205  16.759   1.168  0.1582 -0.3122 -0.2425
26130W        W41747   8.759   1.468  14.502 -0.0597  0.0543  0.2387
26131W        W41748  17.942  13.834   0.311 -0.1044 -0.0868 -0.2041
26132W        W41749  12.635   3.659   3.050  0.0682  0.1743  0.3161
26133W        W41750   5.887   2.007  12.627  0.0650  0.0547 -0.0615
26134W        W41751  14.110  10.065   0.778  0.2853 -0.2858 -0.4477
26135W        W41752   3.472  18.007   1.032 -0.1451 -0.0938  0.3586
26136W        W41753  13.787   4.283  11.422 -0.1602  0.2305  0.1889
26137W        W41754   8.189  15.532  13.721  0.2082 -0.2294 -0.0230
26138W        W41755  18.308   6.606   3.183 -0.1400  0.1863  0.2654
26139W        W41756  16.692   3.312   0.223 -0.1989  0.0972 -0.0957
26140W        W41757  14.201  10.844  10.517  0.0966 -0.2894  0.2997
26141W        W41758  17.916  16.761  14.197  0.0203 -0.1088  0.0988
26142W        W41759   7.658  18.186  12.800 -0.0796  0.2183  0.0363
26143W        W41760  18.015   6.317   4.359  0.0245 -0.1068  0.1922
26144W        W41761   6.921   6.428   5.076  0.1973 -0.1689  0.1855
26145W        W41762  16.042  12.094   5.308 -0.0971  0.4934  0.3028
26146W        W41763  13.110  14.749   4.440 -0.2318 -0.0977 -0.1331
26147W        W41764  11.177   2.080   4.281  0.2911 -0.0040 -0.0742
26148W        W41765   2.169  11.352   5.452 -0.1377 -0.2114  0.1740
26149W        W41766  10.827  11.458   0.884  0.0311 -0.1706  0.0504
26150W        W41767   0.041  16.805  14.886  0.5023  0.1988 -0.0585
26151W        W41768   1.879  10.348  12.344  0.1997  0.0097  0.0536
26152W        W41769  10.232   6.627  13.999 -0.0929 -0.0955  0.3665
26153W        W41770  12.145  11.426   0.294 -0.2545 -0.1212  0.3526
26154W        W41771  12.973   2.727  10.698  0.1166  0.2225 -0.1906
26155W        W41772  11.926  17.393  10.659 -0.0261  0.0017 -0.0338
26156W        W41773   6.959   5.259   4.450 -0.0346 -0.0127 -0.0719
26157W        W41774  17.233  18.792   2.535 -0.1132  0.3085  0.2375
26158W        W41775  11.595   2.233   3.082  0.0183  0.0591  0.2201
26159W        W41776   8.798   7.882  13.056 -0.0464  0.0677  0.2113
26160W        W41777  10.486   4.539  11.391  0.1324  0.0679 -0.1810
26161W        W41778   0.123   9.241  11.285  0.0110 -0.1165 -0.2577
26162W        W41779   8.143  17.605   0.821 -0.0229  0.1535  0.0594
26163W        W41780  16.231  13.432   1.871 -0.0500 -0.0523 -0.0393
26164W        W41781   6.174  17.150   0.236 -0.0187  0.1228  0.2113
26165W        W41782  17.851   3.296   2.958  0.3795  0.1377  0.0378
26166W        W41783   2.320  18.957  11.599  0.3789  0.2254 -0.0894
26167W        W41784   0.267  18.550   3.958  0.0649 -0.4760  0.1654
26168W        W41785   8.605  18.403   2.716  0.0839 -0.0119 -0.3600
26169W        W41786   9.352   5.165   4.290 -0.0705 -0.0309  0.1968
26170W        W41787   4.966   7.838  11.079  0.0719 -0.1224 -0.1627
26171W        W41788   0.532  10.919  12.200 -0.0236  0.1271 -0.0750
26172W        W41789  15.593   5.202   0.892 -0.0823  0.3096  0.1432
26173W        W41790  17.426   7.544  12.149 -0.0351  0.1157  0.0150
26174W        W41791  18.300  16.215  10.290 -0.1220  0.1788 -0.0258
26175W        W41792   7.539  14.146   3.123 -0.2461  0.1677 -0.1103
26176W        W41793  15.622   6.569  10.428  0.1700 -0.0654  0.3064
26177W        W41794   0.292   8.198   4.094  0.1780  0.2678 -0.0203
26178W        W41795   3.979   4.064   0.374  0.2459 -0.0463  0.1552
26179W        W41796  12.474   2.474   1.553 -0.0804  0.1548 -0.1624
26180W        W41797   5.832   3.905   1.232 -0.2533 -0.0029 -0.0329
26181W        W41798   8.691   7.784  12.151  0.3295  0.1929 -0.4697
26182W        W41799   2.386   3.572   1.848  0.0445 -0.1069  0.1241
26183W        W41800  18.467   6.526   1.928  0.0425 -0.0136  0.0172
26184W        W41801   1.131   6.111   1.442  0.0216 -0.0231 -0.6638
26185W        W41802   3.192  16.264  13.147 -0.0226 -0.0454 -0.1678
26186W        W41803   7.052   4.158   0.481 -0.0207 -0.3808  0.1771
26187W        W41804  11.884  15.865  14.634  0.5204 -0.0962  0.0644
26188W        W41805  15.814  12.971  14.577 -0.1838  0.0779 -0.0178
26189W        W41806  18.019   2.839   0.121 -0.0053 -0.1779 -0.2388
26190W        W41807   7.030   3.300  14.579 -0.1053  0.0019  0.2674
26191W        W41808  10.018  15.083  12.759  0.0954  0.0343  0.0530
26192W        W41809  18.595  11.312  13.620 -0.2397 -0.2862  0.2806
26193W        W41810  17.651  14.279   3.357  0.1494  0.0552  0.0711
26194W        W41811  14.609   5.095  10.671 -0.0351 -0.1093 -0.2897
26195W        W41812   5.516  16.912  12.646  0.0303  0.1256 -0.2267
26196W        W41813   3.437  10.643  14.622 -0.0391 -0.1963  0.1141
26197W        W41814  12.464   4.491  13.157  0.1863  0.1663 -0.0703
26198W        W41815  18.237   7.893   1.154 -0.0385 -0.0462  0.2529
26199W        W41816  13.683   9.651   3.091  0.2134 -0.0561  0.0478
26200W        W41817  10.447   3.318   2.378  0.0519 -0.0800  0.2919
26201W        W41818   2.118  17.913   1.572  0.1358  0.1595  0.2425
26202W        W41819  17.836   5.580   1.868 -0.2103  0.0545  0.2329
26203W        W41820  14.923  15.358   1.594 -0.3443 -0.1047 -0.0250
26204W        W41821  14.966  14.604   2.181  0.0775  0.0973 -0.2830
26205W        W41822   4.401  17.351   5.901  0.2620  0.0421  0.2580
26206W        W41823  17.114  14.031   3.355  0.1823  0.2759 -0.0200
26207W        W41824   1.079  11.049  10.345  0.0681 -0.1852  0.1336
26208W        W41825   0.791   5.350  15.078  0.1503 -0.1532 -0.2477
26209W        W41826  12.423  12.723  12.894  0.1671  0.0743  0.0062
26210W        W41827  12.934   5.750   1.403  0.0489 -0.1353  0.0863
26211W        W41828   2.784   5.161  12.916 -0.0694 -0.1624 -0.0431
26212W        W41829  12.943  10.092   5.492  0.0756  0.2406 -0.0843
26213W        W41830   3.553   2.855  11.227 -0.0903  0.1490 -0.2731
26214W        W41831  10.439  10.643  13.123 -0.0630  0.0257 -0.0504
26215W        W41832   9.745  12.297  14.930  0.1345 -0.0292 -0.1417
26216W        W41833   9.118  11.504   9.224 -0.1010 -0.0914 -0.0705
26217W        W41834  16.212  10.476  12.435  0.0824 -0.2225 -0.0600
26218W        W41835  14.332   8.633   9.450  0.3722 -0.3247  0.0603
26219W        W41836   6.881   9.100   3.704 -0.1121 -0.1190 -0.0267
26220W        W41837   7.318   8.214   4.937  0.0282 -0.4621 -0.0982
26221W        W41838   4.002   0.197  11.482  0.0301 -0.1275  0.0319
26222W        W41839   8.569   2.560  13.856 -0.2474 -0.1667  0.0237
26223W        W41840  13.288   6.881   0.929  0.0578 -0.3456 -0.0789
26224W        W41841   6.312   0.719  10.906 -0.0143  0.0687  0.0505
26225W        W41842  16.613   4.313   2.832  0.1799  0.1060 -0.1029
26226W        W41843  17.134  16.226   0.166  0.0505  0.0692 -0.0733
26227W        W41844  18.990   4.891  13.622 -0.2686 -0.4115 -0.1544
26228W        W41845   8.386  13.551   5.096  0.0112  0.0197  0.2270
26229W        W41846   2.066  13.547   3.755  0.0443  0.1107  0.0898
26230W        W41847   1.431  17.286  10.896 -0.1197  0.0021  0.2196
26231W        W41848  18.060  14.851   0.517 -0.2147  0.0368 -0.0773
26232W        W41849  16.544  13.555   3.977  0.0982 -0.0790 -0.0301
26233W        W41850   9.101   5.757   0.761  0.1620 -0.0876 -0.0753
26234W        W41851   5.013   0.523   0.184 -0.1675  0.1630  0.4380
26235W        W41852   6.324   1.872   4.818  0.1075 -0.0067  0.2069
26236W        W41853   0.100  18.786  11.769 -0.0183  0.4198  0.1919
26237W        W41854   7.022  14.833  14.084 -0.1788  0.0284  0.0244
26238W        W41855   8.953   3.870  12.065  0.2657  0.0518  0.1696
26239W        W41856   7.697   0.268  13.938  0.1169  0.2103 -0.2154
26240W        W41857  10.990  12.519  15.255 -0.2746  0.2615  0.2508
26241W        W41858  15.530   0.145  10.548 -0.1492  0.3213 -0.1774
26242W        W41859  17.915   1.452  11.596 -0.0626  0.1671  0.3267
26243W        W41860  18.997  11.602   1.055 -0.2586 -0.0807 -0.0313
26244W        W41861   8.652  11.704  11.417 -0.3105  0.7136 -0.1150
26245W        W41862   2.381   7.347  13.407 -0.0918 -0.3793 -0.0902
26246W        W41863   8.869  10.951  13.094  0.1052  0.3240 -0.0366
26247W        W41864  14.012   4.131   1.940 -0.0688  0.3550  0.1268
26248W        W41865   2.632   5.307   2.537 -0.0622 -0.4374 -0.1653
26249W        W41866   8.099   0.514   4.715 -0.0952  0.0458  0.1473
26250W        W41867  14.391   6.719   5.288 -0.0999  0.1205  0.0134
26251W        W41868   9.741   2.193  15.151  0.0353 -0.1106  0.0151
26252W        W41869   5.767   0.042  11.836 -0.1332  0.1249 -0.1101
26253W        W41870   0.711   9.148  10.785  0.0485  0.1422 -0.1321
26254W        W41871   7.761   4.237   4.803  0.2099 -0.0861 -0.4503
26255W        W41872   7.315  11.634  11.135 -0.1450 -0.0335  0.1640
26256W        W41873   6.181  17.955  13.586 -0.0991  0.3348  0.0109
26257W        W41874  12.963   3.308  12.502 -0.1104 -0.0974 -0.0131
26258W        W41875  10.578   1.672   1.044 -0.3824 -0.2647 -0.0331
26259W        W41876  14.145  14.933  14.836  0.2109  0.0752 -0.2546
26260W        W41877  14.624   1.547   0.541 -0.1758  0.1358 -0.0020
26261W        W41878   6.023   3.609   2.094 -0.1121  0.0498  0.1624
26262W        W41879   8.228  18.973  12.237  0.2018  0.2377 -0.2732
26263W        W41880  11.548  12.769  14.065 -0.5587 -0.0197  0.0164
26264W        W41881  10.433  15.052   4.001  0.0989  0.2531 -0.2756
26265W        W41882   6.994   4.766   1.832  0.1769 -0.1014  0.0421
26266W        W41883   6.285   5.933  11.293  0.4104 -0.2949 -0.2040
26267W        W41884  13.865  17.246  11.574  0.1641 -0.0891 -0.1580
26268W        W41885   4.181  11.035  14.262  0.2337  0.3050  0.0553
26269W        W41886   6.207  16.322  14.063 -0.0879 -0.0629 -0.3789
26270W        W41887   9.062  17.204  13.432 -0.2730  0.0352 -0.1275
26271W        W41888   7.218   0.832   4.598 -0.0618 -0.0259 -0.0589
26272W        W41889   6.403   3.978  14.143 -0.2205 -0.4376  0.4276
26273W        W41890   6.865  11.809  11.601 -0.1995 -0.2595  0.0258
26274W        W41891  12.397   5.815  14.249  0.0744  0.4130  0.0500
26275W        W41892  16.662  10.569  14.646  0.1912 -0.0482 -0.2010
26276W        W41893   5.619  18.711   0.417  0.0310  0.0252  0.2433
26277W        W41894   3.528   5.957   3.946 -0.3329  0.1187 -0.1726
26278W        W41895   4.561  18.089   1.157  0.0496 -0.0732  0.0700
26279W        W41896   4.148   1.210  11.622  0.0787 -0.0426  0.3869
26280W        W41897   5.139   9.523   4.591  0.0067 -0.0432 -0.1830
26281W        W41898   5.124   6.822  12.748 -0.1366 -0.0526 -0.2259
26282W        W41899  16.728  16.211   5.212  0.2205 -0.1179  0.0564
26283W        W41900  10.965  13.937  11.166 -0.1773  0.3652  0.2661
26284W        W41901  16.363   7.668  11.316 -0.3224  0.0324 -0.3050
26285W        W41902  10.779  15.873   2.845  0.1670  0.0362  0.2067
26286W        W41903   5.537   2.198   2.164 -0.2396  0.1531 -0.2341
26287W        W41904  13.611  14.000   3.669  0.0321 -0.3212 -0.0803
26288W        W41905   4.180   8.928  10.869 -0.3399  0.0664 -0.0207
26289W        W41906   3.523   1.952   3.416  0.1335 -0.0819  0.1041
26290W        W41907   3.907   1.330   1.473 -0.0959 -0.0952 -0.0000
26291W        W41908   7.658  18.966  14.331 -0.0127  0.1215  0.1644
26292W        W41909   9.193  15.296  11.112 -0.0489  0.0221 -0.2340
26293W        W41910  13.163  15.246   3.675 -0.0666  0.0506  0.2124
26294W        W41911   7.860   1.925  14.187  0.1363  0.1310  0.0887
26295W        W41912  16.449   3.664   0.683 -0.1012  0.3490  0.0706
26296W        W41913  12.453  10.010   4.188 -0.1130 -0.0357 -0.1998
26297W        W41914  17.013  18.255   0.363 -0.2542 -0.0059 -0.0729
26298W        W41915   9.052   9.994   3.908  0.0082 -0.0867  0.0688
26299W        W41916   3.691   1.547   1.023  0.0721 -0.1230  0.1260
26300W        W41917   2.920   5.144   4.390 -0.2193  0.0766 -0.2779
26301W        W41918   7.066   9.848   3.105  0.0691  0.0925  0.2643
26302W        W41919  18.308   6.779  13.238 -0.1914  0.2976 -0.3241
26303W        W41920  15.376  16.766  10.716 -0.1669  0.3416  0.2419
26304W        W41921  16.302   3.221   2.043  0.2310 -0.0766  0.0339
26305W        W41922  10.417  10.272  14.791 -0.0608  0.0192 -0.1028
26306W        W41923   5.676   6.620   2.663 -0.0726  0.2315  0.3418
26307W        W41924   5.400  10.016  13.840  0.0740  0.1271  0.2361
26308W        W41925  12.786  18.691  13.795 -0.1586 -0.0723 -0.0221
26309W        W41926   9.567  15.445   2.261 -0.1958  0.0051  0.0312
26310W        W41927   0.343  13.737  10.242 -0.1046  0.3385 -0.0629
26311W        W41928  16.155  18.551   3.417 -0.0394  0.0518  0.2237
26312W        W41929   2.661  12.784  14.450  0.1439  0.2690  0.2024
26313W        W41930  16.141   2.430  15.087  0.1251 -0.0171  0.0011
26314W        W41931  12.794   1.748  14.016  0.2125 -0.2008 -0.3154
26315W        W41932   6.623  17.841   0.830  0.1080 -0.1956  0.0024
26316W        W41933   5.787   7.895   0.994  0.0346  0.4260  0.3244
26317W        W41934   5.330  16.185   5.048  0.1524 -0.2737  0.3346
26318W        W41935   0.482   0.090   4.326  0.2031 -0.1861  0.0321
26319W        W41936  10.002   4.009   9.452 -0.1396 -0.0558 -0.0715
26320W        W41937  15.914   3.252   4.419  0.0345 -0.1030 -0.0122
26321W        W41938  18.864   7.121  14.950  0.2295  0.2671  0.1189
26322W        W41939   6.677  13.227   4.255  0.1203 -0.1025  0.0567
26323W        W41940   2.436   5.100   1.033  0.1386  0.1428 -0.2023
26324W        W41941  18.413  17.462  10.176  0.1076  0.0677  0.1564
26325W        W41942  15.967  12.836   2.755  0.4825 -0.0004  0.1659
26326W        W41943   8.333   3.187  12.244  0.0069 -0.2108 -0.2627
26327W        W41944   4.948   5.585  12.105  0.1212  0.0380 -0.0464
26328W        W41945   5.352  13.673   2.897 -0.0959 -0.3918  0.0279
26329W        W41946   1.726  12.910   0.394  0.2980  0.1254 -0.0783
26330W        W41947  15.352  11.579  10.983 -0.1130  0.2929 -0.1156
26331W        W41948   5.056   3.230  11.677  0.0270 -0.1444 -0.1782
26332W        W41949  12.382   0.558  13.838  0.1089 -0.2731 -0.0393
26333W        W41950  18.241   9.641  14.864  0.1239  0.1905  0.1067
26334W        W41951   5.289   1.941  15.141  0.1859  0.0122  0.1614
26335W        W41952   1.152  13.775   3.611  0.0368  0.1224 -0.0488
26336W        W41953   2.039  10.948  13.052 -0.3273 -0.1754 -0.0276
26337W        W41954  18.085   5.088   5.150  0.1352 -0.0209  0.0539
26338W        W41955   6.351   9.178   2.488 -0.4728 -0.1362  0.0847
26339W        W41956   9.552  17.728   5.117  0.3222 -0.0261  0.1805
26340W        W41957   4.350   8.297   2.362  0.1451 -0.2009  0.0581
26341W        W41958  11.272   6.200  11.207 -0.1417  0.0141 -0.1008
26342W        W41959   2.096  18.542  14.661 -0.2256  0.2432 -0.0933
26343W        W41960  18.026  10.040   1.682 -0.0106 -0.1067 -0.2992
26344W        W41961   5.929  18.513  12.619 -0.2467 -0.3612 -0.0488
26345W        W41962   6.655  14.759  13.762  0.3172 -0.0101  0.1026
26346W        W41963   9.754  11.712   4.644  0.3105  0.0692  0.3087
26347W        W41964   2.100  15.424   3.654 -0.1426  0.0981  0.2248
26348W        W41965  15.176   5.956   1.031  0.1006  0.3207 -0.2079
26349W        W41966   9.933  12.912   5.193  0.1986 -0.1948 -0.4378
26350W        W41967   1.649   8.355  11.445 -0.0130  0.0279 -0.0998
26351W        W41968  17.254  10.245  15.161  0.1424 -0.2627  0.1211
26352W        W41969  11.773   0.743  11.888  0.0012  0.1492 -0.0691
26353W        W41970   0.842  13.310  14.998  0.0497  0.1190  0.1533
26354W        W41971  10.179   6.730   3.216  0.2864  0.3069  0.0123
26355W        W41972  16.193  12.466   0.360 -0.2678 -0.2786  0.1759
26356W        W41973   3.243  12.796   3.273  0.0445  0.0640 -0.0398
26357W        W41974   9.433  18.807   3.314 -0.2538  0.1725  0.0688
26358W        W41975   1.765  12.212  13.959 -0.2260  0.3519 -0.2358
26359W        W41976  12.158  11.040  14.759 -0.1237  0.2423  0.5033
26360W        W41977   5.649   9.239   3.270 -0.2656  0.0107 -0.0499
26361W        W41978   6.984   3.813   4.637 -0.3683  0.0903 -0.1179
26362W        W41979   2.234   3.002   3.250  0.1767 -0.0280 -0.0262
26363W        W41980   9.345   2.175  12.548  0.2369  0.0588 -0.0904
26364W        W41981  16.202   1.631  14.837  0.1540 -0.0026 -0.0803
26365W        W41982  11.153   8.966   0.143 -0.0094 -0.3091 -0.0216
26366W        W41983  14.148   4.701  12.273  0.1750  0.3061 -0.3619
26367W        W41984   3.625   5.299  14.013  0.0782 -0.1133 -0.1662
26368W        W41985  18.448   8.083   5.213 -0.3209  0.0185  0.1493
26369W        W41986   4.086  14.377   0.143  0.0519  0.1780 -0.0433
26370W        W41987  13.432   8.224  14.104 -0.1346 -0.4826  0.0849
26371W        W41988   6.878  14.268  14.364 -0.4402 -0.0141 -0.0826
26372W        W41989   6.022  16.434   1.491 -0.0710 -0.2951  0.1888
26373W        W41990  15.610   5.137  10.950 -0.0976 -0.0277  0.2861
26374W        W41991  12.290   9.074  12.367  0.0029  0.0569  0.0940
26375W        W41992   3.507   0.486  12.967 -0.0737  0.2663 -0.1447
26376W        W41993   0.233   1.079   5.072 -0.0089  0.0726  0.0372
26377W        W41994   9.512   1.483  14.768  0.3991 -0.2233 -0.0435
26378W        W41995   9.728   1.592  11.944 -0.5625 -0.0170 -0.0159
26379W        W41996  13.373  17.559   1.265 -0.1001  0.0571 -0.1813
26380W        W41997  16.778  10.927   1.646 -0.2039 -0.0733 -0.2156
26381W        W41998   5.244   1.524  13.350 -0.1878  0.2308 -0.2361
26382W        W41999   0.343   8.501   0.384  0.1220  0.1444  0.0737
26383W        W42000  10.692   6.457   2.763  0.0693  0.0630 -0.2034
26384W        W42001  17.388  17.642   3.384  0.1098 -0.2876 -0.1079
26385W        W42002  11.510   2.251   0.480  0.5083  0.1434  0.0215
26386W        W42003  17.717  12.468  10.986 -0.0296  0.0930 -0.0468
26387W        W42004  15.007  18.017   2.880  0.0209 -0.0151  0.0436
26388W        W42005   6.579   9.117  10.396  0.0323  0.1989 -0.1046
26389W        W42006   3.913   5.152   5.477  0.0093 -0.1734  0.0054
26390W        W42007   7.058   4.109  11.543 -0.1304  0.1349  0.0227
26391W        W42008  18.216  14.076  13.620  0.0618  0.0926 -0.2921
26392W        W42009   7.176   6.877  11.845  0.0098 -0.1844 -0.0018
26393W        W42010  16.210   4.627  14.921 -0.0129 -0.0625 -0.1507
26394W        W42011   3.879   1.573   6.187 -0.2832 -0.0452 -0.4504
26395W        W42012  12.500  12.224   1.475  0.2001 -0.0410 -0.2334
26396W        W42013   5.926  10.308  10.940 -0.1124  0.1830  0.1124
26397W        W42014  11.644  15.642   0.510 -0.0636  0.1092  0.3491
26398W        W42015   0.465  13.932  10.768 -0.1377 -0.2996  0.3064
26399W        W42016  10.527   2.236  11.609 -0.1563  0.0830 -0.1386
26400W        W42017  14.362   3.860   2.584 -0.0914 -0.1114  0.0260
26401W        W42018   1.493  18.682  11.053 -0.0111 -0.0910  0.0138
26402W        W42019   2.689   3.049   6.037  0.1847 -0.1067 -0.1714
26403W        W42020   4.412   8.406   3.646 -0.0722  0.2330 -0.1210
26404W        W42021  17.629   0.121   2.825  0.0662 -0.0354  0.3984
26405W        W42022   7.699   1.295   9.988 -0.1413 -0.1053 -0.3476
26406W        W42023   7.773   6.023  14.601  0.0717 -0.4539 -0.0373
26407W        W42024   2.716   2.533  13.186 -0.2631 -0.0066  0.0834
26408W        W42025  13.723   8.376  11.944  0.0145  0.0616  0.3796
26409W        W42026  18.326   4.709  10.639  0.1379 -0.0706 -0.1470
26410W        W42027  15.554  11.719   4.511 -0.0146 -0.2788 -0.0586
26411W        W42028   2.333   6.882  10.682 -0.2198 -0.4169  0.0903
26412W        W42029   9.194  16.732   1.469 -0.1303 -0.2822 -0.0956
26413W        W42030  16.436   8.166  10.218  0.3213  0.2001  0.2119
26414W        W42031  16.573   0.034   1.361 -0.2900 -0.4388 -0.1619
26415W        W42032   2.283  13.526   1.572  0.2492 -0.0013 -0.2759
26416W        W42033  17.632   7.906  11.759 -0.0652 -0.1820  0.1767
26417W        W42034   0.726   1.208  13.949 -0.1720  0.1005  0.0533
26418W        W42035   1.582   9.655   1.170  0.1005 -0.0379 -0.0045
26419W        W42036  18.807  15.776  12.036 -0.1068  0.0974  0.0142
26420W        W42037   2.427   9.143   2.944  0.2617 -0.1658  0.0393
26421W        W42038  16.059  12.959   3.324  0.0258  0.0728  0.2375
26422W        W42039  10.280   1.348  12.685 -0.3448  0.3093  0.2183
26423W        W42040   3.588  11.899  13.662  0.1029  0.1673  0.4020
26424W        W42041  16.277  17.699  12.512 -0.1337 -0.3194 -0.0021
26425W        W42042  16.343   0.821   2.934 -0.0575 -0.0974 -0.0620
26426W        W42043   3.626  13.345   2.269  0.0267 -0.1625  0.2516
26427W        W42044  12.215  14.600  12.978 -0.1053 -0.3426  0.0894
26428W        W42045   7.130  11.534   4.579  0.0921 -0.1157 -0.2266
26429W        W42046  15.351  10.638   4.632 -0.2853  0.5574 -0.1624
26430W        W42047  13.671  19.064   2.436  0.2586 -0.1652 -0.1989
26431W        W42048   2.081   0.900  12.286  0.1560 -0.0660 -0.2796
26432W        W42049  10.847   7.661  12.777 -0.0892  0.0461 -0.5435
26433W        W42050   7.866  14.499  14.213  0.2295  0.2444 -0.0845
26434W        W42051   6.217   0.064   3.057  0.0859  0.0268  0.1639
26435W        W42052   1.200  12.467  13.146 -0.0534  0.1182  0.2199
26436W        W42053  12.920  10.351   3.496  0.1922  0.3753  0.1266
26437W        W42054  16.583  17.925   5.407 -0.2316  0.1137 -0.0923
26438W        W42055   0.001  14.326   1.046 -0.0806  0.1868  0.0846
26439W        W42056   5.079   6.257   2.733  0.0463  0.0345 -0.0337
26440W        W42057   4.825   1.817  13.857  0.1832 -0.1868 -0.2790
26441W        W42058  17.488   5.116  10.980 -0.3327 -0.2162  0.1985
26442W        W42059  12.319   6.642  14.447 -0.0746  0.0528 -0.0654
26443W        W42060  19.077   9.008  13.268 -0.3476  0.0002  0.0738
26444W        W42061  15.117  13.783   0.495  0.1616  0.0788  0.1220
26445W        W42062   9.683   9.609  12.227  0.0182  0.1515  0.1270
26446W        W42063  13.666   8.556  12.868  0.3159 -0.0266 -0.1240
26447W        W42064   3.996   6.205  11.635  0.0420  0.2785 -0.0841
26448W        W42065   8.362   4.214   3.440  0.0920  0.5434 -0.2552
26449W        W42066   6.298  16.605   5.297 -0.1915 -0.1800 -0.0951
26450W        W42067   1.731   8.723   3.583  0.1887 -0.0652  0.3488
26451W        W42068   3.342  15.901  10.868  0.2621  0.3679  0.2198
26452W        W42069   8.194   5.567   3.462 -0.2769  0.0808  0.0949
26453W        W42070  10.199  16.051  14.808  0.2369  0.2640  0.1985
26454W        W42071   4.005   5.053  15.154 -0.0125  0.2130  0.1137
26455W        W42072   6.529   5.837   4.346 -0.1079 -0.1571  0.2265
26456W        W42073  10.953  13.330   4.328 -0.0979 -0.1731  0.1955
26457W        W42074  12.046   0.859  12.640 -0.0611  0.0149  0.0163
26458W        W42075   7.490   6.172  11.957  0.2624  0.0254 -0.1290
26459W        W42076   1.267   2.670   9.808  0.1874 -0.2501 -0.1351
26460W        W42077   4.471   4.762   1.401 -0.0217  0.0213  0.1435
26461W        W42078   9.406   7.651   0.218 -0.0425  0.0274  0.0924
26462W        W42079   4.838   3.127  15.007  0.4496 -0.0196 -0.0826
26463W        W42080   3.065  16.983  12.496  0.1993 -0.0919  0.1090
26464W        W42081   9.096  18.330   0.760 -0.0258 -0.0139 -0.1149
26465W        W42082   8.956   7.457   1.025  0.2367 -0.0969 -0.1344
26466W        W42083  17.594   8.307   3.496  0.2032 -0.2474  0.3080
26467W        W42084   4.338   4.057  13.587  0.0629 -0.1538  0.0667
26468W        W42085  10.876   4.260  14.072 -0.0604  0.0926 -0.2440
26469W        W42086   6.910  13.118   3.278  0.0812  0.2598 -0.1320
26470W        W42087   9.637   9.784  10.949 -0.1886 -0.1172 -0.2051
26471W        W42088  15.414   4.334   5.507 -0.0668  0.0988  0.3129
26472W        W42089  11.445  14.110  12.998 -0.2166 -0.0087  0.3348
26473W        W42090  16.404  12.166   1.230 -0.1158 -0.2208  0.2417
26474W        W42091   7.981   1.014  10.636  0.4148  0.0881 -0.0075
26475W        W42092  16.077   2.220   5.776 -0.0717  0.3916  0.0628
26476W        W42093   0.950   4.534   3.602  0.1709  0.1334  0.1556
26477W        W42094  13.834   0.165  10.482  0.2864 -0.0542  0.0547
26478W        W42095   0.033   7.860   1.009 -0.3681  0.1907  0.1658
26479W        W42096   1.223   0.055  11.100 -0.0386 -0.1424  0.0146
26480W        W42097   4.279  17.908  11.141 -0.1016 -0.1035  0.0517
26481W        W42098  16.379  10.091   4.218  0.1082  0.0803  0.0152
26482W        W42099   0.742  15.524   4.919 -0.1240  0.1876  0.2799
26483W        W42100   4.295  13.937  11.649 -0.0780 -0.0933 -0.1989
26484W        W42101   6.633   4.370   2.602  0.3773  0.1259 -0.4165
26485W        W42102   8.630  15.890   4.813  0.1666  0.0263  0.1655
26486W        W42103  10.303  11.135   1.434  0.0070  0.0855  0.2723
26487W        W42104   0.448   6.580   4.955 -0.0748  0.1588 -0.2515
26488W        W42105   0.374   3.281   2.650  0.0991  0.1008  0.0178
26489W        W42106  17.309  11.362  13.374 -0.2754 -0.0374 -0.0132
26490W        W42107  11.055  10.060   4.505  0.1389  0.4560  0.2217
26491W        W42108   0.482   7.774   1.672  0.1372 -0.0644  0.1696
26492W        W42109  10.723   8.422   2.903  0.0032 -0.0729 -0.0166
26493W        W42110  10.416   9.403   5.200 -0.0947  0.1641 -0.0083
26494W        W42111   5.075   9.998   3.888 -0.1143  0.0459 -0.0491
26495W        W42112  10.057  18.589   4.576  0.0910 -0.1632 -0.2257
26496W        W42113  13.181  18.590   4.876  0.1411 -0.0384 -0.1126
26497W        W42114   6.636   7.116  12.576  0.1371 -0.0493  0.1740
26498W        W42115  12.426   0.607  13.374 -0.0566 -0.1926  0.2993
26499W        W42116   0.245  11.187  14.020  0.0411  0.0793 -0.1325
26500W        W42117   2.764   3.806  10.845 -0.1580  0.1280 -0.2696
26501W        W42118   4.882   9.398  13.286  0.3465 -0.0721  0.0418
26502W        W42119  10.551  13.498  13.922 -0.0186 -0.1471 -0.2811
26503W        W42120  17.288   0.222  13.119 -0.0363 -0.2415 -0.1549
26504W        W42121  18.821   8.799   1.191  0.1222  0.1108  0.2642
26505W        W42122  12.630   9.827   2.725  0.0034 -0.0647 -0.3024
26506W        W42123  15.894  10.520   0.049 -0.1406 -0.1427  0.2409
26507W        W42124   3.932  11.049   3.769  0.0575  0.0756  0.0723
26508W        W42125   4.588   2.731   3.331 -0.0565 -0.1639  0.0904
26509W        W42126   8.820  11.145   2.844  0.1355 -0.1610  0.2227
26510W        W42127  10.471   4.736  10.597  0.1890  0.0399 -0.1726
26511W        W42128  15.737   1.957  14.584 -0.1399  0.2362  0.1869
26512W        W42129  13.850   5.543  12.502  0.2645 -0.0074  0.1204
26513W        W42130   6.068   1.427   4.882 -0.3258 -0.3379 -0.0174
26514W        W42131  15.579   6.605  11.359 -0.0363 -0.0468 -0.0539
26515W        W42132  11.620   4.574  15.152  0.1892 -0.1593  0.0474
26516W        W42133   8.757  16.097   1.682  0.1758  0.2065  0.0014
26517W        W42134   3.911  17.828   9.925 -0.2304  0.1002  0.0297
26518W        W42135  16.439  11.308   5.014 -0.1585 -0.2210 -0.3125
26519W        W42136  10.286  18.529  13.484  0.5402  0.0359 -0.0768
26520W        W42137   1.888  11.964   0.008 -0.0422  0.0329 -0.2437
26521W        W42138   4.537  15.250  11.123 -0.0666  0.1496  0.2286
26522W        W42139  16.745   9.021   2.379  0.0673 -0.0995  0.1246
26523W        W42140  17.561  16.782  11.077  0.1823 -0.0659 -0.0739
26524W        W42141  11.867   3.241  14.985  0.0568  0.0247 -0.0441
26525W        W42142  16.574  12.577  14.204  0.0221  0.3077  0.0996
26526W        W42143  12.264  12.947  13.302  0.4276 -0.0871  0.0383
26527W        W42144   9.810   5.571   0.863  0.0006 -0.1673  0.1041
26528W        W42145   2.215   8.067   5.008 -0.1855  0.1051 -0.0352
26529W        W42146  14.463  11.733  12.100 -0.0848  0.1786  0.0399
26530W        W42147  11.003  16.592   3.944 -0.0996  0.0457 -0.0305
26531W        W42148   1.416   9.317  11.551  0.1242  0.0473  0.1733
26532W        W42149  14.894   1.757  11.364 -0.0657 -0.0677  0.0751
26533W        W42150  17.126  18.700   0.599 -0.0514 -0.1924 -0.0316
26534W        W42151   0.108   2.443  13.739 -0.0335  0.2545 -0.0470
26535W        W42152  10.462  13.417  11.455 -0.1010 -0.2928  0.2398
26536W        W42153  11.861   2.252  13.446  0.1311 -0.0402  0.4107
26537W        W42154   1.301   0.941   4.247  0.1374 -0.4425  0.2041
26538W        W42155  16.920   2.662  12.822 -0.0597  0.1219 -0.5058
26539W        W42156   2.014   8.818  11.100  0.1742  0.6567  0.1741
26540W        W42157  13.882   4.568   0.070 -0.0672  0.1388  0.0931
26541W        W42158  14.283   0.702   4.571  0.0551  0.3744  0.1058
26542W        W42159  17.309  12.903   1.098  0.2681  0.2597  0.1627
26543W        W42160   8.716   4.368  14.578 -0.2636  0.1201  0.0064
26544W        W42161   3.399  11.284  11.466  0.2497 -0.2770  0.3072
26545W        W42162   4.143  14.484  10.022 -0.1365 -0.2750  0.1859
26546W        W42163  13.428  18.505   5.928 -0.1473  0.3224  0.0508
26547W        W42164   0.679   5.917   0.174 -0.1269  0.0494 -0.0353
26548W        W42165  11.264   4.837  11.004 -0.0366  0.0531 -0.1236
26549W        W42166  15.370  13.231   1.363  0.0324  0.2375 -0.1070
26550W        W42167  12.350   9.875   2.344 -0.2198  0.0548 -0.1322
26551W        W42168  18.212   9.267  11.564  0.2157  0.3335  0.0047
26552W        W42169  12.578   7.207  14.553  0.0947  0.1125 -0.2236
26553W        W42170   8.341   7.576  14.079  0.3082  0.0659 -0.0917
26554W        W42171   9.940  12.558   0.842 -0.2249 -0.0375 -0.1025
26555W        W42172   0.377   2.671  15.246  0.1035  0.0393  0.0309
26556W        W42173  14.070  12.406  13.966 -0.0027 -0.1618 -0.3447
26557W        W42174  15.137  13.198   3.928 -0.0249  0.4188 -0.2134
26558W        W42175   5.673  14.639   1.635 -0.1219  0.2153 -0.1709
26559W        W42176   6.174   4.950   3.892  0.2718  0.2885 -0.3208
26560W        W42177   7.134   6.545  11.096 -0.1096 -0.1741 -0.2444
26561W        W42178   0.051   5.270   3.042  0.3083  0.1987 -0.2856
26562W        W42179   4.835  11.226  14.873  0.1236  0.3670  0.1533
26563W        W42180  16.263  14.848   2.215 -0.3185 -0.1558  0.1872
26564W        W42181   1.203   2.683  10.737 -0.1901 -0.4228  0.2527
26565W        W42182   2.310   2.547  12.328  0.1229  0.3276 -0.4653
26566W        W42183  12.631  12.867   1.361 -0.0628  0.1156 -0.0183
26567W        W42184  17.338  19.033  14.061  0.1166 -0.1528  0.1017
26568W        W42185   5.081   0.351  11.104 -0.0591 -0.3978 -0.0718
26569W        W42186  16.581   2.777   1.171 -0.0670  0.2190  0.0166
26570W        W42187   1.447   4.817   3.315 -0.3884  0.0964 -0.2402
26571W        W42188  15.086  10.822   4.255  0.1426 -0.0396  0.0226
26572W        W42189   1.703  13.025  15.185 -0.0154  0.1434 -0.0336
26573W        W42190   3.109   6.371   0.293 -0.2296 -0.1765 -0.1192
26574W        W42191  11.084  18.498  12.980  0.3160  0.0839 -0.1578
26575W        W42192   2.703   1.105   5.126 -0.1118 -0.1489  0.2290
26576W        W42193   5.440  15.147   1.275  0.0197 -0.0970 -0.1225
26577W        W42194   8.453  14.181   1.412 -0.0159 -0.3111 -0.1461
26578W        W42195   0.806  15.053  14.166  0.0362 -0.2426 -0.1545
26579W        W42196  16.526  18.247   4.284 -0.1677  0.0122  0.1997
26580W        W42197   3.378   4.790   3.604  0.2320 -0.1215 -0.1845
26581W        W42198   2.780   9.593  13.917 -0.0417  0.0981 -0.1011
26582W        W42199  11.064  14.375  11.279  0.0565  0.0387 -0.0415
26583W        W42200   1.938  11.749  13.663 -0.4117  0.0410  0.2711
26584W        W42201   6.057  11.424  12.566  0.1003  0.0397  0.0232
26585W        W42202   8.468   1.876  14.738 -0.1683  0.0079 -0.1362
26586W        W42203  17.948   7.782   0.375 -0.0287  0.0895 -0.1100
26587W        W42204  12.121   7.085  14.434 -0.2734 -0.3448  0.0468
26588W        W42205   9.304  19.009   4.046  0.2953 -0.2270 -0.2005
26589W        W42206   2.846   1.343  14.394 -0.0310 -0.0626 -0.0262
26590W        W42207   0.447  18.594  13.957  0.1979  0.3197 -0.2059
26591W        W42208  13.013   1.662   4.201  0.3421  0.1655  0.0519
26592W        W42209   4.263  18.453   4.001  0.3599  0.1045 -0.0042
26593W        W42210  17.983  12.985   1.878  0.2467 -0.0918 -0.0947
26594W        W42211   7.755   0.904   3.329  0.0789  0.3252  0.0890
26595W        W42212  19.078   8.513  10.726 -0.0798 -0.1162  0.0531
26596W        W42213   1.077   3.303   1.636  0.0100  0.0807  0.0625
26597W        W42214  10.328   0.155   3.368 -0.1370 -0.0404  0.1278
26598W        W42215   8.721  15.251   0.780  0.1865  0.0140 -0.1043
26599W        W42216  18.232   4.318  12.702 -0.3529  0.2046  0.4985
26600W        W42217  16.761  14.123  10.574  0.0374 -0.0069 -0.1536
26601W        W42218  13.049   1.969   0.215 -0.0157  0.0640 -0.2823
26602W        W42219   6.539  17.297  14.522  0.0827  0.3404 -0.0544
26603W        W42220   8.381  10.019  11.290 -0.2331  0.3615 -0.0111
26604W        W42221   6.837  18.457   4.929 -0.3067 -0.3517 -0.2485
26605W        W42222   7.957  15.520   1.399  0.3661  0.0742  0.0596
26606W        W42223   8.717   3.511  15.271 -0.1510 -0.1083  0.2646
26607W        W42224   0.488   7.442  10.877  0.0224  0.3043  0.3259
26608W        W42225  14.750   7.499  10.883  0.4988 -0.1754 -0.0611
26609W        W42226   6.336   5.582  14.928 -0.4447 -0.0367 -0.1604
26610W        W42227   5.967   4.808   4.453  0.0916  0.0936  0.0979
26611W        W42228   9.552  16.078   2.345 -0.1577  0.2029  0.1786
26612W        W42229   9.676   8.472   0.503  0.0883 -0.2868  0.0222
26613W        W42230  17.667   7.089  12.126  0.3342 -0.0280  0.2457
26614W        W42231  16.470   7.629   3.301 -0.0813 -0.1915  0.2565
26615W        W42232  18.701  15.630   3.714 -0.1739 -0.1304  0.0073
26616W        W42233  11.163   7.701   1.594 -0.3244  0.2339 -0.3563
26617W        W42234   1.064   9.925   1.355 -0.2129 -0.0250  0.0112
26618W        W42235  16.489  14.367  11.176  0.3056 -0.3697 -0.0742
26619W        W42236   9.979   8.096   0.866  0.1647 -0.3277  0.4607
26620W        W42237   1.879  13.103   4.239  0.0400  0.0829  0.0501
26621W        W42238   7.129  18.580  12.121 -0.1994 -0.0614 -0.0833
26622W        W42239  12.311  10.489  12.465  0.2692  0.1723 -0.2665
26623W        W42240  18.098  14.328  12.660  0.1164  0.1047  0.0508
26624W        W42241   3.294  14.073   1.029  0.2676  0.2119 -0.2129
26625W        W42242   2.969   1.645  10.017 -0.0415  0.2118 -0.1938
26626W        W42243  13.945  18.693  15.120 -0.2408 -0.1688 -0.2023
26627W        W42244   2.006   0.092   0.072  0.2881 -0.1641  0.0665
26628W        W42245  10.707  17.046  13.656  0.0402  0.1472 -0.0809
26629W        W42246   8.425   2.563   4.822 -0.2821 -0.2343 -0.0345
26630W        W42247  18.642  14.161  10.943  0.0252 -0.3140 -0.1438
26631W        W42248   2.562   2.839  14.167 -0.3231 -0.1760 -0.0464
26632W        W42249   3.865   5.152   2.892  0.0736 -0.2522  0.1025
26633W        W42250   9.234  10.889  14.450 -0.1147  0.3245 -0.3248
26634W        W42251   3.861   8.978   4.665  0.0607  0.3024  0.0191
26635W        W42252   7.870   6.907   2.873 -0.3176  0.4427 -0.0087
26636W        W42253  16.878   8.937  12.255  0.0884 -0.0271  0.2717
26637W        W42254   6.086  16.311   3.347  0.0863  0.1040 -0.0861
26638W        W42255  11.181   7.548  12.131  0.0965 -0.1508  0.0569
26639W        W42256  16.560  16.764   4.630 -0.4538  0.1171  0.1633
26640W        W42257   9.269   7.875   1.089 -0.2043 -0.2139 -0.0563
26641W        W42258   6.329   3.309  10.762  0.1690  0.1050 -0.1653
26642W        W42259   4.235  18.102   2.375  0.3115 -0.0023 -0.0073
26643W        W42260   9.817   5.878  12.936  0.4489 -0.0495  0.2700
26644W        W42261   6.747   4.446   2.155 -0.1486 -0.0576 -0.1838
26645W        W42262  14.931  13.668  13.938 -0.1166  0.0695 -0.3508
26646W        W42263   2.142  10.556   2.788 -0.1794  0.5073 -0.1664
26647W        W42264   6.379   3.463   9.886  0.1002 -0.4579  0.0530
26648W        W42265  17.723   8.721   4.950  0.2288  0.0366  0.2923
26649W        W42266   5.658   2.494  12.734  0.2715 -0.0606 -0.1229
26650W        W42267   8.247   3.119   0.639 -0.4131  0.1847 -0.4833
26651W        W42268  18.422  12.627   1.663 -0.0132 -0.1807 -0.1390
26652W        W42269   1.463   8.856  14.387 -0.0985  0.2084 -0.2457
26653W        W42270  14.449  13.264  11.706  0.2276 -0.2495 -0.4153
26654W        W42271  16.166  12.886  14.110 -0.3033 -0.0398  0.2514
26655W        W42272  10.292   7.089   4.656  0.1269 -0.0774 -0.2369
26656W        W42273  18.381   2.112   1.565  0.0115 -0.2707 -0.0723
26657W        W42274  12.277   0.585   3.013  0.1551  0.0617 -0.0230
26658W        W42275  10.868   0.500  15.145  0.0227  0.3540 -0.0812
26659W        W42276   2.783   2.023  13.922  0.3394 -0.1499  0.1987
26660W        W42277  18.944  13.038  10.714 -0.1611  0.0858  0.3843
26661W        W42278  16.794  14.793  12.826 -0.0547  0.1343 -0.1014
26662W        W42279  13.086  17.008   1.993 -0.1468  0.1522  0.0012
26663W        W42280  17.191   4.712  11.960  0.0266  0.1565 -0.1345
26664W        W42281  11.603   0.933  13.028  0.0695 -0.0781 -0.0495
26665W        W42282  11.881  16.996   1.748 -0.0846 -0.0127 -0.4153
26666W        W42283   7.923   7.738  13.013 -0.2979 -0.1235 -0.0594
26667W        W42284   9.372  12.418  12.235  0.2414  0.3615  0.0788
26668W        W42285  10.638  11.715   1.408  0.1021 -0.2318 -0.0564
26669W        W42286   7.854   1.782   1.056  0.0768  0.0737 -0.1621
26670W        W42287  10.829  12.539  10.474 -0.2742  0.3894  0.3017
26671W        W42288   7.466   9.599  13.892 -0.2506 -0.4153 -0.2544
26672W        W42289   4.578   2.431  12.419  0.0962  0.1698  0.0507
26673W        W42290   3.390  12.496  12.493  0.2342  0.2165  0.3215
26674W        W42291   0.253   2.780  10.706  0.1110  0.1768 -0.2511
26675W        W42292  15.103  10.216   4.403  0.0753 -0.4146  0.0192
26676W        W42293  16.705   3.289   4.747  0.0293  0.0458 -0.0080
26677W        W42294  10.578   2.110   3.545  0.3051 -0.2005 -0.0080
26678W        W42295  12.818  15.077  11.592  0.1283 -0.0275  0.3492
26679W        W42296  13.742  16.953   2.059  0.0584  0.1552 -0.3896
26680W        W42297   0.354  10.628   3.813 -0.1400  0.0791  0.0086
26681W        W42298   9.957  17.507   3.023  0.1823 -0.2935 -0.4816
26682W        W42299   9.923  14.861   9.858 -0.2275 -0.1562 -0.1393
26683W        W42300  11.570   1.994   3.671  0.0401 -0.2237  0.1869
26684W        W42301  12.935   9.574  11.487 -0.0224 -0.0102 -0.0717
26685W        W42302   4.183  11.983   2.605 -0.1645  0.2161  0.4046
26686W        W42303  17.545  12.977   1.586  0.1747  0.1192 -0.0370
26687W        W42304  15.375   3.122  15.110 -0.2217  0.1331 -0.2883
26688W        W42305  10.951   8.527  13.008 -0.0030 -0.2141  0.1669
26689W        W42306   3.928  11.109   1.634  0.0279  0.3738  0.1935
26690W        W42307  10.999  14.204   4.324  0.1338 -0.0407 -0.1905
26691W        W42308  12.231  18.095  12.429  0.0414 -0.3019  0.0184
26692W        W42309  12.441  10.799  10.674  0.3017  0.1332 -0.0122
26693W        W42310  11.068   9.472  11.143  0.1313 -0.0205  0.4586
26694W        W42311   3.717  10.986  12.201  0.0640  0.3313  0.0542
26695W        W42312   4.943  11.584   3.834 -0.0589  0.0589  0.0150
26696W        W42313  14.953   6.492   5.474 -0.2044 -0.0762 -0.0211
26697W        W42314   8.419   9.159  14.036  0.2749 -0.1621  0.2595
26698W        W42315  18.318  13.292   5.150 -0.0031 -0.3297  0.2710
26699W        W42316  18.330   1.352   1.915  0.3488 -0.3136 -0.0328
26700W        W42317  18.243   1.218   3.866  0.0310 -0.3965  0.0574
26701W        W42318  11.204  14.084  13.998 -0.2271  0.0765 -0.3375
26702W        W42319   6.490   4.336  10.904  0.4074  0.3251 -0.0738
26703W        W42320  12.562  11.014   2.898 -0.2399 -0.0936  0.2344
26704W        W42321   2.659  12.207  12.076 -0.1623  0.2417  0.3199
26705W        W42322   4.295   4.554   3.408 -0.0442  0.0824  0.0328
26706W        W42323   4.821   7.613   2.829 -0.3071 -0.2648  0.0165
26707W        W42324  11.899   2.137   2.164  0.2172  0.1424 -0.0864
26708W        W42325  17.547  11.460   1.868 -0.1240  0.1707 -0.1012
26709W        W42326   5.105  16.720  11.863 -0.2986  0.0412 -0.1744
26710W        W42327   3.048  16.412   1.616 -0.0961  0.0233 -0.0809
26711W        W42328   3.290  17.702  11.055  0.3596  0.0859 -0.3140
26712W        W42329   3.928   4.964  13.882  0.1095 -0.0446 -0.0327
26713W        W42330  10.828   4.583  10.995 -0.1597 -0.0171 -0.0827
26714W        W42331   5.166   8.548  12.271  0.1886 -0.0824 -0.4755
26715W        W42332  18.554   9.164   1.890  0.0640  0.1709 -0.2397
26716W        W42333   4.547   0.833  13.112 -0.0951  0.4205 -0.0101
26717W        W42334   6.506   1.130   2.582  0.4059 -0.0162 -0.2732
26718W        W42335   2.486  18.941  10.926  0.0082  0.4374 -0.1006
26719W        W42336   2.311   7.117   2.592  0.1719 -0.2329 -0.2898
26720W        W42337  11.869   3.087   4.610  0.0876  0.1333 -0.0451
26721W        W42338  13.473  13.806   2.004 -0.1211 -0.0139 -0.1868
26722W        W42339   4.611  10.865  14.097  0.0918 -0.2387 -0.0507
26723W        W42340   7.172  11.507   4.066  0.1195 -0.3907  0.3160
26724W        W42341  13.677   0.187   3.463 -0.1244 -0.0573  0.0696
26725W        W42342  15.873  18.430  10.051  0.0138 -0.1905  0.1958
26726W        W42343  17.695   1.854   3.224  0.1374  0.4175  0.2551
26727W        W42344  14.437   0.992  11.742  0.0099  0.0490  0.3214
26728W        W42345  11.841   9.355   0.820  0.1009 -0.0013 -0.0661
26729W        W42346   7.244  15.843   4.757 -0.0085  0.1721 -0.1083
26730W        W42347   6.911   1.964   3.743 -0.0091 -0.0048 -0.3970
26731W        W42348  13.021   2.320   2.123 -0.1601 -0.0698  0.0404
26732W        W42349  14.779  13.746  14.460  0.2250 -0.2613 -0.1719
26733W        W42350  10.652  16.201  11.750  0.1208  0.2988  0.0193
26734W        W42351   1.761  17.332  12.821 -0.1523  0.1225 -0.0149
26735W        W42352  11.193  17.134   2.648  0.2592 -0.0614 -0.1838
26736W        W42353   8.326  16.939  12.954 -0.1385 -0.3267  0.3663
26737W        W42354   4.848   9.168  12.490  0.1175  0.0350 -0.1523
26738W        W42355   0.998  11.426   2.151  0.0487  0.1559  0.3399
26739W        W42356   4.846  14.250  11.014 -0.3185 -0.1396  0.0896
26740W        W42357   6.328   5.562  12.375  0.3830 -0.0139  0.2913
26741W        W42358   2.033   4.133  11.392 -0.0319 -0.1598 -0.1572
26742W        W42359   3.091   3.780   1.275  0.2354 -0.1762 -0.2788
26743W        W42360   7.855  11.042   3.744 -0.2240 -0.0401 -0.0353
26744W        W42361  16.689   2.759   0.273  0.1811  0.1542 -0.1510
26745W        W42362   5.424  10.318  14.362  0.1939 -0.3108 -0.1142
26746W        W42363   9.613   8.977   4.881 -0.2776 -0.1699  0.1671
26747W        W42364   5.017  10.132   0.300  0.0422  0.0932  0.2073
26748W        W42365  12.369   8.288  13.091 -0.3540  0.1887  0.4624
26749W        W42366  12.545   4.428   4.350  0.0693  0.1590  0.1310
26750W        W42367   8.710  11.980   1.665 -0.0633 -0.2985 -0.1772
26751W        W42368  18.492   0.772   1.272 -0.0208 -0.0251 -0.0984
26752W        W42369   0.549   4.532  15.199  0.1917 -0.1844  0.0139
26753W        W42370   5.260   8.327   5.426  0.0554  0.0288  0.0818
26754W        W42371  18.586  11.200   2.009 -0.0722 -0.1257 -0.0364
26755W        W42372  13.191   9.622   2.888  0.1185 -0.1649  0.0234
26756W        W42373  16.554  10.910   3.810  0.0752 -0.2885 -0.0638
26757W        W42374  12.459  13.866  14.066 -0.0725 -0.1768 -0.2317
26758W        W42375  11.453  17.313   0.761  0.0124  0.0476 -0.2146
26759W        W42376  18.240   2.481  15.096  0.2506  0.1572  0.0016
26760W        W42377  12.722   3.145  10.154  0.1283  0.1569 -0.1381
26761W        W42378   8.225   7.657   9.813 -0.1934  0.2459  0.2073
26762W        W42379   9.825   2.039   0.619  0.1501  0.0891 -0.0570
26763W        W42380   6.018   2.780  12.931 -0.0130 -0.1147  0.1362
26764W        W42381  18.532   2.975   5.120  0.0885  0.1369  0.0648
26765W        W42382  18.705   5.700  13.416 -0.2437  0.1121  0.0017
26766W        W42383   0.132  13.996   4.381 -0.0071 -0.1036 -0.1689
26767W        W42384  10.112  15.402   4.731  0.3413 -0.3582 -0.0238
26768W        W42385   1.521  10.461   1.501 -0.1048 -0.4160 -0.3301
26769W        W42386  11.395   8.535  13.274 -0.3213 -0.0763 -0.0358
26770W        W42387   8.710   2.223   4.625 -0.0535  0.1647 -0.1619
26771W        W42388  14.422  14.800   2.325 -0.2593 -0.1962  0.4068
26772W        W42389   3.093  18.301  13.206  0.0031 -0.3081  0.1088
26773W        W42390  18.698  16.128   3.600 -0.0026 -0.2179  0.1689
26774W        W42391  11.691  11.283   0.473  0.0670 -0.0274  0.1988
26775W        W42392  10.255   4.585  12.415  0.3489  0.4260 -0.2527
26776W        W42393  17.248   5.851  11.467 -0.0485 -0.0339 -0.1056
26777W        W42394   0.102   9.135   5.210 -0.2803  0.0978  0.3972
26778W        W42395  14.472   9.369  15.231 -0.0050  0.2169 -0.0767
26779W        W42396  12.144   2.532  13.787  0.3620  0.0326  0.3108
26780W        W42397  18.591   7.947  10.885  0.0540  0.2668  0.1267
26781W        W42398   9.467  10.463  13.816 -0.2054 -0.0342 -0.2025
26782W        W42399   1.058   9.464   1.128 -0.1718 -0.2824  0.1383
26783W        W42400  14.557   8.778   4.251 -0.0669 -0.1553  0.2050
26784W        W42401  15.224   9.753   4.659  0.1246 -0.1862 -0.3550
26785W        W42402   4.846  11.804  11.226 -0.3858 -0.1031 -0.1099
26786W        W42403  17.953  14.039  10.282 -0.0345 -0.0538 -0.0520
26787W        W42404   1.800   3.844  11.054 -0.0564  0.3426 -0.2369
26788W        W42405   7.050   3.537   1.866 -0.1486  0.1354  0.2615
26789W        W42406  16.729  12.067  14.034 -0.0999 -0.1103 -0.1380
26790W        W42407   8.732  18.634  14.610  0.1060  0.0231 -0.0060
26791W        W42408   6.735   4.502   4.335  0.3832  0.1881 -0.1171
26792W        W42409   4.101   4.478   1.693  0.0218 -0.1502  0.3501
26793W        W42410  13.272  18.806   2.953  0.3460 -0.1064  0.1146
26794W        W42411   7.430  10.120  12.286  0.2295 -0.2517 -0.2728
26795W        W42412  17.457  14.334  11.285 -0.0795  0.4171 -0.0479
26796W        W42413  18.570   6.742  15.100  0.2758  0.0558 -0.2536
26797W        W42414  15.563  15.557   4.804 -0.0006 -0.3581 -0.2059
26798W        W42415   8.704   4.027  11.144  0.1117  0.2451 -0.5497
26799W        W42416  15.889  14.160  11.071 -0.3552 -0.2455 -0.3035
26800W        W42417  15.849   1.830   2.425  0.2415  0.0563  0.1091
26801W        W42418   7.351  14.490  13.820  0.1010 -0.0568 -0.1065
26802W        W42419  15.941   6.841  11.854 -0.0189  0.1488 -0.1304
26803W        W42420   2.199   7.833   0.878 -0.2191 -0.0688  0.2495
26804W        W42421   5.606   1.804  13.111  0.3009  0.2657 -0.2973
26805W        W42422  11.293  12.174   0.796  0.1115  0.1274 -0.1157
26806W        W42423  12.147  16.995  14.207 -0.0578 -0.1169  0.0700
26807W        W42424   8.703  16.581  12.777 -0.1291 -0.3118 -0.0679
26808W        W42425  17.455  16.318  14.114 -0.0142  0.0608  0.1921
26809W        W42426  10.588   9.939   4.861  0.1498  0.0203 -0.1526
26810W        W42427   1.111   3.227   0.295  0.0415  0.0123 -0.1791
26811W        W42428   4.659   3.092   0.659  0.1571  0.2613  0.1064
26812W        W42429  17.706  18.915  11.420  0.0847 -0.1252  0.4486
26813W        W42430   9.919   7.865  13.772  0.0877  0.1416 -0.3395
26814W        W42431   6.911  17.580   3.271  0.1073 -0.2566  0.0485
26815W        W42432  12.582   0.804   2.636  0.3010 -0.3542 -0.3288
26816W        W42433   5.419   9.550   3.690 -0.0874 -0.0870  0.5007
26817W        W42434  12.248   1.623  13.917 -0.2719  0.0065  0.1259
26818W        W42435  16.627  11.932  11.672  0.1424 -0.1298 -0.1083
26819W        W42436  16.917   7.930   0.186  0.0235  0.0004 -0.1171
26820W        W42437   4.899  17.412   4.966 -0.1123 -0.0676 -0.0375
26821W        W42438   6.885  12.035   4.361  0.0584  0.3543 -0.0692
26822W        W42439  18.485   0.577   9.226  0.0500  0.1198  0.0284
26823W        W42440  14.105   8.210   4.123  0.1640 -0.2752  0.0434
26824W        W42441  10.463   2.046   4.982  0.2575  0.0256  0.0613
26825W        W42442   6.066  13.730  12.822 -0.0396  0.2735  0.1543
26826W        W42443  18.349  12.928  14.449 -0.2546  0.0239 -0.1083
26827W        W42444  15.258   5.408  12.551  0.0341  0.0134 -0.2145
26828W        W42445  10.742   8.307  12.154  0.1086  0.0596  0.4126
26829W        W42446   5.971  18.907  10.264 -0.0951 -0.2356  0.1020
26830W        W42447   7.116   4.747   0.951  0.0181  0.0374  0.1752
26831W        W42448   8.769  18.772  12.495  0.1071  0.2507  0.0190
26832W        W42449   8.306   3.337   5.776 -0.1163  0.0168  0.0572
26833W        W42450   4.006  17.428   2.724  0.3006  0.1421 -0.3462
26834W        W42451   3.171   7.211   5.124  0.0544  0.1766  0.0774
26835W        W42452  15.120  10.247   0.512 -0.1273  0.1448  0.0290
26836W        W42453   0.489   3.219   0.128  0.1312  0.0662 -0.0220
26837W        W42454  13.448  17.099  10.774 -0.1429 -0.1758 -0.2090
26838W        W42455  17.707  15.398   3.277 -0.1102 -0.0423  0.0083
26839W        W42456   9.685  14.915   0.646 -0.1863 -0.1233  0.3588
26840W        W42457   6.255  10.980  13.454  0.3412  0.1052  0.1690
26841W        W42458  18.402   1.330  13.050 -0.2376 -0.1149  0.1301
26842W        W42459  12.607  10.653   0.083 -0.1574 -0.1939 -0.1774
26843W        W42460  11.857  13.716   2.980  0.0274  0.1775 -0.2509
26844W        W42461  14.755  10.784  13.137 -0.1146  0.2307 -0.1002
26845W        W42462  10.011   0.367   1.140  0.0101  0.1100 -0.0328
26846W        W42463   7.506  15.639   4.392  0.1196 -0.2202 -0.1820
26847W        W42464   1.368   0.929  14.078 -0.1591 -0.0508 -0.1441
26848W        W42465   6.528   4.891  12.107 -0.0341 -0.2446  0.0317
26849W        W42466   4.638   2.765   1.917 -0.3680  0.0673  0.0258
26850W        W42467   8.821  14.831  15.041 -0.1923 -0.0148 -0.0247
26851W        W42468   8.078  16.878  10.986  0.1826  0.0654 -0.1766
26852W        W42469  11.569   1.766  12.040  0.2330 -0.2082 -0.1064
26853W        W42470   3.758   0.039   4.940  0.0377  0.1336  0.1148
26854W        W42471  12.984   3.669   1.480 -0.0106 -0.0692 -0.1519
26855W        W42472  13.281   2.767  13.280 -0.1128 -0.2068  0.0192
26856W        W42473  15.996   4.841  13.460 -0.1170 -0.1396  0.2563
26857W        W42474  13.386  11.441  13.769  0.1274  0.0696 -0.1688
26858W        W42475  17.603  13.434   1.966  0.0435  0.5062  0.3549
26859W        W42476   5.491  16.750   3.422  0.3185  0.2049  0.2735
26860W        W42477  13.182  11.011  13.697 -0.3197  0.0433 -0.1080
26861W        W42478  11.929  16.027   0.768 -0.2421 -0.1146  0.3667
26862W        W42479   5.223  18.760  11.036  0.0903  0.1727  0.2428
26863W        W42480  18.687   9.967   3.269 -0.2029 -0.1772  0.0375
26864W        W42481  12.728   3.086  14.710 -0.0344  0.1097  0.2652
26865W        W42482   4.080   2.683  14.886  0.1193  0.0263  0.1717
26866W        W42483  12.428  16.788   4.017 -0.0605  0.3778 -0.1274
26867W        W42484   8.220   5.060  13.950  0.0818 -0.1089  0.2137
26868W        W42485  16.497   3.680   5.740  0.1491 -0.2512  0.1578
26869W        W42486   0.362  12.755  14.557  0.1284  0.2059  0.0533
26870W        W42487  13.432   3.703   3.584  0.4177  0.2418 -0.1652
26871W        W42488  17.160  16.718   0.082 -0.1499 -0.3228 -0.0106
26872W        W42489   5.462   4.922   3.244 -0.1853 -0.2028  0.1522
26873W        W42490  13.697  17.331  12.060 -0.1513 -0.0566 -0.1006
26874W        W42491  10.265  16.568  10.584  0.1018  0.1119 -0.2093
26875W        W42492  12.011  18.994   1.420  0.2266  0.0735  0.2109
26876W        W42493   3.755  12.370   1.071 -0.0069 -0.0440  0.1026
26877W        W42494   0.108  10.318   4.648  0.2304 -0.0721 -0.3919
26878W        W42495  15.153   1.200   1.169 -0.4584 -0.0791 -0.3915
26879W        W42496   6.721  18.390  10.514 -0.2669 -0.0403  0.2165
26880W        W42497   7.767   6.760   3.332 -0.1149  0.0080 -0.2804
26881W        W42498   9.920  11.718  11.313  0.0455 -0.0538 -0.1872
26882W        W42499   5.614   1.760   3.697  0.2400 -0.1872 -0.0336
26883W        W42500   1.118  15.925  13.249  0.1478 -0.4071  0.0938
26884W        W42501  18.974  16.150   3.990  0.0868  0.3039  0.2420
26885W        W42502  16.895  10.390  11.265 -0.0943  0.3476 -0.3793
26886W        W42503  11.552  17.540  13.820  0.1353  0.1499 -0.0301
26887W        W42504  10.135   7.392  11.078  0.1226  0.0826 -0.3329
26888W        W42505   3.497  18.511   1.349  0.0260 -0.2144 -0.5997
26889W        W42506   3.708  13.863   1.630 -0.2822  0.1316 -0.1348
26890W        W42507  13.238   6.528   3.767 -0.3124 -0.0135  0.2772
26891W        W42508  11.388   0.062  11.305 -0.1889 -0.1210  0.1346
26892W        W42509   2.797   8.395   0.162 -0.1258  0.0063  0.1995
26893W        W42510   6.150  15.010  14.140 -0.2349  0.1138 -0.3800
26894W        W42511  18.845   8.327  14.550 -0.2926 -0.1239  0.0378
26895W        W42512   1.555  13.500  13.547 -0.1343  0.1738 -0.1264
26896W        W42513  17.829   8.119   1.832  0.1732 -0.0489  0.2593
26897W        W42514   3.703   3.816  14.065 -0.0355 -0.1858 -0.0232
26898W        W42515   8.427  14.671  12.746  0.1228 -0.0946  0.1325
26899W        W42516  12.635   8.923  13.104 -0.2613 -0.0211  0.1554
26900W        W42517  11.114   9.524  14.667  0.0336 -0.0090  0.1275
26901W        W42518   8.503  16.827   1.315  0.0033  0.0387  0.2993
26902W        W42519  13.917  11.889   4.764 -0.1260  0.1230 -0.1425
26903W        W42520   9.492  14.272  13.372  0.0537 -0.0760  0.0446
26904W        W42521  11.307   3.123   0.032  0.1274  0.0653  0.1668
26905W        W42522  19.024  18.900   4.596  0.0318  0.2270  0.2730
26906W        W42523  15.949  15.853  13.974 -0.0212  0.4233  0.0887
26907W        W42524  19.052   0.892   4.130 -0.1914  0.4789 -0.0086
26908W        W42525   0.860   7.854  13.778  0.1438 -0.1710 -0.1281
26909W        W42526   9.214  12.168  14.173  0.2020  0.0009  0.0347
26910W        W42527  18.142  14.260   4.716 -0.1005 -0.0330  0.1278
26911W        W42528  14.427  17.955  11.923 -0.1275  0.1914 -0.1137
26912W        W42529   9.127  11.270   5.600 -0.0954 -0.1297  0.0381
26913W        W42530  11.555   1.949  14.601 -0.0838 -0.0921 -0.2336
26914W        W42531   7.906  11.618   0.652  0.1687  0.1078 -0.0722
26915W        W42532  13.715  15.250   3.768 -0.1363  0.2539 -0.2786
26916W        W42533   4.650  15.932   5.471 -0.0029 -0.3524 -0.1001
26917W        W42534   0.870   8.004  14.280 -0.0220  0.0251  0.1138
26918W        W42535   9.061   4.698  14.580 -0.0171  0.2773  0.1023
26919W        W42536  18.963  14.955   0.050 -0.0288 -0.0994  0.0180
26920W        W42537  15.528   8.038  12.125 -0.2673 -0.1204  0.0136
26921W        W42538  13.515  14.469   3.478  0.0056 -0.0920  0.2023
26922W        W42539  14.063  10.138   4.363  0.1985 -0.1486 -0.1762
26923W        W42540   6.260   4.691   2.951  0.0099  0.0855 -0.3805
26924W        W42541  17.916  16.194  14.142 -0.2252  0.2309 -0.0841
26925W        W42542   5.593  13.133  11.690 -0.2842  0.4110  0.0784
26926W        W42543   1.569  12.473  10.726  0.1759  0.1815  0.3484
26927W        W42544   1.459   7.485  14.490 -0.0466 -0.1314  0.3607
26928W        W42545  10.891  10.187   3.994 -0.3814 -0.1640 -0.1956
26929W        W42546   3.697  13.667   4.926 -0.2207 -0.0440 -0.0837
26930W        W42547  17.311  11.170  11.752  0.0107  0.2646 -0.0510
26931W        W42548  14.867   3.077  15.012  0.1133 -0.1259 -0.1324
26932W        W42549  16.493   6.271  14.066  0.1349 -0.2475  0.5329
26933W        W42550  13.779   4.272  14.949 -0.0912 -0.2753  0.1208
26934W        W42551  17.366   1.665  11.204 -0.0815 -0.0863 -0.3311
26935W        W42552   6.878   5.347   1.757 -0.1228  0.0638 -0.0654
26936W        W42553  15.701  17.488  13.499 -0.0827 -0.0645  0.1391
26937W        W42554   0.069   9.828   0.633  0.1056 -0.2046  0.2226
26938W        W42555  10.868  17.357   5.113  0.2776  0.3054  0.2350
26939W        W42556  12.921  10.084   2.001 -0.0652  0.1767  0.0140
26940W        W42557  15.490   2.651   3.343  0.3697 -0.1932 -0.0813
26941W        W42558   0.294  15.140   0.268 -0.0905 -0.2461  0.0578
26942W        W42559   2.289  12.965   2.374 -0.1421  0.0028  0.2909
26943W        W42560  11.313  15.691   2.041 -0.1212 -0.0343  0.2089
26944W        W42561   9.321   7.541   3.401 -0.1741 -0.0240 -0.3220
26945W        W42562   5.853  12.438   2.902 -0.4266  0.0063 -0.2010
26946W        W42563  11.349  12.758  14.500 -0.0252  0.1133  0.0091
26947W        W42564  11.989  13.599  14.551  0.0243 -0.1028  0.0572
26948W        W42565   7.834  15.741  13.374  0.1321  0.0569  0.1103
26949W        W42566   3.601  15.172   0.384  0.4540 -0.4751 -0.0042
26950W        W42567  15.303  10.714   1.687 -0.0880 -0.1443  0.1511
26951W        W42568  10.650  11.926   5.431 -0.2851  0.1747 -0.1703
26952W        W42569  10.306   8.636  14.983 -0.0805  0.0837  0.1485
26953W        W42570   1.763  16.875  13.139  0.2173  0.0499 -0.1839
26954W        W42571  12.275  16.691  12.487  0.1523  0.5150 -0.0451
26955W        W42572  16.108  18.214  10.820  0.2352 -0.0054 -0.0952
26956W        W42573   6.580   1.519   0.084  0.3077  0.0620 -0.2868
26957W        W42574   6.939  15.657   0.577 -0.3253  0.2420 -0.2908
26958W        W42575  10.398   0.043  11.777  0.1661 -0.1039  0.3387
26959W        W42576   4.659  12.207   1.567  0.0755  0.1070 -0.1137
26960W        W42577   6.563  12.716  11.313  0.0818  0.0905  0.4592
26961W        W42578   2.915   4.522   4.445  0.2516  0.0952 -0.0843
26962W        W42579  13.778   0.147  12.521  0.0031 -0.0146  0.3799
26963W        W42580   2.888   4.837   2.596  0.2384  0.3046  0.2021
26964W        W42581  11.674   6.429   3.342  0.1359 -0.0643  0.0279
26965W        W42582   4.934   9.197  14.604  0.4870  0.1870  0.0401
26966W        W42583  16.331   2.471  13.465 -0.2988  0.1615 -0.0258
26967W        W42584   1.769  10.771  12.662  0.0854 -0.1008 -0.2426
26968W        W42585  17.062   3.265   3.462 -0.5456  0.1325  0.0870
26969W        W42586  18.556   9.634  11.756 -0.1002  0.2145  0.1209
26970W        W42587   6.826   9.158   0.391 -0.0813  0.1309  0.0943
26971W        W42588  15.773  14.733   3.907  0.0546 -0.2392  0.2082
26972W        W42589   5.813   4.598   5.476  0.0489  0.0611 -0.2144
26973W        W42590  10.225   3.546  13.097  0.0045  0.0743  0.0184
26974W        W42591   6.172   4.264   2.717  0.0522  0.2807  0.1936
26975W        W42592   6.285   1.300   2.116 -0.2453 -0.2077  0.0035
26976W        W42593  15.039  14.286   5.431  0.0918  0.1689  0.0867
26977W        W42594  14.904   6.383  14.203 -0.5115  0.0691 -0.0823
26978W        W42595   0.195  11.713   0.119  0.1411 -0.1150 -0.1821
26979W        W42596   3.771   3.454  11.901  0.1791  0.0712  0.0455
26980W        W42597   2.702   9.131  12.588 -0.1137  0.4088  0.2141
26981W        W42598  16.588  17.943  11.648  0.0299 -0.2143 -0.1285
26982W        W42599   0.973  16.635   3.329 -0.0710  0.4300  0.2545
26983W        W42600  14.360  17.933  13.302  0.2190 -0.2216  0.1235
26984W        W42601  11.212   2.733  14.491 -0.1139  0.2115  0.0675
26985W        W42602  12.053  10.545   3.501 -0.2095  0.0538  0.3419
26986W        W42603   1.168   7.611   4.032  0.0097  0.0080 -0.3220
26987W        W42604  13.468   9.925  14.357 -0.0827  0.2767  0.2080
26988W        W42605   2.626   3.699   1.371 -0.0362  0.0308 -0.1441
26989W        W42606  12.069  10.224   1.075  0.2447  0.1506 -0.1945
26990W        W42607  12.728  11.463  14.606  0.0921 -0.0124 -0.4960
26991W        W42608   9.033   1.672   0.172 -0.1006  0.2435 -0.0311
26992W        W42609   9.842  12.708  14.676 -0.0939 -0.1344  0.1364
26993W        W42610  10.880   8.432   3.429  0.1880  0.1046  0.0356
26994W        W42611   2.224   5.801   3.646 -0.1954 -0.0618 -0.0665
26995W        W42612  12.748   4.241   0.291 -0.0291  0.4858 -0.1345
26996W        W42613   7.421  10.855   0.368  0.0072 -0.0289  0.1384
26997W        W42614  14.831   3.485   0.733 -0.1183 -0.0561  0.0924
26998W        W42615  14.794   8.277   2.331 -0.2664 -0.0305 -0.1666
26999W        W42616   5.198   8.608   2.895 -0.0341  0.2431 -0.2544
27000W        W42617   2.572   9.649  11.833  0.3540  0.1848  0.2566
27001W        W42618   6.014   1.205   3.662  0.0564 -0.0217  0.2782
27002W        W42619   9.533   2.960   2.327 -0.1076  0.1734  0.1182
27003W        W42620   8.280  13.727  10.863  0.0830 -0.0846 -0.3931
27004W        W42621  14.070  15.697   3.147  0.0663  0.0898  0.1667
27005W        W42622  10.494   4.098  11.145  0.1490  0.1634 -0.3097
27006W        W42623   4.872  15.854   0.713 -0.2644  0.0676 -0.1174
27007W        W42624   1.960  10.532  13.685 -0.3731 -0.3423 -0.1062
27008W        W42625   3.458   1.224   5.472  0.1002  0.0323  0.1628
27009W        W42626  15.795   0.109   5.561 -0.1975 -0.0453  0.3613
27010W        W42627  18.370  15.274  11.364  0.2522  0.0388  0.0380
27011W        W42628  17.866  14.559  11.044  0.0229  0.2517 -0.2323
27012W        W42629   8.177   4.125  12.651 -0.1820 -0.1632 -0.1160
27013W        W42630   6.952  12.443   4.786  0.1817  0.0998 -0.0643
27014W        W42631   8.183  18.717  11.311  0.2230  0.1927  0.0968
27015W        W42632   9.139  17.895  11.183  0.0531  0.0110 -0.0590
27016W        W42633   2.683   4.463   1.546  0.1562  0.1495 -0.3036
27017W        W42634  17.979   4.228  10.944 -0.3346 -0.0264  0.2703
27018W        W42635   6.099   8.639   5.045  0.0832 -0.1011 -0.0847
27019W        W42636   7.917  13.889   0.212  0.2605 -0.2532  0.0612
27020W        W42637   9.045  10.948   2.396  0.1401 -0.1824 -0.0644
27021W        W42638   1.908   8.258   0.757  0.1532 -0.5462  0.1428
27022W        W42639  13.464   2.084  10.481 -0.1168  0.0219  0.0930
27023W        W42640   2.912   5.732  11.369 -0.0636 -0.0182 -0.0089
27024W        W42641   6.113  15.167   0.330  0.1669  0.1527  0.2750
27025W        W42642  12.400  12.698  12.221  0.2157 -0.0557 -0.0023
27026W        W42643   4.573   0.578  10.854 -0.2831 -0.0154 -0.0499
27027W        W42644   5.024   0.304   1.972  0.3490  0.0310  0.2439
27028W        W42645  15.807   4.675   5.165 -0.3053  0.0961 -0.1769
27029W        W42646   7.962   4.439   1.615  0.0200 -0.1602  0.2238
27030W        W42647   3.480   6.272   4.509 -0.0048  0.2125  0.1282
27031W        W42648   5.558  14.588  15.121  0.2414 -0.0545 -0.3764
27032W        W42649   2.098   7.644  10.262 -0.1476  0.2500 -0.0432
27033W        W42650   2.759   9.614   2.258  0.0807  0.2912  0.0283
27034W        W42651  15.991   0.295   4.119  0.0018  0.0994 -0.2154
27035W        W42652  16.249   3.988  12.953 -0.0190  0.0116 -0.0354
27036W        W42653  10.306  17.269  11.493 -0.1153  0.1125  0.0365
27037W        W42654   5.456  13.860  12.522  0.3413  0.0499  0.0636
27038W        W42655   4.733   4.046  13.842 -0.3848 -0.2721  0.2341
27039W        W42656   6.266  12.271  12.454 -0.2509 -0.1857 -0.2136
27040W        W42657  12.876   7.302   4.295  0.0027 -0.2431 -0.0608
27041W        W42658   1.027   5.350  13.264 -0.1149 -0.2551  0.1041
27042W        W42659   5.910  10.480   2.792  0.0829 -0.0515  0.0756
27043W        W42660   8.631   0.777  13.111  0.2104  0.2332 -0.3054
27044W        W42661   4.322   1.438  11.112 -0.0931 -0.5040  0.0146
27045W        W42662  14.267  12.510   0.106  0.0060 -0.3095  0.3333
27046W        W42663  11.511  16.821  13.208  0.1646  0.1128  0.3015
27047W        W42664  13.920   4.843   3.512  0.0738  0.1117  0.0587
27048W        W42665   5.549  11.276  11.283  0.1937  0.1019  0.0600
27049W        W42666  18.365   2.659  10.706 -0.2690  0.2274 -0.1452
27050W        W42667   3.656   3.409   4.596 -0.2911  0.1084 -0.0501
27051W        W42668  16.575   5.492   1.857  0.2982  0.0028 -0.1669
27052W        W42669  16.372   7.049   0.426  0.2773 -0.0038 -0.2576
27053W        W42670   2.813   6.782  12.721 -0.0071  0.1155 -0.1828
27054W        W42671   1.213  17.905  12.441 -0.0804  0.0281  0.0159
27055W        W42672   4.351  11.415  14.009  0.1306  0.1337 -0.1161
27056W        W42673  15.090   0.979   4.365  0.0002  0.1843 -0.3533
27057W        W42674  12.460  11.052   0.809  0.0515 -0.1251 -0.0033
27058W        W42675  17.491   8.456   2.094  0.1289  0.2268 -0.2556
27059W        W42676   5.363  17.674  12.130 -0.1050 -0.2297  0.0762
27060W        W42677   0.379  15.544   3.180 -0.1117  0.0438 -0.0668
27061W        W42678   8.064   7.782  11.366 -0.0265  0.2747  0.1052
27062W        W42679  11.722  10.750  13.922  0.0487  0.0114  0.0080
27063W        W42680  13.441   8.107   2.903 -0.3608 -0.1241 -0.2462
27064W        W42681   7.835  11.236  11.748 -0.0259 -0.0683 -0.4169
27065W        W42682   8.441  11.871   3.249 -0.0174  0.2117  0.1484
27066W        W42683  13.851   2.914  14.047  0.1316  0.2778 -0.0540
27067W        W42684   1.676  15.843  11.569  0.1295 -0.0669  0.1426
27068W        W42685  14.841   5.807  13.889  0.0032  0.2553  0.1703
27069W        W42686  10.513   3.075  10.182  0.2662  0.1427 -0.0627
27070W        W42687   8.547   7.694   4.599  0.0676 -0.0290  0.2801
27071W        W42688   3.777   3.820  14.555 -0.0638 -0.0059 -0.1255
27072W        W42689   9.609  15.075  14.096 -0.1333 -0.0502  0.2219
27073W        W42690  18.916   6.956   1.207  0.2789 -0.0974 -0.0429
27074W        W42691  14.939  14.662  15.091  0.0520  0.1480 -0.2391
27075W        W42692  11.500   9.851  11.379 -0.0708  0.1713 -0.0013
27076W        W42693   5.271  13.033   0.792  0.2768 -0.1973  0.1147
27077W        W42694   3.288  10.557   3.558  0.0472  0.0306 -0.1137
27078W        W42695   5.345   1.811  12.609 -0.0713  0.0772  0.0073
27079W        W42696  16.633   2.310  13.115  0.0735  0.3508 -0.1836
27080W        W42697   6.691  16.903   2.493 -0.2566 -0.1993 -0.1933
27081W        W42698   0.037  18.486   2.392  0.3725 -0.2660 -0.0949
27082W        W42699   7.612  16.858  12.124 -0.0283 -0.1122 -0.1961
27083W        W42700   1.916  18.356   1.614 -0.2806 -0.0704 -0.0253
27084W        W42701   4.661   5.787   1.958 -0.1242 -0.2498 -0.4486
27085W        W42702  14.238  17.893   4.592  0.1191 -0.0551 -0.1779
27086W        W42703   5.293  14.828  13.151  0.0537 -0.0497  0.1066
27087W        W42704   6.848   8.681   0.572 -0.1251  0.1497 -0.0303
27088W        W42705  17.442   1.812   4.617  0.1100 -0.0391 -0.2403
27089W        W42706   0.638   1.490   0.844 -0.0319 -0.3096  0.0549
27090W        W42707  13.364  18.089   4.810 -0.2591  0.1549  0.1036
27091W        W42708   5.743  10.681   0.194 -0.1095  0.1569  0.0735
27092W        W42709  14.190   3.475   4.775 -0.1923 -0.1678  0.2332
27093W        W42710  18.026  18.487   1.673 -0.1219 -0.1653  0.1825
27094W        W42711  12.154   8.151   2.392 -0.2495 -0.1264 -0.1340
27095W        W42712  14.359   9.863   3.949  0.1586 -0.1449  0.0368
27096W        W42713  18.335   0.852   1.775  0.1563  0.1948  0.0484
27097W        W42714   6.645  18.100   3.691  0.0667  0.0964 -0.0198
27098W        W42715   1.850   9.583   3.320 -0.0509 -0.2256 -0.2757
27099W        W42716   3.265  16.971   4.730  0.0250  0.2104 -0.3134
27100W        W42717   1.748  17.840  13.743  0.0896  0.4682  0.3635
27101W        W42718   1.989  11.890   0.767 -0.5265  0.1738 -0.1114
27102W        W42719   9.194   6.082   2.830  0.0461  0.2108  0.3501
27103W        W42720  17.091   0.826   4.766  0.3058 -0.1451 -0.1433
27104W        W42721  16.206  13.732  10.351  0.0880  0.0708 -0.3960
27105W        W42722   3.683  14.231  10.714 -0.3452 -0.0364  0.2417
27106W        W42723   1.746   2.300  14.049 -0.1601 -0.0673 -0.0645
27107W        W42724  13.368   5.394   0.298 -0.0913  0.0459  0.0584
27108W        W42725  14.687  19.039   3.541 -0.1119 -0.0713 -0.0286
27109W        W42726  10.011   3.405   2.122  0.3150  0.2345  0.1328
27110W        W42727   0.716  13.362  13.774  0.0810  0.0665 -0.1602
27111W        W42728  18.579   7.473  11.394 -0.0797 -0.0912 -0.2564
27112W        W42729   8.696  10.488  12.935  0.0028  0.3835 -0.0999
27113W        W42730   4.019  15.611  11.279  0.3095 -0.0454  0.0414
27114W        W42731   0.259   2.054  14.048  0.3413 -0.1606  0.1183
27115W        W42732   1.802  13.868   1.483 -0.1483 -0.0181 -0.0039
27116W        W42733  10.308  17.093   3.792  0.2132 -0.0333  0.0167
27117W        W42734  18.311  18.140   1.855 -0.0956 -0.1550  0.0847
27118W        W42735   0.655  13.228   3.300  0.1038  0.1524 -0.0537
27119W        W42736   3.040   9.750  10.368 -0.0639  0.0086 -0.1494
27120W        W42737  15.257  13.718  11.625 -0.1663 -0.0960 -0.3487
27121W        W42738  18.580  14.451   4.471 -0.0024  0.1947 -0.0541
27122W        W42739  10.814   2.539   4.550 -0.0003  0.1714  0.3905
27123W        W42740  17.154   1.216   1.895 -0.0583  0.4981 -0.0932
27124W        W42741   6.729   6.227   3.463  0.0312 -0.0549  0.2713
27125W        W42742   7.794  12.559  13.657  0.4658 -0.1312  0.0942
27126W        W42743  11.374   9.997   3.788 -0.1363  0.0540 -0.1359
27127W        W42744   4.814   1.129   3.460 -0.1192 -0.0266  0.0727
27128W        W42745  12.378  14.772   4.026 -0.0647 -0.3519  0.0461
27129W        W42746   1.676  13.453  10.442  0.3024 -0.1252 -0.1548
27130W        W42747   8.694   9.923   1.006  0.0264 -0.3598  0.0642
27131W        W42748  19.038   1.358   4.304  0.1342 -0.1511  0.1874
27132W        W42749  12.157   9.176  11.170  0.0509  0.1184 -0.3137
27133W        W42750   3.862   2.631   4.808 -0.1053  0.3930 -0.0539
27134W        W42751  11.064  12.134   0.369  0.1963 -0.2213  0.3315
27135W        W42752   0.766  12.413  11.957 -0.0069  0.0391  0.1001
27136W        W42753   4.910  16.905   3.054 -0.3371 -0.2397 -0.0976
27137W        W42754  14.550  11.823  10.667  0.2877 -0.0478  0.0185
27138W        W42755  18.099   1.323   2.943  0.1399  0.2045  0.1632
27139W        W42756   2.472  13.785   0.634 -0.0425 -0.0074 -0.1123
27140W        W42757   4.825  13.848  10.401 -0.2731 -0.0025  0.1766
27141W        W42758   4.626  15.878  12.372  0.2922 -0.0108 -0.2588
27142W        W42759   5.662  10.005   4.563  0.2461 -0.3385 -0.3808
27143W        W42760  14.118   1.934   3.966 -0.0637  0.2501 -0.0202
27144W        W42761  18.449  16.181  14.041  0.0266 -0.0238  0.0417
27145W        W42762  18.655   4.019  10.728  0.1175 -0.1831 -0.1893
27146W        W42763   6.637   2.447   3.022  0.0277 -0.3868 -0.2327
27147W        W42764   8.231  15.637  11.929 -0.1643  0.0230  0.1814
27148W        W42765   3.268  17.490   2.420 -0.0809  0.0478 -0.3018
27149W        W42766   0.838  18.357   9.994 -0.3422 -0.0950  0.0841
27150W        W42767   0.477   3.039   0.982 -0.0481  0.1496  0.1548
27151W        W42768   8.942  10.359   2.209  0.1025  0.2781  0.3049
27152W        W42769   5.979  11.235  12.057 -0.0427 -0.0851 -0.0551
27153W        W42770   0.109   0.635   1.144 -0.3629  0.3382 -0.4687
27154W        W42771   4.142   1.227  14.010  0.2170  0.3415 -0.0534
27155W        W42772   1.090  17.249   1.553  0.0451  0.2438  0.1813
27156W        W42773  12.911  11.166   2.138 -0.4654  0.0714 -0.2651
27157W        W42774   8.008  13.611  12.997 -0.0170 -0.0755  0.0273
27158W        W42775   6.899  14.244  13.790  0.4229 -0.1605  0.0794
27159W        W42776   9.863  15.392   3.122 -0.1581 -0.2602  0.0624
27160W        W42777   4.757   6.299   3.610  0.1344  0.2263  0.1596
27161W        W42778   4.907  15.975  13.682  0.3747 -0.1312  0.0063
27162W        W42779  12.821   2.927   5.996 -0.0029 -0.3039 -0.0621
27163W        W42780   3.340   9.528  14.517  0.0273  0.1301  0.0678
27164W        W42781  14.527   3.673  13.763 -0.4158 -0.1037  0.1611
27165W        W42782   5.937   8.356  11.323 -0.1058  0.1377 -0.1872
27166W        W42783   2.694   4.357   4.004  0.0686  0.0548 -0.0730
27167W        W42784   3.722   0.513   1.603 -0.0169 -0.0780  0.1774
27168W        W42785   2.179  16.416   4.679 -0.2430  0.0601  0.1733
27169W        W42786  15.429  17.850   1.035 -0.0769 -0.3353 -0.0193
27170W        W42787   5.627  15.757  11.066 -0.0647  0.2249 -0.0340
27171W        W42788   7.195  18.340   1.442  0.1601 -0.2894  0.2832
27172W        W42789  10.241   1.762  13.584 -0.0493 -0.0877  0.2430
27173W        W42790   2.172  12.491  10.990  0.2973  0.2148  0.0494
27174W        W42791  16.400  10.922  12.964 -0.2809  0.4635  0.0461
27175W        W42792  18.340   7.326  13.259 -0.1573 -0.0389 -0.1803
27176W        W42793   9.405   9.771   5.453 -0.2988  0.1816 -0.2314
27177W        W42794   4.790  13.179  12.038  0.0863 -0.1617  0.1182
27178W        W42795  10.200   4.970   5.324  0.1875 -0.1513 -0.1170
27179W        W42796   5.774  10.040   3.561  0.3270 -0.0986 -0.0051
27180W        W42797   4.482  17.430  13.496 -0.0491  0.0923  0.0614
27181W        W42798   5.565   0.723  12.250  0.1728  0.2883 -0.0026
27182W        W42799   6.050  17.087  13.715 -0.0580  0.3241  0.1219
27183W        W42800   4.644   9.848   2.092 -0.0032  0.2332 -0.2809
27184W        W42801   6.766   1.120   6.070  0.1319 -0.1437  0.0125
27185W        W42802   1.353   4.145  14.088 -0.1008  0.1096  0.0655
27186W        W42803  14.750   0.857   1.156 -0.0981 -0.0548 -0.0888
27187W        W42804   2.069  14.159   4.357 -0.2663 -0.1545 -0.2015
27188W        W42805  11.418  10.966   2.351  0.1560  0.0601 -0.0922
27189W        W42806   9.272  16.266   1.889 -0.2106  0.1668 -0.2604
27190W        W42807  17.409   5.458   2.590  0.2021 -0.2149 -0.1061
27191W        W42808  15.290   9.192  14.856 -0.1500  0.0109  0.4458
27192W        W42809  15.297  13.610  11.113  0.0299 -0.1018  0.1209
27193W        W42810   8.354   8.730  13.152  0.0801  0.1050  0.0699
27194W        W42811  16.579  16.410   3.319 -0.0345  0.1932  0.1286
27195W        W42812   2.086  13.938   3.366 -0.1694 -0.1809  0.0329
27196W        W42813  12.362  16.872   1.579  0.1358 -0.0325 -0.2517
27197W        W42814  17.245   5.006  15.133 -0.1203 -0.1518 -0.0403
27198W        W42815   2.733  17.160   1.548 -0.1286  0.0818  0.1168
27199W        W42816   7.859  17.693  12.681  0.1119  0.2199  0.2129
27200W        W42817   8.479   5.569  14.708  0.2319  0.0575  0.0357
27201W        W42818  12.797   3.932   5.197 -0.0257 -0.2260 -0.6466
27202W        W42819   8.691  11.872   0.825  0.0722  0.3976  0.0553
27203W        W42820   5.383   3.335  12.960  0.0332  0.0756  0.0662
27204W        W42821   0.884  15.647  11.442 -0.3794  0.0044  0.1427
27205W        W42822   8.168   7.163   9.726 -0.0587  0.1279  0.2870
27206W        W42823  18.629   8.258  11.802  0.0987  0.1365  0.0053
27207W        W42824  18.697   4.795  11.952 -0.0861 -0.0765  0.3117
27208W        W42825   7.437   0.532   0.363  0.0649  0.2322  0.2806
27209W        W42826  14.209  17.256  14.335  0.0719  0.2716  0.1085
27210W        W42827   7.923   9.583  10.759 -0.3605  0.1181  0.0248
27211W        W42828   9.702  10.862  12.681  0.2239  0.1137  0.0376
27212W        W42829   3.211  11.432   4.263 -0.0345 -0.0229 -0.0445
27213W        W42830   3.484  10.979  12.947  0.3179  0.2449  0.1784
27214W        W42831  17.475  14.159  11.857  0.0845 -0.1145 -0.0418
27215W        W42832  17.879  15.573   2.347  0.0314 -0.2063 -0.1523
27216W        W42833  12.409  17.791   4.647  0.0122  0.0138  0.3965
27217W        W42834  18.178   6.873   0.469 -0.0359  0.2979  0.0381
27218W        W42835  17.108  17.999  12.408  0.0833  0.1033 -0.3085
27219W        W42836  13.805   9.718  11.667 -0.1997 -0.0437 -0.1908
27220W        W42837  10.539   8.728   3.980 -0.2088  0.0127  0.1025
27221W        W42838   5.553   6.720   2.072 -0.1245  0.0896  0.2073
27222W        W42839  10.675  13.097  14.181 -0.1128  0.0601 -0.0035
27223W        W42840   2.765  18.378   4.491 -0.0047 -0.2276 -0.0192
27224W        W42841   2.862  13.300  12.963  0.0285 -0.1111 -0.0917
27225W        W42842   0.516   8.330  15.241  0.2477  0.0335  0.1269
27226W        W42843   6.507  10.708  15.139  0.1372 -0.2512 -0.3069
27227W        W42844   8.683  15.521   1.809  0.0486 -0.2194 -0.0334
27228W        W42845  10.541   1.571  13.223  0.0338  0.2937 -0.0209
27229W        W42846  11.502   1.293   2.835  0.0471  0.1684  0.1772
27230W        W42847   3.450   4.707  14.768  0.3082  0.1139 -0.0701
27231W        W42848  12.665  15.374  12.784  0.0314 -0.1258  0.2315
27232W        W42849   5.047   6.052   0.738  0.4194 -0.1273  0.3337
27233W        W42850   9.200   1.999   3.189 -0.2358 -0.0750  0.1784
27234W        W42851  13.527  17.747  11.750 -0.0186 -0.1078  0.0177
27235W        W42852   3.744   9.264   0.564  0.1639 -0.1201 -0.2210
27236W        W42853   7.383  14.986  13.568  0.3054 -0.0078  0.0990
27237W        W42854  14.932   9.491  14.937 -0.0740  0.0718 -0.3974
27238W        W42855  15.170   7.243   0.233  0.3056  0.0304 -0.0574
27239W        W42856  10.144  15.004   3.365 -0.3490  0.0244 -0.1477
27240W        W42857  17.684   3.815   1.485 -0.0716  0.0355  0.0695
27241W        W42858   0.251   3.446  10.401  0.0687 -0.0083  0.5658
27242W        W42859   0.408   1.136  12.121  0.1737  0.1983 -0.0429
27243W        W42860   6.429  15.890  12.784 -0.1105 -0.1415  0.0781
27244W        W42861   8.539  16.966  13.419  0.1371  0.1099 -0.1422
27245W        W42862  17.658  11.704   2.464 -0.0185 -0.1464  0.0651
27246W        W42863   0.246  17.012   4.223  0.0054 -0.0328  0.2289
27247W        W42864  12.080  14.086  14.470 -0.0711 -0.1523 -0.0187
27248W        W42865   7.420  15.770   3.912  0.0991 -0.1818 -0.0411
27249W        W42866  12.911   2.299  12.303  0.1432  0.0115 -0.1706
27250W        W42867   6.697  12.542   3.175  0.0990 -0.1810  0.1309
27251W        W42868  18.520  18.934  11.015 -0.0430 -0.0010  0.1329
27252W        W42869  17.534   3.349   1.337 -0.2041  0.1221 -0.0107
27253W        W42870  10.945  12.186  12.078  0.1717  0.0489  0.2004
27254W        W42871   7.546   4.677  14.363  0.0195  0.1329  0.2414
27255W        W42872  18.857  18.114   9.971  0.1841 -0.0239  0.2241
27256W        W42873  13.724  14.649   9.804  0.2263 -0.1768  0.0653
27257W        W42874  16.310   6.576   1.570 -0.1716  0.0870 -0.1803
27258W        W42875   3.139   1.719   0.234  0.2397 -0.1251 -0.2650
27259W        W42876  18.135   8.391   5.017  0.1715  0.1452 -0.3124
27260W        W42877  12.100   4.984   3.175 -0.1631  0.0809 -0.1836
27261W        W42878  16.421  13.011  11.743  0.2608 -0.1886  0.1347
27262W        W42879  11.537  19.015   1.380 -0.2028  0.0860  0.1455
27263W        W42880   4.173  12.534  14.227 -0.2737 -0.2893 -0.3556
27264W        W42881  10.969   3.923   2.914 -0.3157  0.1458  0.0223
27265W        W42882   1.460  15.963   4.622  0.0738  0.2320 -0.0325
27266W        W42883  13.269  14.218   0.370 -0.0897 -0.3563  0.3251
27267W        W42884   2.785   2.789  12.345 -0.1161 -0.4563 -0.0968
27268W        W42885   7.321  18.187   5.248  0.0304 -0.0247 -0.4148
27269W        W42886  16.409  14.866  13.108  0.0197  0.4340 -0.0250
27270W        W42887  17.030  12.498  14.489  0.1247  0.1895 -0.0274
27271W        W42888  12.161   5.703   4.776 -0.0921 -0.0463  0.0705
27272W        W42889   7.369  15.467   1.449  0.0545 -0.2494  0.0726
27273W        W42890   5.869  16.628  10.758  0.2466  0.2243  0.0619
27274W        W42891  15.949  12.130   2.790 -0.1970  0.1225  0.2764
27275W        W42892  18.088  17.760  13.176 -0.2111 -0.2039  0.1236
27276W        W42893  16.850  15.562   5.557  0.1113 -0.0949 -0.0413
27277W        W42894   2.940  17.894   0.667  0.2867  0.0644  0.2572
27278W        W42895   0.303   0.958  13.864  0.2100  0.0456 -0.0079
27279W        W42896  11.926  13.238   4.395  0.1367  0.2300 -0.2716
27280W        W42897   9.797   2.127  13.475 -0.0354 -0.0920 -0.2934
27281W        W42898  10.535  13.302   2.807 -0.0664  0.2232 -0.1428
27282W        W42899   7.349  12.603  14.033 -0.0780  0.1894 -0.1783
27283W        W42900  18.495   7.640   0.827  0.3260  0.4096  0.1850
27284W        W42901  16.674  14.239   2.490 -0.1950 -0.2676 -0.2160
27285W        W42902  15.341  17.257  11.737  0.0495  0.0267 -0.1098
27286W        W42903   4.307   5.535   3.806 -0.1282 -0.1643  0.1643
27287W        W42904  15.719   7.061  11.187 -0.0831 -0.3955  0.1074
27288W        W42905  13.536  16.709  13.255  0.2187  0.0713 -0.1553
27289W        W42906   7.527  13.024  12.107 -0.0017 -0.0876  0.0431
27290W        W42907   8.722  10.364  15.048 -0.0687  0.0272 -0.0840
27291W        W42908  11.586  18.197  14.291 -0.1931  0.3649 -0.2023
27292W        W42909  11.767   4.927   2.805 -0.0482 -0.0191  0.1249
27293W        W42910   5.087   7.963  13.859 -0.1124  0.0114  0.3643
27294W        W42911   8.549   4.804   4.750 -0.2117  0.0184  0.0219
27295W        W42912   6.982   9.539   1.095 -0.0033 -0.3648 -0.0148
27296W        W42913  14.453  17.329  14.817 -0.0598  0.0111 -0.2708
27297W        W42914  18.671  12.898  12.445  0.2522  0.0459  0.1908
27298W        W42915  11.601  10.674   0.251 -0.2993  0.1964  0.0149
27299W        W42916  18.125  11.895   1.079  0.2802  0.0773 -0.0490
27300W        W42917   0.202  12.581  10.790 -0.2861  0.2154  0.1294
27301W        W42918   3.629   6.159  14.972  0.0770 -0.4988 -0.3539
27302W        W42919   2.875  13.926   3.844 -0.1864 -0.3903 -0.2438
27303W        W42920   9.102  10.526  11.468  0.1200  0.0100  0.2011
27304W        W42921   7.587  10.604   2.096 -0.1493  0.0394  0.0350
27305W        W42922   4.054  10.274   1.497  0.0512 -0.2209  0.2625
27306W        W42923  12.839  17.098   4.497  0.0955 -0.0321 -0.1259
27307W        W42924  11.777   4.888  11.042  0.1401 -0.1592  0.3875
27308W        W42925  13.768  12.624   0.317 -0.0313 -0.0397  0.1219
27309W        W42926   4.949  14.892  12.252 -0.3405  0.0556 -0.0294
27310W        W42927  16.087  10.920   2.153 -0.2225 -0.0282  0.0779
27311W        W42928   0.755  10.322   3.719  0.3409 -0.1935  0.0003
27312W        W42929  16.465   2.849  15.077 -0.1693  0.0769  0.0860
27313W        W42930  16.622  17.645   4.159  0.3203 -0.0055  0.0310
27314W        W42931  11.718  18.183   2.494 -0.1725 -0.2381  0.0827
27315W        W42932   2.372  14.944   2.721 -0.0470  0.2567 -0.2756
27316W        W42933   2.904  15.393   3.363 -0.0993  0.1587  0.1358
27317W        W42934   7.890   6.318   3.027  0.0994  0.1091 -0.0303
27318W        W42935  13.827  16.525   1.803 -0.1999 -0.1512 -0.2826
27319W        W42936  15.929   9.532  12.048 -0.0081 -0.1090  0.0076
27320W        W42937   2.349  12.591   1.956  0.0184  0.1812  0.0255
27321W        W42938   9.662  17.421  10.798 -0.1631  0.0231  0.3545
27322W        W42939   8.628   5.751  15.216 -0.2038  0.0604  0.2330
27323W        W42940  14.029  16.873  13.857  0.2541  0.0780  0.2010
27324W        W42941   1.362   2.352   2.436  0.1346  0.2189 -0.4355
27325W        W42942   5.866   0.409   4.000  0.3414  0.0316 -0.1656
27326W        W42943  10.228  14.941  10.981  0.0354  0.0071  0.4243
27327W        W42944  16.448   8.657  14.857 -0.1046 -0.0226 -0.0450
27328W        W42945   2.144   9.423  14.584 -0.0740  0.1784  0.2245
27329W        W42946  13.964  15.812  14.742 -0.0610  0.3255  0.2345
27330W        W42947   5.885   5.677  12.739 -0.5354 -0.0083 -0.1468
27331W        W42948   4.198   7.486  12.310  0.1372  0.0466  0.0920
27332W        W42949  16.483   9.508  14.272  0.2336  0.2373 -0.3826
27333W        W42950  15.404   6.708  11.848  0.0179  0.0394  0.0065
27334W        W42951   4.668  11.347   3.010  0.1453  0.0465 -0.2623
27335W        W42952  14.152  15.298   0.971 -0.1219 -0.0676  0.2674
27336W        W42953  17.255   1.594   0.489  0.1097 -0.0065 -0.0134
27337W        W42954  11.848   5.752  13.492 -0.0416 -0.1020 -0.0706
27338W        W42955  10.935   0.646  13.607 -0.2056 -0.2085  0.1498
27339W        W42956  18.574   7.560  14.970  0.2364  0.0984  0.1019
27340W        W42957  18.531  12.133   1.575 -0.0530 -0.0340  0.1706
27341W        W42958   4.939   3.951   0.251 -0.1167 -0.1559  0.1214
27342W        W42959   2.465   5.807   2.190  0.1194 -0.0260 -0.2898
27343W        W42960   3.483   5.811  10.637  0.0065  0.0961  0.1967
27344W        W42961  13.045   1.248  14.956 -0.3462  0.3646 -0.0585
27345W        W42962   1.900  12.324   5.068 -0.1784 -0.0199 -0.2332
27346W        W42963   2.362   0.422   3.439  0.1225 -0.3276 -0.0049
27347W        W42964  13.472   8.573   9.836 -0.2645  0.3089 -0.2390
27348W        W42965   4.964  12.555  13.429  0.0757  0.0670 -0.0010
27349W        W42966  16.255  14.924   5.276 -0.1089  0.0856 -0.0678
27350W        W42967  10.174  14.719   0.414  0.0271 -0.0724  0.0087
27351W        W42968   6.237   4.465   0.790  0.1608 -0.0545  0.3540
27352W        W42969   2.268  17.101  11.082  0.2004  0.1424  0.1435
27353W        W42970   6.784  15.986  15.171  0.1919 -0.0350  0.0412
27354W        W42971   0.560  15.332  10.158 -0.0884 -0.0819  0.2663
27355W        W42972   2.335   0.435  11.576  0.3031  0.0005  0.1531
27356W        W42973   7.121  14.510   0.947 -0.1859 -0.0840 -0.1263
27357W        W42974  16.126  11.103   4.306  0.0056  0.0808  0.1631
27358W        W42975   5.550  15.377   0.137  0.3871 -0.0262 -0.1811
27359W        W42976  18.723  17.118  10.367  0.0666  0.2751  0.0434
27360W        W42977  13.994   1.604  10.164 -0.1751  0.0371 -0.0805
27361W        W42978  10.247   3.021   1.807  0.3569 -0.1164  0.6166
27362W        W42979   4.712  18.932   2.301 -0.3641  0.2487  0.0897
27363W        W42980  11.993   0.464   0.705  0.1071  0.2259  0.1403
27364W        W42981   3.287  11.462  14.784 -0.1290 -0.0653  0.2209
27365W        W42982  17.755   1.483   3.909  0.2683 -0.2395  0.1687
27366W        W42983   7.537  14.967  11.684 -0.2734  0.0717  0.0986
27367W        W42984   5.528   8.245  11.572  0.2012 -0.4170  0.0659
27368W        W42985   7.151  12.552   2.453 -0.1237 -0.2637  0.0121
27369W        W42986  10.471  12.942  13.358  0.2626 -0.0376  0.0526
27370W        W42987  12.533  16.604   2.616  0.0699 -0.1612 -0.0952
27371W        W42988   5.413  12.478   4.485  0.2476  0.1894 -0.0314
27372W        W42989   1.120   9.990   3.482  0.0161 -0.1885  0.0771
27373W        W42990   9.590   0.762   1.189  0.3077 -0.0206  0.2387
27374W        W42991   4.306   8.217  11.573  0.0058 -0.0641 -0.2383
27375W        W42992  16.095   0.834   1.274  0.0211 -0.1052  0.0111
27376W        W42993  18.780  15.570  11.399 -0.1334 -0.0166  0.2279
27377W        W42994   4.814   8.043  11.495  0.3281  0.1637  0.2310
27378W        W42995  18.239   9.730   2.253  0.1155 -0.3416  0.0960
27379W        W42996   3.824   4.821   1.516 -0.0586 -0.0897 -0.2927
27380W        W42997   8.462   0.522  14.464  0.3165 -0.4339  0.0024
27381W        W42998   4.523   3.584   3.872 -0.0215 -0.1551  0.1098
27382W        W42999  14.992   7.187   4.753 -0.1876  0.1461  0.2272
27383W        W43000   8.974  11.262  11.387 -0.1436 -0.0092  0.0654
27384W        W43001   1.431   4.274   3.468  0.0993 -0.0515  0.0633
27385W        W43002  10.208  17.384  14.318  0.0198  0.0907 -0.2676
27386W        W43003  13.114  16.747  11.878 -0.2023 -0.1330 -0.1212
27387W        W43004   3.071  14.156  11.213  0.0576 -0.0162  0.0675
27388W        W43005   0.373  14.571   3.458 -0.2305 -0.2391  0.1714
27389W        W43006   4.637  17.704   4.247  0.0948  0.3014 -0.1777
27390W        W43007   5.617   0.272  11.319  0.0730 -0.0041 -0.0560
27391W        W43008   8.270  12.335   0.253 -0.1565  0.0112 -0.2234
27392W        W43009   1.560   9.668   2.848 -0.2821 -0.1443  0.3885
27393W        W43010  12.498  16.719  10.791  0.0607 -0.1160 -0.1541
27394W        W43011  16.301   3.812   3.523 -0.1371  0.0406 -0.1530
27395W        W43012  11.107  10.717  10.881  0.0234  0.3517 -0.3433
27396W        W43013  13.981   9.307  14.494  0.2418 -0.0389 -0.5358
27397W        W43014   7.554   8.083   3.239 -0.0558 -0.0232  0.1253
27398W        W43015   2.408  11.041   0.414 -0.2680  0.0814 -0.1803
27399W        W43016   3.098  15.412  12.665  0.3754  0.0393  0.2272
27400W        W43017   8.824   2.105  13.388  0.2764 -0.1401  0.1427
27401W        W43018  11.505  14.062   5.506  0.2465 -0.1565 -0.1442
27402W        W43019   6.850   2.386  14.911  0.0037  0.0983  0.1891
27403W        W43020   7.850  10.568   4.143 -0.2124  0.0115 -0.1910
27404W        W43021  17.676   6.708   4.026  0.1251 -0.3775  0.0615
27405W        W43022   6.624  10.377  11.506  0.2271  0.1121 -0.0587
27406W        W43023   5.175   1.613   3.783  0.0579  0.0414  0.2007
27407W        W43024  16.236  18.046   5.052  0.0961  0.3499 -0.1704
27408W        W43025  12.873   8.199   2.254  0.0169 -0.0189  0.2000
27409W        W43026   2.385   2.954  13.293 -0.0993 -0.2343 -0.2252
27410W        W43027   8.353   9.415   4.011  0.2622 -0.0527  0.0772
27411W        W43028  12.133  14.770  11.075 -0.3001 -0.1552 -0.0699
27412W        W43029   5.434   8.614   1.708  0.2156 -0.1252  0.0832
27413W        W43030  13.268   2.663   3.394  0.2429 -0.0164 -0.0455
27414W        W43031  14.764  17.655  12.119 -0.1148 -0.2825 -0.0146
27415W        W43032   4.993  15.285   1.585 -0.0069  0.0889 -0.0453
27416W        W43033  17.729   4.462   3.911  0.1951 -0.1851 -0.0955
27417W        W43034   9.287  12.425   4.267  0.1292  0.1411 -0.2018
27418W        W43035   4.917  15.345   3.492 -0.0470 -0.0664  0.3287
27419W        W43036   9.890   5.871   1.279 -0.0252  0.1951 -0.0580
27420W        W43037  19.036   5.996  10.231  0.1841 -0.0516  0.2698
27421W        W43038   7.705   1.673  11.206  0.3104  0.3146  0.2141
27422W        W43039   1.599  13.792   3.288  0.3269  0.2548  0.2366
27423W        W43040   9.299   0.817  14.311  0.0487 -0.1323  0.0617
27424W        W43041  11.758   5.909   1.769 -0.3960  0.0678 -0.1417
27425W        W43042  12.963   7.626  14.601 -0.2541 -0.0071  0.0463
27426W        W43043   5.511  18.560  12.415 -0.2017 -0.4650  0.0623
27427W        W43044   3.010   8.652   0.845 -0.0347 -0.3282 -0.0428
27428W        W43045  13.596  15.627   1.480  0.0830 -0.2098 -0.1229
27429W        W43046  18.865  14.752   1.159 -0.0104 -0.1532  0.3633
27430W        W43047   1.763   5.691  12.959 -0.0620  0.0726  0.2886
27431W        W43048  13.968   0.481   1.677  0.0771 -0.0361 -0.4201
27432W        W43049  16.416   9.809   3.798  0.2110  0.2408  0.2903
27433W        W43050  13.186   1.345  13.908  0.0125  0.1447 -0.2224
27434W        W43051   0.237   3.600  14.981 -0.4091  0.0454 -0.1567
27435W        W43052   5.308   3.467   0.221  0.0669 -0.0367 -0.1791
27436W        W43053   4.426  12.573  14.697 -0.0842 -0.0820 -0.1779
27437W        W43054   2.243   6.510  14.700  0.3265  0.0836 -0.0895
27438W        W43055  17.905   0.552   4.359  0.1862 -0.0926  0.0043
27439W        W43056   6.485   4.869   2.588  0.0990 -0.2423  0.0802
27440W        W43057  11.524   9.197   0.481 -0.4507 -0.1697 -0.4047
27441W        W43058   5.158   2.491  10.311 -0.1161 -0.2734 -0.3792
27442W        W43059   8.934  17.700   3.541 -0.1549 -0.0587  0.0881
27443W        W43060  12.566  18.941  14.216  0.2199  0.2062 -0.1654
27444W        W43061   8.746   6.046  14.769 -0.0460 -0.0047  0.0034
27445W        W43062   4.725   7.113   2.660 -0.0742  0.0861  0.0687
27446W        W43063  18.162   5.036   0.277 -0.2055  0.0596 -0.2286
27447W        W43064  17.173   8.118  12.534 -0.0159 -0.1185 -0.1026
27448W        W43065  12.903  10.950  10.805 -0.2287  0.0890 -0.0671
27449W        W43066  15.288  15.000  12.646 -0.0826 -0.1049 -0.0868
27450W        W43067   6.062  11.425   2.852  0.1574  0.3444  0.0231
27451W        W43068   7.826  14.634  12.909 -0.0093  0.1135  0.0727
27452W        W43069  10.470  11.272  15.214  0.0605  0.1739  0.2091
27453W        W43070   9.914  18.814  13.008 -0.0150 -0.3063  0.2103
27454W        W43071   9.200   9.895   2.247 -0.1634 -0.2080  0.0934
27455W        W43072  17.360  17.241  12.978  0.1327  0.2017 -0.0703
27456W        W43073  16.010  12.441   4.302  0.1298 -0.1167  0.2856
27457W        W43074  18.560   5.848  13.013 -0.0406 -0.1270  0.0902
27458W        W43075  15.462   8.067   0.037  0.0159 -0.2736  0.1229
27459W        W43076   1.663  18.824   1.792 -0.2420  0.0024 -0.2890
27460W        W43077   7.786   7.029   2.390  0.1139  0.2444 -0.1601
27461W        W43078  11.578   8.385   3.906 -0.3101  0.0986  0.0138
27462W        W43079   4.249   0.104  10.364  0.2031 -0.1293  0.1414
27463W        W43080   5.562   4.799  11.560 -0.0144 -0.0383  0.1203
27464W        W43081   8.056  12.001   4.352 -0.1548  0.0694 -0.0290
27465W        W43082  14.324   9.573  12.477  0.0755  0.0868 -0.2728
27466W        W43083  10.654   9.401   2.078 -0.0399  0.0965 -0.3375
27467W        W43084  18.212   4.276   1.245  0.1427  0.0808  0.0360
27468W        W43085  15.400   5.512  14.199  0.2579  0.3384 -0.3382
27469W        W43086   4.665  17.990   2.265  0.1847  0.2719  0.0949
27470W        W43087   9.077   7.855   2.393  0.0911 -0.3135 -0.3882
27471W        W43088   3.353  18.418  15.289 -0.1644  0.2192 -0.1540
27472W        W43089   0.266  16.097   1.307 -0.0360 -0.2545  0.0686
27473W        W43090   1.740   5.119  11.318 -0.1092 -0.1803 -0.2523
27474W        W43091  16.780   2.723   1.733 -0.1564 -0.0066  0.2486
27475W        W43092  17.355  14.752   4.027  0.1566 -0.4051 -0.2153
27476W        W43093   6.152  13.730  14.226  0.0412 -0.4370  0.2898
27477W        W43094   9.950  16.339   3.206 -0.1046  0.0519  0.1377
27478W        W43095   0.367  12.763   4.291  0.1423 -0.2211 -0.0429
27479W        W43096   1.861  16.538   1.974 -0.4542  0.2604  0.0908
27480W        W43097  18.116  11.281  12.467  0.3057 -0.1224 -0.2008
27481W        W43098   6.295  18.815   1.845  0.0372  0.0958 -0.0577
27482W        W43099  17.805   1.962  11.155  0.0009 -0.1009  0.5594
27483W        W43100  14.385  13.498   4.518  0.2572  0.0639  0.1619
27484W        W43101   4.710  15.086   3.086 -0.2439  0.0219 -0.0980
27485W        W43102   7.229  12.961   1.325 -0.2114 -0.0020  0.0179
27486W        W43103   5.898   3.468   5.074  0.3951  0.0014 -0.2398
27487W        W43104   2.315  10.727  12.144  0.0609  0.1244 -0.1272
27488W        W43105   7.530   4.165  10.345 -0.1535  0.0077 -0.1809
27489W        W43106   2.227   4.939   5.024  0.0914  0.1304  0.1015
27490W        W43107  18.636  15.825   0.649  0.0089  0.0851  0.1414
27491W        W43108   5.311  14.021   0.107  0.1970  0.2103 -0.1260
27492W        W43109   9.953   2.307   4.255 -0.1005  0.0164  0.1307
27493W        W43110   3.766  11.926  13.164  0.2617  0.1435  0.0790
27494W        W43111   7.399   4.935  10.326 -0.0583  0.0882  0.1275
27495W        W43112   4.857   3.144   4.732  0.0556  0.1003  0.3916
27496W        W43113  18.280   2.990   3.180 -0.5173 -0.1303 -0.1542
27497W        W43114   2.141   9.325  11.893 -0.0503  0.3541 -0.1728
27498W        W43115  10.888   4.979  10.621  0.2061 -0.1073  0.0176
27499W        W43116  18.224  18.425  12.522 -0.3048 -0.0470  0.0005
27500W        W43117   5.663  11.803   2.830 -0.3353  0.1006 -0.0264
27501W        W43118  18.449   1.703   1.172  0.0498 -0.0447 -0.2051
27502W        W43119  11.039   9.899   0.808 -0.4998 -0.0922 -0.0810
27503W        W43120   8.207   1.567  12.788  0.1211  0.2330 -0.2826
27504W        W43121   7.211   0.208   2.781  0.5474  0.1199  0.0943
27505W        W43122   3.759  18.081   1.471  0.1887  0.0120 -0.0022
27506W        W43123   1.175  16.837   1.876 -0.2907 -0.0527 -0.1380
27507W        W43124   5.829   2.739  15.184  0.1162 -0.1078  0.0372
27508W        W43125  10.404  12.906  14.750 -0.1292  0.2572  0.2688
27509W        W43126  11.380  16.220  13.340  0.3210  0.0541 -0.1443
27510W        W43127   5.330  12.552   0.926  0.0629  0.1919  0.1482
27511W        W43128  14.027  15.476  12.077 -0.1214 -0.1432  0.1696
27512W        W43129   6.490  13.472   1.716 -0.2092  0.1248 -0.3718
27513W        W43130   4.638   7.045   0.880  0.0655 -0.2270 -0.2511
27514W        W43131  18.592   9.103   2.384 -0.2495 -0.4317 -0.1014
27515W        W43132   4.947   4.422   0.417 -0.1369 -0.1609 -0.1291
27516W        W43133   6.839   0.081   0.784 -0.0411 -0.2885 -0.0306
27517W        W43134  13.319   3.828   4.062  0.1061  0.3384 -0.3081
27518W        W43135   9.253  14.463  14.217  0.4672 -0.1733  0.3067
27519W        W43136  14.600  17.021  13.354 -0.0792 -0.1145  0.0227
27520W        W43137  17.824   8.565  11.172 -0.0507  0.1232  0.2445
27521W        W43138   3.803   2.402   3.452  0.1742  0.3009  0.0907
27522W        W43139   5.689  10.971  14.295 -0.2565 -0.3133  0.0556
27523W        W43140   2.226  18.533   3.839  0.0057 -0.3147  0.2703
27524W        W43141  13.211  13.497  14.435 -0.0064  0.0380 -0.1449
27525W        W43142   9.696   7.117  10.998  0.3716 -0.0777  0.0437
27526W        W43143  12.909   0.175   4.267  0.1730  0.3506  0.3153
27527W        W43144  17.125  15.691   1.559 -0.0545  0.3518 -0.0685
27528W        W43145  13.699  15.226  10.641 -0.3823 -0.0671  0.1226
27529W        W43146  15.486   8.505  10.901 -0.0938 -0.3437  0.1278
27530W        W43147  15.047   4.169  14.263  0.0961 -0.1704 -0.0025
27531W        W43148   3.629  18.084   4.485 -0.0676  0.2350  0.3065
27532W        W43149  17.235  13.676   1.738  0.1008  0.0231 -0.2966
27533W        W43150  15.252   8.805  11.230 -0.2196  0.0413 -0.1104
27534W        W43151   6.350  18.395   4.759 -0.1752 -0.3526 -0.2413
27535W        W43152   2.561   2.810   5.030 -0.0820 -0.5562  0.0353
27536W        W43153   6.872   8.808  14.611 -0.1310 -0.2042  0.0982
27537W        W43154  18.825  10.108   0.143  0.2247  0.0357  0.2292
27538W        W43155  10.174   0.788  11.554  0.0554 -0.0059  0.1284
27539W        W43156   8.487   2.960   3.985  0.0859 -0.0861  0.1880
27540W        W43157   2.599  12.624   0.801  0.1561  0.0441  0.0254
27541W        W43158   2.010  13.454   2.069 -0.3406  0.2217 -0.1806
27542W        W43159  13.833   1.001   5.449 -0.1922 -0.0863 -0.1429
27543W        W43160   8.130   3.942   3.063 -0.1423  0.2795 -0.1842
27544W        W43161   2.125   0.733   4.404  0.0596  0.0830  0.2361
27545W        W43162   4.483   3.662   2.676 -0.0118  0.2273  0.1938
27546W        W43163   6.385   7.815  13.050 -0.0001 -0.1197  0.0612
27547W        W43164   9.793   9.485   2.732 -0.3351  0.2155 -0.4759
27548W        W43165   6.506  11.435   3.671 -0.2276  0.0360 -0.3567
27549W        W43166   0.964  14.669   0.196  0.3231  0.1935  0.3067
27550W        W43167   3.700   8.622   2.601 -0.2137  0.2267  0.3686
27551W        W43168  10.205   1.403   1.864  0.1327  0.0264  0.1510
27552W        W43169  13.302  17.238  11.233 -0.1508 -0.1028 -0.2172
27553W        W43170   2.790   3.281   4.278  0.0899  0.1794 -0.0110
27554W        W43171  14.032   9.216  13.452  0.0712 -0.1335  0.2245
27555W        W43172  10.679   6.697   3.187 -0.1992 -0.0892  0.2675
27556W        W43173   9.163   4.920  15.190  0.1671  0.0450  0.0820
27557W        W43174  13.307   4.442  11.580 -0.1504  0.1458 -0.0437
27558W        W43175  10.218  12.341  14.755 -0.0768 -0.0105  0.2167
27559W        W43176   2.388  18.715   2.723  0.1367 -0.0420  0.1055
27560W        W43177   9.938   4.610   0.758 -0.1962 -0.0788  0.2408
27561W        W43178  13.340   2.131   3.318 -0.0132 -0.1854 -0.1841
27562W        W43179  10.754  17.706   0.359 -0.0373  0.0939  0.0562
27563W        W43180  17.144  13.788  11.740 -0.3177  0.2631  0.1705
27564W        W43181  12.942   9.990  10.788  0.0504  0.1792 -0.1287
27565W        W43182  18.951   3.980   2.204  0.1856  0.0179 -0.0045
27566W        W43183  14.989   4.726  13.533 -0.0696 -0.1081 -0.1128
27567W        W43184  11.914  18.392  12.794  0.1768 -0.0572 -0.1299
27568W        W43185  10.558   8.320  10.776 -0.0635  0.0077  0.0978
27569W        W43186  10.992   2.357  10.766  0.5864 -0.2679  0.0435
27570W        W43187  18.191   9.626   4.772 -0.0821  0.2883  0.0477
27571W        W43188  16.314   7.743   3.762  0.1326  0.0342 -0.2862
27572W        W43189  13.173  16.834   0.958  0.0198  0.0117  0.1365
27573W        W43190   8.456   6.657  13.677  0.0322  0.2900 -0.1135
27574W        W43191  11.732   2.631  12.880 -0.0918  0.1266 -0.3167
27575W        W43192   4.290   4.622  14.400  0.0076 -0.0535 -0.2626
27576W        W43193  12.279  17.442  13.384 -0.1151 -0.0672 -0.0884
27577W        W43194   7.033  16.876  14.888 -0.1161  0.0661 -0.2627
27578W        W43195   9.087  12.100   0.854  0.0484 -0.0477 -0.0616
27579W        W43196  12.722  14.215  11.865  0.3124  0.0063  0.0021
27580W        W43197   8.887  14.453  11.634  0.2259 -0.2505 -0.0699
27581W        W43198   9.700  12.918  13.726  0.1675 -0.2304 -0.2738
27582W        W43199  13.511   9.466  11.244 -0.0647 -0.0085 -0.1471
27583W        W43200  15.182   7.839   1.223  0.0047  0.1835 -0.0911
27584W        W43201   1.430  11.252   4.145  0.0442 -0.0962 -0.1436
27585W        W43202  17.504   8.547  14.467 -0.3025  0.3996  0.0917
27586W        W43203  14.053   1.390   1.412  0.0266 -0.3735  0.0188
27587W        W43204   3.863  14.473  14.081 -0.4468 -0.2453 -0.1308
27588W        W43205   0.550   2.272   1.236  0.0811  0.1604 -0.1221
27589W        W43206  12.823  12.872  12.063  0.2770 -0.3284  0.0321
27590W        W43207  11.664   7.795  13.155  0.1531 -0.2163 -0.3775
27591W        W43208  15.580   5.846  12.711  0.2020 -0.2230 -0.2157
27592W        W43209  13.339   0.465  12.985  0.0202  0.1720  0.0781
27593W        W43210  10.478  18.304   0.110  0.1236 -0.1543 -0.0568
27594W        W43211   4.971  13.375  15.181  0.0806  0.1891  0.1902
27595W        W43212   6.651  18.009  10.785 -0.3224 -0.0340 -0.0011
27596W        W43213   6.523  16.035   2.289 -0.2810 -0.0872 -0.0637
27597W        W43214   6.805  14.611   3.492 -0.1431  0.3487 -0.1342
27598W        W43215  15.328   5.782  10.963  0.2783 -0.1300  0.3419
27599W        W43216  12.351  18.626   0.004  0.0177  0.1102  0.2872
27600W        W43217   5.931   4.303   5.867  0.2096  0.1789  0.0570
27601W        W43218   1.825   0.679  12.629  0.1493  0.1064  0.1898
27602W        W43219  17.902   8.271   2.988  0.0733  0.3443  0.1304
27603W        W43220   1.664   1.197   1.696  0.0235 -0.1684  0.0576
27604W        W43221   8.313  14.115  14.221  0.0967  0.0707  0.3989
27605W        W43222   4.388   5.683  11.757  0.2295  0.1583 -0.0582
27606W        W43223   1.497  13.709   0.942  0.1644 -0.2016  0.1785
27607W        W43224  15.715  16.900   5.042 -0.0547  0.0106 -0.2143
27608W        W43225  16.508   6.030   0.844  0.1677  0.2319  0.1472
27609W        W43226  16.039   9.030  14.085 -0.1269  0.0042 -0.1364
27610W        W43227   4.794   4.713  12.097  0.3039  0.2249  0.1675
27611W        W43228  12.333  12.923   0.579 -0.0821  0.1485 -0.0658
27612W        W43229  10.310  16.039  11.298 -0.2005  0.1271  0.0929
27613W        W43230  12.084  10.704   2.705 -0.0326  0.1225 -0.0547
27614W        W43231   8.882  15.607   3.147 -0.0274 -0.1628  0.2941
27615W        W43232   1.794   3.719  12.681  0.0013  0.1711 -0.3070
27616W        W43233  10.867  16.868   3.083 -0.0826  0.2314 -0.1682
27617W        W43234   7.585   3.282   0.453 -0.0048 -0.2133  0.0527
27618W        W43235  13.580  13.820   0.158  0.0621 -0.1794 -0.0362
27619W        W43236  16.305   1.771   5.610  0.0790 -0.1725  0.1030
27620W        W43237  17.794   8.528  12.329 -0.1512 -0.1914 -0.1691
27621W        W43238   3.235  11.361   3.687  0.1578  0.1672  0.0256
27622W        W43239   2.101  19.001  13.299 -0.2792 -0.1553  0.0796
27623W        W43240  18.301  17.389  12.851  0.2240  0.0258 -0.3222
27624W        W43241  12.490   1.407   6.034  0.1254 -0.0530 -0.0448
27625W        W43242  16.823   1.957   1.575  0.0126 -0.3932  0.1113
27626W        W43243  16.876   8.379  12.851 -0.0330  0.6343 -0.0794
27627W        W43244   4.112  14.548   0.591  0.0330 -0.0392  0.0620
27628W        W43245  10.355   2.915  13.751  0.0079 -0.0429  0.0198
27629W        W43246   5.831  13.140  12.152 -0.0965 -0.0631 -0.3981
27630W        W43247   7.603  15.657   1.920  0.3895  0.1584 -0.2660
27631W        W43248   0.711  13.913  11.209 -0.1160  0.1591 -0.0528
27632W        W43249  14.981  13.148  13.240 -0.2104 -0.1234 -0.2553
27633W        W43250  13.239   5.297  11.044 -0.3512  0.2640 -0.1142
27634W        W43251  14.966   5.033   9.312 -0.0181 -0.3608  0.0140
27635W        W43252   2.339   8.545  15.239 -0.0585  0.0342  0.1388
27636W        W43253  18.785   6.657  12.534  0.0307  0.2352 -0.3040
27637W        W43254   0.298   3.061  14.171  0.1709  0.2276  0.2914
27638W        W43255   7.529   8.368  10.846 -0.1994  0.1178 -0.2598
27639W        W43256   7.043   2.630  12.858  0.0509  0.0578 -0.4856
27640W        W43257   3.704   0.653  15.279  0.1368 -0.1455 -0.1251
27641W        W43258   2.254   8.298  10.930  0.2781 -0.1196  0.2884
27642W        W43259   5.194  10.597  11.121  0.1276 -0.0258 -0.0949
27643W        W43260   6.433   1.575  14.454 -0.2751  0.1656  0.2709
27644W        W43261  17.384   9.187   0.465 -0.3397  0.0721 -0.1176
27645W        W43262   3.132   5.645   5.586  0.0285  0.3307 -0.1249
27646W        W43263  14.641  18.120   3.662 -0.0347 -0.0331 -0.1495
27647W        W43264  14.068   5.702  13.393 -0.3887  0.1691 -0.1587
27648W        W43265   9.896   3.285   2.580  0.2590  0.1048  0.3910
27649W        W43266   6.824   2.457   3.740 -0.3504  0.0770  0.0084
27650W        W43267   8.478   2.949   2.495 -0.1850  0.4585 -0.0976
27651W        W43268   1.909   3.714   4.780 -0.0821 -0.1421 -0.1784
27652W        W43269  11.062   4.084   0.908 -0.0500 -0.1761 -0.2911
27653W        W43270  18.936  12.277  11.875 -0.2272  0.0797 -0.5665
27654W        W43271   7.589   6.539   4.380 -0.2771  0.1737 -0.0192
27655W        W43272   1.947   5.803   2.365 -0.2146  0.0497  0.2048
27656W        W43273   9.301   5.402   3.777 -0.1023 -0.0804  0.2277
27657W        W43274  18.020  11.717   4.729  0.2041  0.0170 -0.4457
27658W        W43275   5.941  18.298   3.342  0.1585  0.1087 -0.0215
27659W        W43276  17.787  12.347  15.179  0.1587  0.1716  0.2866
27660W        W43277  13.480  18.805  13.467 -0.2472  0.3880 -0.3095
27661W        W43278  17.138  17.410   5.023 -0.2166  0.0544 -0.0720
27662W        W43279   4.577   4.499  13.414  0.0655  0.2469 -0.1461
27663W        W43280   2.725  18.320   2.736  0.0016 -0.4482  0.3210
27664W        W43281   8.372   6.382  14.772  0.0305  0.0542  0.0832
27665W        W43282   8.207   9.544  14.853 -0.2918  0.1374 -0.0758
27666W        W43283  18.164  16.883  13.509  0.2310  0.0483 -0.0010
27667W        W43284   7.923  11.101   5.094  0.1846  0.0577  0.0907
27668W        W43285  12.623  11.832   0.172 -0.2410  0.2663  0.0778
27669W        W43286   5.812  12.279  11.031 -0.1082 -0.1379 -0.0568
27670W        W43287   7.229   0.368   3.756 -0.0421 -0.1393 -0.2159
27671W        W43288   2.073   2.939  11.007  0.0898  0.2456  0.3192
27672W        W43289  17.974   9.292  13.511 -0.2151  0.2353  0.2623
27673W        W43290  17.653  19.028  14.566  0.0659 -0.1455 -0.1112
27674W        W43291   6.180   1.215  12.799 -0.1964  0.1745  0.1008
27675W        W43292  12.065  14.753   9.746  0.0186  0.2994  0.0578
27676W        W43293  10.986  15.681   4.868 -0.0820 -0.1282  0.0279
27677W        W43294  11.659  11.850   0.470 -0.0164  0.3576  0.3450
27678W        W43295   8.412   3.659  14.060 -0.1726  0.1793  0.1991
27679W        W43296   2.874   1.305   2.401  0.2420 -0.1680 -0.1495
27680W        W43297   9.562   6.558   5.657  0.5417  0.0647 -0.2043
27681W        W43298  17.487   7.243   4.684  0.1092 -0.0017  0.0004
27682W        W43299  14.306   8.349  13.764  0.0756 -0.0482 -0.1873
27683W        W43300  10.140   7.613   4.720 -0.3021  0.2076 -0.3092
27684W        W43301  16.389   0.388  13.134  0.1955  0.0101  0.0420
27685W        W43302   8.084   6.333   3.476 -0.3004 -0.2875 -0.0104
27686W        W43303  10.769   3.115   1.907 -0.1918  0.1773 -0.2184
27687W        W43304  12.966  15.671   2.497  0.0771 -0.3456  0.1564
27688W        W43305  15.059  13.942   1.557  0.0091 -0.2830  0.0964
27689W        W43306  11.423  18.257  12.135 -0.0020  0.0155  0.0901
27690W        W43307  17.086  18.900  11.375 -0.1161 -0.0482 -0.0056
27691W        W43308  12.464  12.949  14.361  0.3292  0.1491  0.0009
27692W        W43309   6.977   8.659   1.515  0.1883 -0.1655 -0.2962
27693W        W43310   2.312  12.841  14.079  0.2079  0.1001 -0.1479
27694W        W43311  18.551  14.093  12.771  0.1182  0.2566 -0.0598
27695W        W43312   9.005  11.043  13.618 -0.0309  0.2966 -0.1624
27696W        W43313  17.300   2.133   5.378 -0.3214 -0.1979 -0.1722
27697W        W43314   3.959   8.185   0.677  0.0399 -0.2704 -0.3742
27698W        W43315  14.571   9.104   9.373 -0.0070 -0.0576 -0.0560
27699W        W43316   8.332  14.246   5.360 -0.1283 -0.1346  0.5130
27700W        W43317   7.091  12.406   0.059 -0.3523 -0.2481  0.0113
27701W        W43318  15.719  14.085   5.853 -0.0975  0.1694  0.0489
27702W        W43319   9.315  16.052  11.500  0.0462  0.0322  0.0446
27703W        W43320   5.598   3.865   4.298 -0.1871 -0.0537  0.3709
27704W        W43321  17.543  10.469  13.282 -0.1093 -0.1365 -0.1397
27705W        W43322   3.153  16.191  14.875 -0.0339  0.1087 -0.3566
27706W        W43323  14.015   1.970  11.346 -0.0411  0.1880 -0.0550
27707W        W43324   2.464   5.028   2.044 -0.0632 -0.3390  0.0746
27708W        W43325  10.129   0.659   3.293 -0.3814 -0.2333  0.0996
27709W        W43326  11.364   8.490   3.493 -0.0294  0.1547 -0.3116
27710W        W43327   7.189   4.099  12.230 -0.1048 -0.0013  0.0594
27711W        W43328   3.808   4.615   6.149  0.2708  0.0026 -0.0404
27712W        W43329   8.844  17.606   1.697  0.1958 -0.1918  0.5037
27713W        W43330  16.121  13.361  14.243  0.2139  0.1446  0.0955
27714W        W43331   5.767   4.325   1.488 -0.0882 -0.0931 -0.0034
27715W        W43332  17.563  10.861  14.877  0.3591 -0.1373 -0.1304
27716W        W43333  17.068  13.476  11.248 -0.0354 -0.0065 -0.1056
27717W        W43334   6.158   0.068   9.658  0.1693 -0.0472  0.0506
27718W        W43335   0.407   2.354  14.881 -0.3923 -0.1446 -0.1214
27719W        W43336  11.007   0.518  11.178 -0.2351  0.1348  0.4140
27720W        W43337  15.049   6.250   1.534  0.3147  0.0821 -0.2247
27721W        W43338  13.612   0.353  13.422 -0.1080 -0.3114 -0.1282
27722W        W43339   5.535   0.639  13.159  0.5177 -0.0076  0.2007
27723W        W43340   5.102  14.484   2.331  0.1714 -0.0026 -0.0633
27724W        W43341   5.080   0.048   5.104  0.0766  0.0114 -0.1219
27725W        W43342   6.020  11.610  13.787  0.0775 -0.0067  0.0113
27726W        W43343  13.855  14.376  12.471 -0.0599 -0.6191 -0.1523
27727W        W43344   1.962  13.165  11.337 -0.3782  0.1383 -0.2838
27728W        W43345   2.190  19.067   1.118 -0.1189 -0.1030  0.0825
27729W        W43346   8.245   0.628   3.916 -0.1544  0.2289 -0.0095
27730W        W43347  16.440  10.856  13.754  0.1604 -0.1600 -0.2011
27731W        W43348  10.585   6.099   0.023 -0.0349  0.2782  0.0496
27732W        W43349  15.934  11.944   2.068 -0.0319  0.1210 -0.2525
27733W        W43350   8.731  16.785   4.034 -0.1700 -0.1071  0.2786
27734W        W43351   4.975  14.110  14.389  0.0819  0.1450  0.0554
27735W        W43352  15.943  10.967  10.197 -0.0932 -0.3246 -0.1044
27736W        W43353   7.959   6.078   2.192  0.0747  0.2724  0.0000
27737W        W43354  11.753   0.923   0.685 -0.0763 -0.1408  0.1360
27738W        W43355  10.907   9.830  10.689  0.3175  0.1604  0.1286
27739W        W43356  18.742   9.742   4.874 -0.0486 -0.2772  0.1164
27740W        W43357  10.208  17.838   4.422 -0.1849 -0.4143 -0.2989
27741W        W43358  17.620   3.753  11.972  0.1906 -0.1366 -0.1677
27742W        W43359  10.118   5.839  10.041  0.1249  0.2485 -0.1513
27743W        W43360   9.201  17.447   2.664  0.1891 -0.1021 -0.1779
27744W        W43361  11.786  13.374   1.797 -0.2130 -0.0636  0.0220
27745W        W43362  10.306   9.808   3.245  0.0470  0.4097  0.2134
27746W        W43363  10.530  11.762  14.301  0.1975 -0.0717  0.0774
27747W        W43364   6.356   5.970   5.091  0.0926 -0.1778 -0.3630
27748W        W43365   7.431   6.746  12.657 -0.0708  0.0523  0.0606
27749W        W43366   4.084   9.533   0.318 -0.1776 -0.0303 -0.2926
27750W        W43367   4.770   1.720   3.491 -0.2549 -0.3051  0.3892
27751W        W43368   6.243   4.471   5.239 -0.3060  0.0594 -0.0102
27752W        W43369  10.008  10.212   4.266 -0.1256  0.4750 -0.2865
27753W        W43370   3.513  17.643   0.685  0.0750  0.3077  0.4541
27754W        W43371   1.931  16.355  14.662 -0.0389  0.1545  0.1402
27755W        W43372   9.102   7.682   3.850 -0.0633 -0.0874 -0.0516
27756W        W43373   0.533   6.192  11.525  0.0476 -0.2707 -0.0837
27757W        W43374  17.144  11.832   1.461 -0.0884 -0.2821 -0.2434
27758W        W43375   5.084  14.502  14.747 -0.1691  0.0670  0.1995
27759W        W43376  14.299  14.178   0.467  0.1657 -0.2514  0.0987
27760W        W43377   4.573  12.006   0.553  0.2935  0.0772  0.1382
27761W        W43378   6.308   2.442  11.784  0.1082  0.1241  0.1663
27762W        W43379   1.483   8.494   0.906 -0.0772  0.0205  0.1452
27763W        W43380  13.174  11.999   2.565  0.0511  0.1870 -0.3894
27764W        W43381  14.383  16.207  13.207  0.0250 -0.4163 -0.2101
27765W        W43382  14.844  18.959   1.337 -0.0550  0.0865 -0.1373
27766W        W43383   2.888  14.402  12.540  0.0876 -0.1169 -0.1862
27767W        W43384  16.893   6.731  12.175  0.0091 -0.1041 -0.1441
27768W        W43385   8.063  10.683  14.136  0.1506  0.1039  0.2003
27769W        W43386   4.849  13.832   3.632  0.3497 -0.2041  0.0145
27770W        W43387  17.622  17.376   4.913  0.3070  0.0888  0.0068
27771W        W43388  10.475   3.290  14.162  0.1723  0.0614 -0.5375
27772W        W43389  10.406   1.456   4.921  0.1341 -0.0238  0.1927
27773W        W43390  18.415   4.054  11.780  0.0195  0.0535 -0.1041
27774W        W43391  11.658   6.382   4.240 -0.0500 -0.1515 -0.2125
27775W        W43392   4.943   7.107  11.493  0.1296 -0.1094  0.0163
27776W        W43393  14.897   5.519  12.894  0.0098  0.0340  0.1861
27777W        W43394   0.953   6.105  13.968 -0.3359  0.2272 -0.4953
27778W        W43395   7.488   2.358  13.014  0.0856  0.2437 -0.0703
27779W        W43396   0.223   4.861   0.971  0.1242  0.0504 -0.0724
27780W        W43397   3.949   1.559   3.806 -0.1765  0.1283 -0.0609
27781W        W43398   9.448   7.069  11.854 -0.0935  0.0061 -0.0910
27782W        W43399  11.158   3.196   4.111  0.1535 -0.0767  0.2419
27783W        W43400  16.684   9.512  11.009 -0.0940  0.1268  0.1438
27784W        W43401  11.474  11.423  12.925  0.1878  0.0775  0.0528
27785W        W43402   6.937  10.602  10.739  0.2621 -0.1987  0.0343
27786W        W43403  12.651   0.269   1.448 -0.2086  0.1102  0.1679
27787W        W43404  18.826  12.305  13.137  0.0955  0.1739 -0.1682
27788W        W43405  10.169   5.104   4.734  0.0106 -0.0554 -0.0538
27789W        W43406   3.705   1.477   2.568 -0.3027  0.0046 -0.1881
27790W        W43407  16.833  16.685  11.425 -0.1520  0.1859  0.1785
27791W        W43408  17.524   6.144  14.434 -0.0568  0.0180  0.0243
27792W        W43409  12.467  10.681   2.002 -0.0621 -0.1213 -0.2193
27793W        W43410  14.945  17.183  12.403  0.1607 -0.0650  0.2626
27794W        W43411   0.343   6.790  14.122  0.1605 -0.2448  0.0256
27795W        W43412  13.781   0.694  12.968 -0.1989 -0.3196 -0.1366
27796W        W43413   6.668  13.268   3.696 -0.0173  0.0618 -0.1391
27797W        W43414  11.040   2.188   5.285 -0.5624  0.3886 -0.0058
27798W        W43415   1.782   3.379  10.300  0.0028  0.1877  0.2381
27799W        W43416  18.117   3.239   5.291  0.0594  0.1379  0.2754
27800W        W43417  19.067   6.274   2.862 -0.0165 -0.5186  0.2645
27801W        W43418   5.772   7.025   1.253  0.1107 -0.1164  0.0390
27802W        W43419  16.692  16.800   2.516  0.0138 -0.3036 -0.0598
27803W        W43420  17.173  10.712  11.483  0.0108  0.0211  0.2700
27804W        W43421  18.160   0.561  10.877 -0.0765  0.1112  0.3322
27805W        W43422  13.630  18.769  14.375  0.2687 -0.0694 -0.0315
27806W        W43423  10.369  13.490   1.721  0.1055  0.0588 -0.1092
27807W        W43424  11.402  13.215  11.966 -0.2641  0.0607  0.2818
27808W        W43425  13.523  12.111  14.741  0.1447 -0.0473  0.1838
27809W        W43426  10.800   5.008  13.850  0.3053  0.1220 -0.1695
27810W        W43427   7.098   8.403   2.816 -0.1496 -0.0033  0.0221
27811W        W43428  16.962   3.685   0.534  0.4332 -0.2260  0.0469
27812W        W43429  11.422  11.791   1.620  0.1530  0.1859 -0.0840
27813W        W43430   7.439  11.055  12.870 -0.0757  0.1039 -0.4509
27814W        W43431   4.218   3.199  11.063 -0.0686 -0.1517 -0.1007
27815W        W43432   7.696   1.970  10.715  0.1158 -0.2016  0.1392
27816W        W43433   2.226   9.025   3.926 -0.1252 -0.5457 -0.2516
27817W        W43434  15.306  16.741  11.561  0.0382  0.2674 -0.0810
27818W        W43435  13.700   2.919  10.184  0.0219 -0.2386  0.2721
27819W        W43436   2.651   9.769   1.737 -0.2304  0.0089  0.2020
27820W        W43437   4.458   7.787   1.999  0.1116  0.2502  0.0980
27821W        W43438   2.897   2.283  14.310  0.1849  0.0879 -0.1157
27822W        W43439  10.033   5.647   4.715  0.0382 -0.0319 -0.1552
27823W        W43440   3.830   6.522  14.243 -0.0568  0.0308 -0.1298
27824W        W43441  12.983   9.508  14.052 -0.0180 -0.2519 -0.0472
27825W        W43442   3.740   3.093   5.588  0.2944  0.0564  0.0410
27826W        W43443  10.353  15.839   4.704 -0.3201  0.1122  0.1211
27827W        W43444   0.632  17.589   4.619 -0.2200 -0.0627 -0.0969
27828W        W43445  11.284  17.884   1.866  0.1927 -0.0040  0.0662
27829W        W43446  10.340   0.692  13.445  0.0212  0.1732 -0.0778
27830W        W43447   8.471   9.781   4.355  0.0822  0.2657  0.3955
27831W        W43448  12.798   1.649  11.078 -0.0934 -0.0481 -0.0823
27832W        W43449   0.734  17.230   4.231 -0.1029  0.0390  0.1205
27833W        W43450   3.924   6.865  11.737  0.2828 -0.2534 -0.2514
27834W        W43451  13.496   4.388   4.245 -0.0067 -0.3237 -0.0687
27835W        W43452   2.795   5.608  13.835  0.1100 -0.0665  0.0308
27836W        W43453  15.262   7.187  12.617  0.3198  0.2313  0.0413
27837W        W43454   7.971  11.423  14.542 -0.1710  0.3581  0.0625
27838W        W43455   1.824   8.023   1.742  0.1785  0.3935  0.1263
27839W        W43456  11.964  10.482  14.559  0.0852  0.1180  0.4112
27840W        W43457  17.291   1.626   3.700  0.1162  0.0116 -0.1747
27841W        W43458  15.961   0.012   0.989 -0.1615 -0.0627  0.1183
27842W        W43459   3.953  18.142   4.123 -0.0479  0.0390 -0.1166
27843W        W43460  16.642  17.931   1.055 -0.3779 -0.0145  0.1886
27844W        W43461  17.009  10.210  14.682  0.1804 -0.2348  0.3079
27845W        W43462   4.080   0.655   3.775 -0.2427 -0.4297 -0.1598
27846W        W43463  13.762   8.169   1.071  0.0535  0.3146 -0.2364
27847W        W43464   9.366   5.204  14.785  0.0858  0.0889  0.1209
27848W        W43465   1.548  13.510   3.876 -0.0590  0.2370 -0.0629
27849W        W43466  14.836  12.563   1.086  0.3852 -0.0716  0.2538
27850W        W43467  13.034  17.892   3.865 -0.2570 -0.0986 -0.3750
27851W        W43468   3.976   4.654   3.797  0.2377 -0.2593 -0.2931
27852W        W43469   2.613   7.782   3.333  0.2225  0.3640 -0.2427
27853W        W43470  13.719  17.379   0.915 -0.2533  0.2121 -0.0978
27854W        W43471   5.258  18.935   4.648 -0.0325 -0.0195  0.2986
27855W        W43472  15.536   0.513  10.869 -0.1238 -0.1284  0.1667
27856W        W43473  16.265   0.347   2.676 -0.1346  0.0272  0.2934
27857W        W43474  12.300   6.132   2.433  0.0197 -0.1710 -0.0414
27858W        W43475   6.303   8.748   1.401 -0.0918  0.2100  0.0287
27859W        W43476   0.232  13.817  12.454 -0.0022 -0.0814  0.2193
27860W        W43477  10.577   5.918  13.544 -0.4196  0.1977  0.0417
27861W        W43478   1.088  13.075  12.455 -0.1376  0.0427  0.2765
27862W        W43479   7.327  17.703   9.789 -0.2802 -0.1204  0.2561
27863W        W43480   8.602   9.301  11.409  0.3287 -0.0687 -0.3839
27864W        W43481   5.527  13.454   4.314  0.2646 -0.1010 -0.0442
27865W        W43482   7.547  17.095   4.660  0.0302 -0.2273 -0.1259
27866W        W43483  16.677  13.772   9.594  0.1579  0.1057  0.0216
27867W        W43484   2.599   5.645   1.060  0.0404  0.0566 -0.2046
27868W        W43485  11.130  10.012   1.312  0.0834 -0.0041  0.0051
27869W        W43486   4.734  12.273  12.496 -0.1599  0.0303 -0.0154
27870W        W43487  14.164   3.902   5.082  0.1526 -0.3219  0.0578
27871W        W43488   7.499  19.018  13.347 -0.1319  0.1956 -0.0012
27872W        W43489  12.716   2.039   5.127  0.0454  0.3570  0.3349
27873W        W43490   3.021  17.574   1.506  0.0554  0.0696 -0.0305
27874W        W43491  15.861   2.964  11.647 -0.0179  0.2057 -0.1484
27875W        W43492   5.244   9.333   5.534 -0.1822 -0.1912  0.0697
27876W        W43493   8.459   7.842  15.101 -0.1238  0.0780 -0.0206
27877W        W43494  14.916  15.920   5.248 -0.2406 -0.0675 -0.5041
27878W        W43495   1.466   4.304   1.559 -0.1835  0.0761  0.0419
27879W        W43496  16.948   8.429   0.283 -0.1320  0.0464 -0.3571
27880W        W43497   4.367  10.697  13.334 -0.1765  0.0711  0.2321
27881W        W43498  15.168  10.409   3.812  0.4962  0.0554 -0.1986
27882W        W43499  14.458  17.465   4.657  0.1278  0.1039  0.0639
27883W        W43500  16.103   0.578  13.935 -0.3785 -0.0213 -0.2083
27884W        W43501  16.363  18.247   2.492 -0.4881 -0.1418  0.0221
27885W        W43502   1.182  14.044  12.856  0.2293  0.0674  0.2434
27886W        W43503  16.198   3.883  13.886 -0.0629 -0.1186  0.0346
27887W        W43504   2.667  17.546   3.256 -0.0820 -0.4014  0.0467
27888W        W43505   8.229   8.686   1.085 -0.0388 -0.1015  0.0681
27889W        W43506   2.632  16.485  14.677  0.0708 -0.1034  0.0080
27890W        W43507   1.021   0.680  12.719 -0.1840 -0.0312  0.1385
27891W        W43508   8.625  14.158  12.770 -0.2836 -0.0769 -0.1428
27892W        W43509   4.856   8.888   1.302  0.2578  0.2272  0.0267
27893W        W43510  12.904  14.886  11.159  0.0621  0.1421  0.1029
27894W        W43511   0.340   3.811   1.968  0.0275  0.1125  0.0097
27895W        W43512  18.063   4.629  14.050  0.1289  0.1738 -0.1350
27896W        W43513  14.480  15.105  14.451 -0.1295 -0.1292 -0.2607
27897W        W43514   1.221   2.277  14.973 -0.2428 -0.4500  0.2374
27898W        W43515  12.738  11.965   1.081  0.1418 -0.0091 -0.0475
27899W        W43516  10.853  13.562   1.594  0.1400 -0.7412  0.5067
27900W        W43517  12.079  14.445   0.936 -0.0418  0.0667  0.0910
27901W        W43518   8.314   6.002  13.101  0.1718 -0.0055  0.0007
27902W        W43519  18.686   6.191  12.660  0.1554  0.0207 -0.2615
27903W        W43520  10.039   0.963   1.934  0.0880  0.0589  0.1401
27904W        W43521   8.242  18.133   0.961 -0.4052  0.1539  0.2800
27905W        W43522  17.068  12.797  15.281 -0.1043 -0.4779 -0.1343
27906W        W43523  16.923  17.884   3.451  0.1696 -0.0023  0.3002
27907W        W43524   5.612   1.520  11.715 -0.0709 -0.3701 -0.3929
27908W        W43525  15.943   4.759   0.093 -0.2567  0.0661  0.0491
27909W        W43526  10.109  18.258  14.598 -0.0593 -0.1685  0.2625
27910W        W43527   4.993  14.854  10.529  0.1940  0.0532  0.1267
27911W        W43528   7.433  11.009  13.407  0.0093 -0.0933 -0.2934
27912W        W43529  16.120  10.694   3.980  0.2124  0.4574  0.2206
27913W        W43530   8.414   1.697  11.441  0.2654  0.0745 -0.0354
27914W        W43531   9.103   0.980  11.927 -0.0685 -0.0426  0.2849
27915W        W43532   8.315   2.706  15.066 -0.0129  0.2411  0.0862
27916W        W43533   7.322   8.744   1.147  0.0164 -0.0879  0.1694
27917W        W43534  18.435  15.815  14.333  0.2588  0.0019  0.0542
27918W        W43535  12.459   9.804   3.653  0.1442 -0.2188 -0.3540
27919W        W43536  14.394  15.783   2.692 -0.0298  0.1571 -0.1821
27920W        W43537  13.108   1.700  11.613 -0.1572  0.1931 -0.0077
27921W        W43538   0.656  10.988  11.719 -0.0174  0.3053 -0.1313
27922W        W43539  16.116   7.350  12.561  0.1525 -0.0342  0.1571
27923W        W43540   8.171   8.126   4.802 -0.1827 -0.2319 -0.1000
27924W        W43541   7.360  10.865   1.054  0.2509 -0.1212 -0.2996
27925W        W43542   0.160  16.512   4.230 -0.1895  0.0501 -0.1137
27926W        W43543   1.292  12.016  10.719  0.0295  0.2130  0.0637
27927W        W43544   2.523  10.749  11.618  0.1144 -0.0766  0.1881
27928W        W43545  15.945  14.809   3.484  0.4590  0.2158 -0.0522
27929W        W43546  13.610   6.387  14.426 -0.0878 -0.5062 -0.1298
27930W        W43547  11.801   1.539  14.410 -0.0317  0.1111  0.0781
27931W        W43548  15.404  11.845  14.851  0.0140  0.0682 -0.4392
27932W        W43549  10.664  10.815   1.642 -0.1723  0.1121 -0.0069
27933W        W43550  10.630   0.820  11.166  0.0112  0.0134 -0.0774
27934W        W43551   2.997   1.449   1.901  0.0032  0.0634  0.0642
27935W        W43552  10.391  16.608   2.513 -0.0075  0.2188 -0.1941
27936W        W43553   7.215  12.102   5.094 -0.1748  0.3095 -0.0050
27937W        W43554   7.953  13.256   1.030 -0.1791 -0.1905  0.1594
27938W        W43555  11.178   4.414   3.120 -0.0023 -0.0884 -0.3634
27939W        W43556  13.200   8.433  13.275 -0.3360 -0.1972  0.2165
27940W        W43557   0.496  17.542  11.801  0.0485  0.0308  0.4250
27941W        W43558   0.128  13.315  12.876 -0.0319 -0.3496 -0.0681
27942W        W43559   9.698   3.670  13.366  0.2143  0.1693  0.0773
27943W        W43560   9.668   8.334  12.407 -0.3073 -0.0069  0.0216
27944W        W43561   9.175  12.002   2.156  0.1431 -0.1058  0.1357
27945W        W43562  11.519   0.115  10.770 -0.0605 -0.1901 -0.1116
27946W        W43563   2.021   3.200  12.029  0.1829  0.1171  0.1585
27947W        W43564   5.835   3.279   3.022  0.3082 -0.3469  0.0053
27948W        W43565  12.615  12.127   5.072  0.2758 -0.1720  0.2763
27949W        W43566  16.278   5.056   4.055  0.1976 -0.0321  0.1215
27950W        W43567  14.416   5.911  12.960  0.2445 -0.2792  0.0605
27951W        W43568   6.514  12.353   0.155  0.2837 -0.3125  0.2724
27952W        W43569  16.957  11.434   1.731 -0.0773  0.1173  0.2211
27953W        W43570   5.707   3.908  11.278 -0.0896  0.0206  0.3245
27954W        W43571  11.525  10.018   4.256 -0.1151  0.1856 -0.3536
27955W        W43572  14.278   7.628  10.816  0.3345 -0.1314 -0.0455
27956W        W43573   8.571  15.967  12.637  0.0153  0.1010  0.2083
27957W        W43574  11.676  14.277   3.019  0.3093 -0.1118 -0.1953
27958W        W43575   0.342  10.753   0.425 -0.0535 -0.1409 -0.0385
27959W        W43576   5.579  18.020   4.367 -0.1565 -0.0823  0.0929
27960W        W43577   1.561  13.084   5.035 -0.0654 -0.0663  0.1531
27961W        W43578  13.620   5.964   0.481 -0.2533  0.3922  0.1769
27962W        W43579  14.888  18.680  13.496 -0.1916 -0.0922  0.1030
27963W        W43580  17.950   8.313   2.319 -0.2784  0.0321  0.3004
27964W        W43581  14.987  12.584  14.810  0.3302 -0.3444  0.1961
27965W        W43582  15.749   5.063  14.396  0.2476 -0.1592 -0.2455
27966W        W43583  10.757  12.410   4.552  0.1026  0.0927  0.2728
27967W        W43584   3.069  11.882  14.497 -0.0720  0.1216 -0.0371
27968W        W43585   1.789   5.758   3.321  0.0933  0.4163  0.1895
27969W        W43586  15.317  16.595   9.979  0.0543 -0.4151 -0.0773
27970W        W43587  18.097   8.164  12.706 -0.0294 -0.3532  0.0878
27971W        W43588   7.866   3.115   3.126 -0.3162  0.4235  0.0256
27972W        W43589  17.145  17.181   3.642 -0.0605  0.3500  0.4402
27973W        W43590   7.963   0.474   3.120  0.0285 -0.0990  0.1256
27974W        W43591   8.431   0.396   4.355  0.0470 -0.1049 -0.0707
27975W        W43592  10.937   5.527  13.398  0.1521 -0.0426  0.1884
27976W        W43593  14.669   9.706  10.143  0.0605  0.0626 -0.5142
27977W        W43594   8.836  11.627  12.377  0.0149 -0.0171 -0.1624
27978W        W43595   6.320  10.809  11.769  0.1363  0.3649  0.2108
27979W        W43596   7.491  18.125  14.034  0.0847  0.1094  0.0483
27980W        W43597   7.394  16.884  13.219  0.3490  0.1354 -0.1231
27981W        W43598  13.758   6.808   3.532 -0.0583  0.0367  0.2385
27982W        W43599   9.532  17.247   3.015 -0.1872  0.1049  0.0803
27983W        W43600   9.038  12.026  11.177 -0.2468  0.2227  0.0065
27984W        W43601  17.262   0.457   2.953  0.0234 -0.2915  0.1548
27985W        W43602   3.588   4.356   1.572 -0.1629  0.0467 -0.1396
27986W        W43603  11.435  18.062   4.730  0.0532 -0.0007 -0.3234
27987W        W43604   5.692   4.676  13.661 -0.1253 -0.2342  0.1996
27988W        W43605   3.885  14.291   1.892 -0.0027 -0.1895  0.1525
27989W        W43606  11.390  16.090  11.170 -0.0728  0.0785  0.1407
27990W        W43607   8.220   6.671  11.382  0.0375  0.1540 -0.0215
27991W        W43608  14.524  15.393   3.737 -0.0328 -0.1022  0.0929
27992W        W43609   4.510  11.857   3.861  0.2243  0.1574  0.2425
27993W        W43610   3.281   0.643   1.711 -0.0165  0.0568  0.0750
27994W        W43611  11.224   5.685  11.262 -0.0022 -0.3445 -0.0309
27995W        W43612  14.728   6.068   4.701  0.0887 -0.0841 -0.2427
27996W        W43613  14.494  18.796   2.316 -0.0587 -0.1687  0.1213
27997W        W43614  10.690   1.724  11.639  0.0464  0.1428 -0.2240
27998W        W43615  15.586  14.107  14.901 -0.0663 -0.0335 -0.0294
27999W        W43616  16.582   2.008  15.076  0.4969  0.0078  0.1397
28000W        W43617   7.543   2.587   1.995  0.2536  0.5776 -0.1543
28001W        W43618   0.348   8.947   4.754  0.2025  0.0848 -0.0464
28002W        W43619  15.130   5.246   4.779  0.1654 -0.1334 -0.1342
28003W        W43620  18.546  14.411   2.212  0.1785 -0.1223 -0.0635
28004W        W43621   7.124   3.063   1.707  0.1058 -0.2159 -0.0770
28005W        W43622   4.624  15.377   0.559 -0.3777 -0.2268  0.0349
28006W        W43623   1.955   4.021  12.314  0.1575  0.1542  0.1362
28007W        W43624  16.467  16.147   0.947 -0.1793 -0.1854  0.3004
28008W        W43625   0.947   3.509   5.335 -0.0684  0.3614  0.0035
28009W        W43626   8.608   7.459   5.089  0.0864  0.1394  0.0095
28010W        W43627   1.543  11.923  12.042 -0.1974  0.2083 -0.1583
28011W        W43628  12.248  18.111  11.124  0.1719  0.0669 -0.3291
28012W        W43629   6.126   5.049  13.899 -0.0331  0.1810 -0.0725
28013W        W43630  15.789   0.606  13.502  0.0079 -0.1052  0.1083
28014W        W43631  13.914  15.108   2.270  0.0054  0.0830  0.1322
28015W        W43632   4.564  18.257  10.959 -0.0841 -0.1671  0.0553
28016W        W43633   3.866  13.963   3.702  0.2505  0.1403  0.1723
28017W        W43634  10.404   2.443   3.921  0.3934 -0.0362  0.1881
28018W        W43635   5.791  13.117  10.786 -0.1101 -0.2090 -0.0242
28019W        W43636   6.459  17.609  12.543  0.2929  0.1510  0.0006
28020W        W43637  14.140  14.264   3.872  0.2375 -0.1744  0.0416
28021W        W43638  14.990   5.994   2.466  0.3228  0.2807 -0.1582
28022W        W43639   2.799   0.688   2.536  0.0679  0.3547 -0.2686
28023W        W43640   3.645   3.817  12.820  0.3006  0.1081 -0.0296
28024W        W43641   8.083   1.362   3.138 -0.2570 -0.1229  0.1773
28025W        W43642  10.315   8.381   4.931  0.2212  0.1101 -0.2921
28026W        W43643   8.398  17.236  14.459  0.0349  0.1222 -0.2029
28027W        W43644  10.073  11.864   2.747  0.1228 -0.2102 -0.1764
28028W        W43645  12.243  18.188   0.934 -0.2554  0.2886 -0.0792
28029W        W43646   2.544  13.452  12.577 -0.1848  0.1601  0.0742
28030W        W43647  10.796  12.811   3.692 -0.2304 -0.2135  0.2597
28031W        W43648  11.371   2.008  10.770 -0.2395  0.3753  0.2680
28032W        W43649  18.965  14.964  12.824 -0.3731 -0.3840 -0.1721
28033W        W43650   9.643   9.955  14.568 -0.0202  0.2544 -0.2046
28034W        W43651   4.392  13.273   0.934  0.0573  0.3258  0.3336
28035W        W43652   7.837   4.334  14.240 -0.3016 -0.1677  0.1730
28036W        W43653  15.374   2.672   2.140  0.0800  0.0287  0.1560
28037W        W43654  11.099  18.703  14.786 -0.2148  0.2873  0.3983
28038W        W43655   6.772   2.238  11.895  0.0098  0.1176  0.1881
28039W        W43656  12.498  13.709  11.148 -0.0472  0.1723  0.0308
28040W        W43657   5.070   8.878  11.243 -0.0875 -0.2303  0.0699
28041W        W43658   5.116  10.490   1.211 -0.3801  0.0225 -0.2300
28042W        W43659   5.868   8.817   4.059 -0.0325 -0.2066  0.0054
28043W        W43660   1.801   1.731   2.430 -0.0090  0.0816 -0.0826
28044W        W43661   6.573  13.890   4.082  0.3890  0.2090  0.2502
28045W        W43662   9.443  15.775  11.097  0.2957 -0.3602 -0.0548
28046W        W43663  16.841  18.792   4.794  0.1988  0.1239  0.2193
28047W        W43664  12.203  17.436  12.093  0.1020  0.1909  0.2745
28048W        W43665   1.800  11.232   3.657 -0.1661 -0.1033  0.2414
28049W        W43666   3.498   4.073   1.190 -0.1018  0.1471 -0.3075
28050W        W43667  13.779   5.220   3.874 -0.2394 -0.0198  0.1111
28051W        W43668  12.379   9.968   0.728  0.0635 -0.1393  0.0219
28052W        W43669   0.673   9.106   4.408 -0.4435  0.3090  0.0217
28053W        W43670  14.377  16.377  11.490  0.2673  0.0155 -0.3171
28054W        W43671   2.817  16.638   5.101  0.0048 -0.3263  0.0188
28055W        W43672  15.712  15.945  15.002  0.0742  0.0625 -0.2493
28056W        W43673   6.471  18.139   4.191  0.2297  0.3428 -0.1713
28057W        W43674  14.959   1.359  14.234  0.1132 -0.0227  0.0407
28058W        W43675   4.066  11.636   2.175  0.0763  0.0696 -0.1026
28059W        W43676   0.433   3.796  13.752  0.4228  0.0890  0.1924
28060W        W43677  16.010   0.314  11.648 -0.1074 -0.0581 -0.0341
28061W        W43678   1.065   4.207   3.940 -0.1084  0.2739 -0.1149
28062W        W43679   1.622   6.225  12.111 -0.0834 -0.1365  0.1028
28063W        W43680   9.180   7.019  11.305  0.0069 -0.0688  0.0794
28064W        W43681   9.212   9.031  10.575 -0.1143  0.1147 -0.0483
28065W        W43682   7.719   5.208  14.244 -0.1404  0.1180  0.0903
28066W        W43683  12.039   3.013  14.089 -0.0100  0.0679  0.2360
28067W        W43684   8.541  10.469  11.480  0.1050  0.0966 -0.0863
28068W        W43685  14.885   0.683   1.615 -0.2168 -0.0666  0.3539
28069W        W43686  14.506   0.782   0.158  0.2313  0.1173  0.0877
28070W        W43687   2.007   5.572   4.011 -0.2115  0.0400 -0.2767
28071W        W43688   7.671   3.127  11.012  0.2851 -0.1331 -0.1469
28072W        W43689  17.262   2.132  11.548  0.1358  0.3030 -0.1133
28073W        W43690  18.181  11.434  10.943  0.1336  0.1873  0.2263
28074W        W43691  18.759   8.680  13.641 -0.1326 -0.2124  0.2907
28075W        W43692   9.908  16.786   1.593  0.0890 -0.0142  0.0802
28076W        W43693  11.038   9.442   0.429  0.0444  0.1630  0.0570
28077W        W43694  10.106  10.452  14.260 -0.1364 -0.1183 -0.2735
28078W        W43695   3.182   4.724  12.628  0.1751 -0.0739  0.1998
28079W        W43696   7.781   8.627   4.143 -0.0407  0.3316  0.0998
28080W        W43697   9.117  18.833  14.956 -0.4304  0.0739  0.2926
28081W        W43698   8.711  17.647  10.925 -0.1224  0.2121  0.4944
28082W        W43699  16.323  12.618   1.606  0.2214  0.1970 -0.4539
28083W        W43700   1.191  15.355  14.760  0.1116 -0.1196  0.0536
28084W        W43701   0.687  13.842   1.429  0.1178  0.1414  0.3554
28085W        W43702   2.074   5.097  15.055 -0.1164 -0.3571  0.2081
28086W        W43703  10.047  15.849  12.265 -0.1584  0.2340 -0.1223
28087W        W43704   9.796  13.066   0.904  0.0148 -0.2393 -0.3463
28088W        W43705  19.037   1.967   3.016 -0.2367 -0.0364 -0.0562
28089W        W43706  13.323   9.988  11.086  0.1858 -0.0072 -0.0977
28090W        W43707  11.909  13.841  11.008 -0.1512  0.1541  0.1185
28091W        W43708  15.842   3.254  14.399  0.0592 -0.1175 -0.2900
28092W        W43709   7.913   1.290  15.273 -0.2051  0.2448  0.3243
28093W        W43710  13.868  12.406  15.104  0.1375  0.1051 -0.0763
28094W        W43711  11.545   0.027  15.020 -0.3887  0.2439  0.0474
28095W        W43712  16.254  14.583  13.575  0.0348 -0.3524 -0.3163
28096W        W43713  17.842  17.517  11.787 -0.4110 -0.2061  0.0556
28097W        W43714   0.075   8.323   9.256  0.1460 -0.1246 -0.2550
28098W        W43715   1.129   0.951   2.355 -0.4581 -0.3898  0.0750
28099W        W43716  16.416  15.360  13.540 -0.1074 -0.1832 -0.1050
28100W        W43717  16.820   1.126  11.929  0.1465  0.3990 -0.1282
28101W        W43718   4.467   9.526   1.185  0.0941 -0.3083  0.1243
28102W        W43719  16.857   9.404  12.539  0.1804  0.0747  0.0772
28103W        W43720  15.864   2.757   2.078  0.3255 -0.1979  0.4635
28104W        W43721   0.108  14.468   4.221 -0.1254 -0.1889 -0.0436
28105W        W43722   9.254   4.269   0.064  0.0004  0.1762 -0.0946
28106W        W43723  12.151  11.966   1.713 -0.1031  0.0717  0.0371
28107W        W43724   5.589   2.166  13.489 -0.3166  0.2063 -0.1575
28108W        W43725  13.385   0.321   4.293  0.0215 -0.0632  0.0341
28109W        W43726  10.684  16.731  14.811  0.0249  0.0630  0.1558
28110W        W43727  12.985   0.423  10.458 -0.3537  0.0555 -0.2891
28111W        W43728  12.526   1.292  12.937  0.0924 -0.2316 -0.1942
28112W        W43729  18.728  14.690   1.824 -0.1794  0.0217  0.1814
28113W        W43730   9.355  10.149   3.500  0.0712 -0.5269 -0.0054
28114W        W43731  12.613  17.177   3.264  0.3740 -0.0492  0.2660
28115W        W43732   1.209   1.192   4.766 -0.1000  0.0838  0.0716
28116W        W43733   2.974   9.097  15.166 -0.0520 -0.0624  0.2805
28117W        W43734  12.392  11.672   2.861  0.1594  0.0353  0.3008
28118W        W43735  18.988   8.373   0.758 -0.1909  0.1938  0.0962
28119W        W43736  13.901  16.459  14.116  0.1931  0.0726  0.0045
28120W        W43737   4.736  15.299   3.945  0.0225 -0.2099  0.1511
28121W        W43738  16.167  10.791  11.606  0.2660  0.1952 -0.3654
28122W        W43739   5.877   5.142  12.218 -0.0507  0.3169  0.0178
28123W        W43740   1.998   4.676  13.097 -0.4388  0.0386 -0.0579
28124W        W43741  18.471  11.619   1.360  0.0273  0.1332  0.1744
28125W        W43742   7.390   4.525   3.016  0.2787  0.2768  0.1094
28126W        W43743  18.604  16.079  11.382 -0.1496  0.1051  0.1051
28127W        W43744   5.290  16.165   1.313 -0.0383 -0.1867  0.3195
28128W        W43745  11.045   0.469  12.623  0.0303  0.4135  0.2501
28129W        W43746  17.057  18.772  11.942 -0.2313  0.0705 -0.1948
28130W        W43747   9.478  10.485   0.827 -0.0663 -0.1318  0.2186
28131W        W43748  11.980  13.018   1.007  0.3041  0.1292  0.6477
28132W        W43749  17.987   8.214  13.581 -0.1378 -0.0532  0.5178
28133W        W43750   6.562   3.613  14.414  0.0820 -0.2203 -0.2561
28134W        W43751   5.536   4.248  11.771 -0.2457  0.3538  0.1360
28135W        W43752  14.706  14.426  12.966 -0.0990 -0.1782  0.0656
28136W        W43753  13.696   6.253   2.753 -0.4489  0.0367 -0.0513
28137W        W43754   5.438   3.659   2.876 -0.1609  0.3259 -0.1744
28138W        W43755   7.383  10.382  10.845 -0.2648 -0.2974  0.1820
28139W        W43756   3.446  17.422  10.143  0.1814  0.0065 -0.1022
28140W        W43757   4.329   9.675  15.172 -0.0410  0.0727 -0.2499
28141W        W43758  16.600  15.135   4.542  0.1564 -0.2149  0.1555
28142W        W43759  17.754   8.174  15.289  0.2665  0.0464 -0.1062
28143W        W43760   9.518  17.833   2.840 -0.2562  0.2467  0.0616
28144W        W43761   6.115   6.503   3.925 -0.0187 -0.0151  0.4186
28145W        W43762  16.718   1.469  12.341  0.0433 -0.0627 -0.1212
28146W        W43763   7.941   9.120  14.907 -0.0933  0.1458 -0.1494
28147W        W43764  14.090  11.991  14.996  0.2371  0.2123  0.0525
28148W        W43765   8.279   2.505   0.294  0.3460  0.1034  0.0873
28149W        W43766   5.542   8.472  11.052  0.0982 -0.0333  0.2973
28150W        W43767   8.969  11.092  12.254 -0.3504  0.0632 -0.1746
28151W        W43768   4.403  17.051   0.944 -0.0536 -0.2101 -0.0151
28152W        W43769  14.024   5.085  13.643  0.0185 -0.3044 -0.1262
28153W        W43770  14.501  18.340  13.759  0.0964  0.0891  0.1415
28154W        W43771  11.363   9.383  11.580 -0.0609 -0.1570  0.1087
28155W        W43772   4.589  17.521  11.599  0.0814  0.0156  0.3134
28156W        W43773   8.520  14.445   0.861  0.0409  0.1590 -0.1664
28157W        W43774  17.613  13.693  10.347 -0.0079  0.2436  0.2709
28158W        W43775   5.104   0.645  12.381  0.2688 -0.0020 -0.1231
28159W        W43776  10.626   1.653   4.502  0.0364 -0.0259 -0.0152
28160W        W43777   4.886   6.466  14.089 -0.0287 -0.2004 -0.0710
28161W        W43778  14.595  18.213   3.091  0.6402  0.1641 -0.1716
28162W        W43779  18.722   9.296  11.407  0.0766  0.1182  0.2099
28163W        W43780  19.071  15.861   3.139 -0.0164 -0.1065 -0.0322
28164W        W43781  11.754  15.627  14.195  0.0625  0.0767 -0.1422
28165W        W43782   5.868  10.430  13.621  0.1798 -0.4352 -0.0875
28166W        W43783   1.729   9.450   4.600  0.2025  0.1239  0.1151
28167W        W43784  16.726  11.099  14.661  0.0751  0.0620 -0.2554
28168W        W43785   0.387   7.855  11.396 -0.2451 -0.3355 -0.2709
28169W        W43786  18.649   9.055   9.921 -0.2395  0.1243 -0.0449
28170W        W43787  11.085   6.888   4.728 -0.3122  0.2747  0.2873
28171W        W43788   3.070  10.619   3.114  0.2278 -0.1043  0.2603
28172W        W43789  12.873  11.856   2.963  0.0151 -0.1347  0.2859
28173W        W43790  17.850  11.610   0.801  0.0308  0.0900  0.4633
28174W        W43791  18.553   2.728   2.845 -0.3650  0.2153 -0.2609
28175W        W43792  16.965  18.810  12.455  0.2343 -0.3338 -0.0527
28176W        W43793   6.379   2.942  11.696 -0.0983  0.7133 -0.2726
28177W        W43794   8.111  13.115  13.121  0.0356  0.2480  0.2604
28178W        W43795  11.078  12.418   3.957 -0.2976  0.0604  0.0927
28179W        W43796   1.283   2.755   5.924 -0.0685 -0.0870  0.2697
28180W        W43797   8.906   9.381   2.968 -0.3358  0.1931  0.2812
28181W        W43798  14.949  12.777   4.842  0.0604 -0.0642 -0.0883
28182W        W43799  15.939   5.054   0.496  0.0129 -0.0808 -0.2465
28183W        W43800  18.081   0.991  11.640 -0.1769 -0.0569  0.0609
28184W        W43801  14.488  13.877   3.625  0.1092  0.0116  0.2709
28185W        W43802   0.879   5.428  14.016  0.2562  0.1357 -0.1141
28186W        W43803  15.850   1.948  12.330 -0.0417 -0.2520  0.0033
28187W        W43804   3.306  14.709   2.738  0.2615  0.0850  0.1912
28188W        W43805  16.439  15.423  11.116  0.0396  0.2721  0.0179
28189W        W43806  11.266  16.163   2.777  0.1459  0.2486  0.5700
28190W        W43807  14.492  12.969   0.898  0.0864  0.1499 -0.1353
28191W        W43808  18.252   9.093   4.080  0.1710  0.5103  0.3111
28192W        W43809   6.253  13.988   1.258 -0.0040 -0.0364  0.3305
28193W        W43810  17.330   9.977  11.451  0.0473 -0.1729  0.0636
28194W        W43811   3.602   3.997  11.148  0.1172  0.1753  0.2416
28195W        W43812   2.827  10.776   4.448  0.0385  0.1450  0.0586
28196W        W43813   9.312   3.414   2.505  0.1178  0.4397  0.0573
28197W        W43814  12.235  17.321   4.720  0.0299 -0.1982  0.0710
28198W        W43815   3.845   1.052   6.215  0.0239  0.0132  0.2689
28199W        W43816   0.554   3.712   3.535 -0.0606 -0.2487  0.1314
28200W        W43817   6.436   2.078   3.906  0.0817  0.0402  0.1754
28201W        W43818  14.980   9.654  13.407  0.2195 -0.0386 -0.0763
28202W        W43819   9.632   6.000   4.536 -0.0949 -0.1455  0.0364
28203W        W43820   9.419  12.920  14.888 -0.4163 -0.1257  0.1438
28204W        W43821  14.267  14.627  12.610 -0.0792  0.2984 -0.0269
28205W        W43822   5.500  15.590   5.070  0.3793  0.2198 -0.0662
28206W        W43823  16.057   9.780   2.055  0.0354 -0.0637  0.0373
28207W        W43824   3.548   5.452  11.954 -0.1050  0.2788  0.1287
28208W        W43825   2.650   0.435  12.280  0.0314 -0.1061 -0.1203
28209W        W43826   1.445  14.632   0.182 -0.1566 -0.1694  0.2018
28210W        W43827   2.665  13.480   3.971  0.1452 -0.0594  0.0037
28211W        W43828   4.108   4.978   2.121  0.1876  0.1893 -0.2324
28212W        W43829  10.548  18.240   3.881  0.1115  0.1398  0.0718
28213W        W43830  16.052   6.903  13.380  0.2025  0.2779  0.3832
28214W        W43831   6.854  17.790   1.299 -0.1810  0.2115  0.1701
28215W        W43832   1.272   4.356   1.078 -0.0466 -0.0026  0.1471
28216W        W43833  15.533  11.321  12.753  0.0663  0.1618  0.3873
28217W        W43834   8.982  10.833   4.150  0.1522  0.3321 -0.0181
28218W        W43835   6.804   4.911   1.397 -0.0842  0.3231 -0.5654
28219W        W43836   4.349  16.458   2.310  0.1386 -0.3732  0.6082
28220W        W43837  14.913  18.798  11.210  0.2088  0.1056  0.1198
28221W        W43838   1.808  14.034   5.511  0.2072 -0.1687 -0.2630
28222W        W43839  17.181  14.094   2.516 -0.1325  0.0280  0.1247
28223W        W43840  17.365   3.784   5.144  0.2744  0.2610 -0.1916
28224W        W43841  15.116  17.659   1.476  0.0808  0.1821  0.3176
28225W        W43842   2.490  12.610  15.028  0.0649  0.2079  0.1278
28226W        W43843   1.522   2.309   0.838 -0.2970  0.0537 -0.0770
28227W        W43844   2.918   9.323   4.859  0.1882 -0.2319  0.2859
28228W        W43845  17.069   7.987   0.721 -0.2185 -0.2306 -0.0365
28229W        W43846   2.737  10.767  10.485 -0.2108  0.1558  0.1098
28230W        W43847   7.679   2.085   3.251  0.0550  0.3945 -0.1245
28231W        W43848  12.783  11.138   3.567 -0.2672  0.0791 -0.0449
28232W        W43849  18.468   8.020  11.360 -0.0969 -0.0397  0.0202
28233W        W43850  18.888  10.575  10.959  0.1242  0.0531  0.2312
28234W        W43851  17.611   3.597   9.765  0.1798  0.2954 -0.1551
28235W        W43852   7.027   6.247   0.986 -0.0488  0.0197 -0.1048
28236W        W43853  16.954   8.247  10.281 -0.1007 -0.0956 -0.3657
28237W        W43854  11.457   1.300  12.691  0.0835 -0.0587 -0.0379
28238W        W43855   5.386   1.348   2.781  0.0512 -0.1654  0.1067
28239W        W43856   8.535  17.891  11.486  0.0058 -0.0428 -0.1383
28240W        W43857   7.792  12.472  14.282 -0.0780  0.0471  0.3300
28241W        W43858   6.929  15.850   1.486  0.3137 -0.0760  0.1455
28242W        W43859  11.307  16.994   3.238 -0.0215  0.2208 -0.1023
28243W        W43860  10.860   6.839   0.538 -0.0391  0.0644 -0.1605
28244W        W43861   4.762  18.946   2.833  0.0884  0.0936  0.2245
28245W        W43862  15.884  11.949   3.826  0.1205  0.0838 -0.2384
28246W        W43863   2.006   7.975   2.551 -0.0091  0.0068 -0.0585
28247W        W43864   8.150  15.997   4.957  0.4447 -0.0116  0.1888
28248W        W43865  15.037   4.281  14.786  0.3741  0.2085  0.1529
28249W        W43866   4.195  12.030  13.382 -0.3799 -0.1106 -0.0440
28250W        W43867  14.978   4.988  12.720 -0.1392  0.2660  0.0287
28251W        W43868  11.584  15.007   4.843 -0.0498 -0.0301 -0.0051
28252W        W43869  18.052  17.363  10.492  0.3396 -0.4020  0.1252
28253W        W43870  18.547  10.475   1.550  0.1805  0.0991  0.0879
28254W        W43871   7.963   1.429   4.686  0.1735  0.2600  0.1074
28255W        W43872  17.441   1.900  12.141  0.3169 -0.1667 -0.1261
28256W        W43873  12.495  12.443  11.151  0.1880  0.3305 -0.0776
28257W        W43874   2.244   2.998  14.667 -0.1772 -0.0354 -0.1136
28258W        W43875  18.772   2.316   0.743 -0.0433  0.3615  0.1448
28259W        W43876   5.405   3.826   0.691 -0.2313 -0.0540 -0.0230
28260W        W43877  14.800   7.525   1.602  0.0531  0.0075  0.2081
28261W        W43878   2.767  10.239   2.847 -0.0392  0.3838  0.2903
28262W        W43879   6.312  15.284   5.267  0.1909  0.2231 -0.1280
28263W        W43880   6.746   9.991  11.151  0.0625 -0.1715 -0.3140
28264W        W43881   9.088  17.606  13.811 -0.0951 -0.0508  0.2364
28265W        W43882  10.277   4.332   1.578 -0.2240  0.1747  0.1041
28266W        W43883   7.405   7.749   1.073  0.0111  0.0081 -0.0228
28267W        W43884   8.362   8.789  12.261 -0.2089 -0.0664 -0.0144
28268W        W43885  13.310  15.711  14.107  0.1374  0.3901 -0.2283
28269W        W43886  14.118   1.717  14.708  0.3317 -0.3049  0.2436
28270W        W43887   1.071  17.525   3.128  0.0647 -0.2193  0.0461
28271W        W43888   0.437   1.333   0.342  0.0573 -0.0765 -0.0404
28272W        W43889   8.691  12.885   2.926  0.1380  0.0844  0.0637
28273W        W43890   4.749  15.349   2.035  0.0218 -0.5276  0.0988
28274W        W43891   7.182   0.831  11.405 -0.2794  0.1132  0.2799
28275W        W43892  13.716  18.571   2.693  0.3257 -0.1177  0.1983
28276W        W43893   0.220   8.342  14.241 -0.2627 -0.3268 -0.1450
28277W        W43894  17.889  17.428   1.776 -0.1740 -0.0028  0.2202
28278W        W43895   2.424   6.854  15.052  0.2742 -0.3681 -0.1493
28279W        W43896  15.852   6.643  10.936 -0.1167 -0.0294 -0.0481
28280W        W43897   7.889  10.981   3.261  0.2795 -0.0820  0.2900
28281W        W43898   4.396   3.142   2.528 -0.1415  0.1585  0.0663
28282W        W43899  16.605   5.828  13.739 -0.2618  0.1270  0.1311
28283W        W43900  11.684   6.247  11.565  0.2354  0.1271 -0.1445
28284W        W43901   3.225   6.015  13.625  0.0849  0.0284 -0.2790
28285W        W43902  18.621  14.316   1.319 -0.2076 -0.0144  0.2157
28286W        W43903   0.142   0.080   1.012  0.0660 -0.4140  0.0866
28287W        W43904  17.453   0.783   2.066 -0.0655 -0.1344 -0.1434
28288W        W43905  14.746   8.218   1.784  0.0658 -0.2573  0.1074
28289W        W43906   6.933   1.198  15.182  0.2143  0.2393 -0.2622
28290W        W43907   3.828   8.093  13.848  0.1220 -0.1311 -0.2589
28291W        W43908  13.407  17.256   2.357 -0.4432  0.0592 -0.1096
28292W        W43909  12.173   6.976   2.754  0.2155  0.1979 -0.2047
28293W        W43910  17.407  12.687   4.158 -0.0112  0.1237 -0.1803
28294W        W43911  10.161   3.472  10.264  0.4111 -0.1594 -0.0252
28295W        W43912  13.286  15.995  10.748  0.2478 -0.0104  0.2805
28296W        W43913   0.243  17.641  12.208 -0.0790  0.1206 -0.4164
28297W        W43914  18.079  11.095  11.281 -0.0900 -0.3912 -0.0756
28298W        W43915   9.323   5.085  13.574 -0.1093  0.1124 -0.0315
28299W        W43916   2.715   5.565  12.227 -0.0953  0.0216 -0.3911
28300W        W43917  16.293   4.327   0.182 -0.3453  0.0100  0.0536
28301W        W43918  10.870  15.834  10.592 -0.0659 -0.0565  0.0466
28302W        W43919  13.137   4.540   0.395 -0.0674  0.0453  0.0198
28303W        W43920   1.216   4.807  13.282  0.0844 -0.1800  0.1043
28304W        W43921   6.977  15.174  13.707 -0.1356  0.0007 -0.3997
28305W        W43922   1.790  13.544   2.820 -0.1248 -0.0179 -0.1996
28306W        W43923   1.528  14.979  11.131 -0.2107  0.0129 -0.0208
28307W        W43924   1.602   0.885   5.886 -0.1265 -0.4020  0.1920
28308W        W43925   2.954   1.881   1.560  0.2995  0.5061  0.0656
28309W        W43926   2.437   0.697  14.960  0.0597  0.5050  0.1490
28310W        W43927  11.188   3.269  14.547  0.0303 -0.0109 -0.5030
28311W        W43928   2.355   9.923  13.878  0.1577 -0.3432  0.0695
28312W        W43929  18.063   3.689   4.340 -0.2580 -0.0304  0.0647
28313W        W43930  13.409  10.453   0.693 -0.2319  0.2904 -0.0950
28314W        W43931   0.783   8.989   3.943  0.2993  0.1862 -0.0773
28315W        W43932   7.928  15.981  10.843  0.0373  0.2340  0.3929
28316W        W43933  16.086  17.826   0.555  0.2877 -0.0959  0.0663
28317W        W43934  16.221  10.998   1.241  0.0280  0.2632 -0.2154
28318W        W43935  11.169  18.231  14.552  0.0316  0.0426 -0.4284
28319W        W43936   3.826   9.561   2.594 -0.1090  0.0006  0.1810
28320W        W43937  15.424  18.916  11.404  0.1718  0.2457 -0.0033
28321W        W43938   2.390   0.038   2.463  0.1145  0.2464 -0.1177
28322W        W43939   2.624  12.118   4.145 -0.1122  0.1511 -0.0957
28323W        W43940  14.914   5.074  11.713  0.0500  0.0606 -0.1368
28324W        W43941  11.322  17.756  14.242 -0.1039  0.3462 -0.0500
28325W        W43942  16.949  18.056   4.403 -0.0802  0.2584  0.0817
28326W        W43943   3.797   7.382   4.439  0.1404 -0.0213 -0.0521
28327W        W43944  18.143  16.240  11.755 -0.2310 -0.1738  0.0530
28328W        W43945   6.540  10.962   5.484 -0.3889  0.0977  0.0439
28329W        W43946   6.217   3.888  11.416  0.1993 -0.0925  0.0770
28330W        W43947  16.590   4.458   4.031  0.1530 -0.0755 -0.1721
28331W        W43948   4.862  13.934   2.960 -0.1642 -0.2970 -0.0215
28332W        W43949  16.042   5.816   1.976  0.0702  0.2202  0.2407
28333W        W43950   2.196  17.857   3.070 -0.4324 -0.0992  0.2474
28334W        W43951   7.034  17.306   4.796  0.0306  0.0988  0.1286
28335W        W43952   8.395   9.246   2.988 -0.2771  0.0765 -0.5604
28336W        W43953   5.081   6.669   0.704  0.0834 -0.0457  0.0509
28337W        W43954  10.946   5.741  12.922 -0.1092 -0.2219 -0.0322
28338W        W43955  15.427  12.132  10.728  0.1271  0.1671 -0.2930
28339W        W43956   6.393   8.623  14.634  0.1155  0.2653 -0.0693
28340W        W43957   2.486  17.627   1.390  0.1285  0.1083 -0.0101
28341W        W43958   3.392   1.176   0.472 -0.2006  0.0531  0.1758
28342W        W43959  10.861  14.438  13.512  0.2782 -0.1698  0.4721
28343W        W43960  18.245  15.747   0.314 -0.2298  0.0519  0.0440
28344W        W43961   2.893   7.083   0.817  0.2845  0.1558 -0.1030
28345W        W43962  17.005   2.473   4.500 -0.1010 -0.1644  0.1616
28346W        W43963   3.513  11.831  12.230 -0.0062 -0.0476 -0.0136
28347W        W43964   2.269   7.555   1.331  0.1333  0.3101  0.2121
28348W        W43965   2.589  14.876  11.367 -0.1466  0.3079 -0.2692
28349W        W43966   3.173   1.316  12.861 -0.3635  0.2410 -0.1394
28350W        W43967   4.312  10.208  13.109  0.0038 -0.1810 -0.0509
28351W        W43968  11.401  12.988   0.907  0.0954  0.0707 -0.0232
28352W        W43969   2.528  15.289  12.514  0.1635 -0.1074  0.2449
28353W        W43970   4.270   7.948  13.594  0.2351  0.0578  0.1088
28354W        W43971   5.928  18.414  13.838 -0.1063  0.2452 -0.0724
28355W        W43972   5.481   3.565   1.155 -0.1417 -0.0900 -0.1190
28356W        W43973   4.662   9.880   2.737  0.0123  0.2359 -0.0992
28357W        W43974  11.707  12.944  14.891  0.0455 -0.1475  0.3300
28358W        W43975  16.446   1.072  12.307  0.1371  0.1887 -0.0579
28359W        W43976   4.352   1.206   2.690 -0.0146 -0.0173  0.0386
28360W        W43977   9.089  14.273   0.968 -0.0589 -0.0287  0.0634
28361W        W43978   4.666   3.761   5.218 -0.1171 -0.2918  0.1839
28362W        W43979   0.012   2.146  12.053  0.0779 -0.0073  0.2093
28363W        W43980   7.602   5.911   0.398  0.0458 -0.2762  0.4507
28364W        W43981   2.713  13.526   1.914 -0.0845  0.2071 -0.3336
28365W        W43982  15.075   3.314  10.527  0.0746 -0.0849  0.4533
28366W        W43983   8.799  13.335   4.775  0.0992  0.3033  0.4749
28367W        W43984   3.964  14.586   3.976 -0.0753  0.3438 -0.0082
28368W        W43985   2.195   7.933   2.055  0.2273  0.1738  0.2533
28369W        W43986  12.202   1.864   4.663  0.0104 -0.0170 -0.2261
28370W        W43987  16.977   7.775  12.931 -0.1099  0.0785  0.2212
28371W        W43988  12.416  10.257   3.754 -0.1039  0.0270 -0.1359
28372W        W43989  11.587  12.967   1.942  0.3698  0.0693 -0.1137
28373W        W43990  17.056   7.115  14.005 -0.0628 -0.1850 -0.0232
28374W        W43991   8.348   3.140   4.426  0.1576 -0.0189 -0.2425
28375W        W43992   1.728   0.251   4.925  0.0793 -0.2376  0.0145
28376W        W43993  16.312   1.118  14.825  0.1166 -0.0107  0.0772
28377W        W43994  15.727  16.463  13.211  0.3695  0.0432 -0.2098
28378W        W43995  11.792  10.471   4.323 -0.1434 -0.1581  0.0964
28379W        W43996  13.835  17.901   1.089  0.3144 -0.0535 -0.0556
28380W        W43997  14.496  10.172  10.895 -0.0264 -0.0171 -0.0729
28381W        W43998  18.713  15.371  14.531 -0.2412 -0.0357 -0.1542
28382W        W43999  18.283  18.233   3.437 -0.0811  0.1302 -0.2558
28383W        W44000   5.875   3.851   4.714 -0.0267 -0.1039  0.2513
28384W        W44001   1.653  17.905  10.971 -0.0528 -0.2702  0.0928
28385W        W44002  18.789  11.784  11.663  0.3959 -0.0095  0.0340
28386W        W44003   9.420   5.533  13.790  0.0321 -0.1295 -0.1957
28387W        W44004   7.277  11.406  11.735  0.2909 -0.0560 -0.0370
28388W        W44005   1.998   6.224   3.507  0.0258  0.3162 -0.0131
28389W        W44006   6.427  14.674   0.276  0.2516  0.0034 -0.1887
28390W        W44007  13.259  10.369  12.905 -0.0626  0.1454 -0.0417
28391W        W44008   2.681   0.686   3.133 -0.0813  0.1354 -0.0138
28392W        W44009   8.498  14.978  10.717 -0.0817 -0.1203  0.1486
28393W        W44010   4.651  18.871   5.072  0.2695  0.0016  0.0476
28394W        W44011   1.812   9.179   9.411 -0.2206 -0.2147  0.0519
28395W        W44012   7.712  17.523  13.878  0.2248  0.1674  0.3749
28396W        W44013  18.609   5.018  14.292 -0.2744  0.1032  0.3734
28397W        W44014   5.385  11.699   3.422  0.2109  0.1392 -0.0157
28398W        W44015  15.842  17.369   1.904 -0.1860  0.0252  0.0459
28399W        W44016   9.826   5.482   3.842 -0.2255  0.2698 -0.5033
28400W        W44017  13.795   2.338  12.797 -0.0499 -0.0466  0.2590
28401W        W44018  11.250  15.668  11.435  0.1355 -0.2245 -0.1553
28402W        W44019   8.683   0.464   1.505 -0.1434 -0.1717  0.2266
28403W        W44020  16.916  17.440   1.740  0.2656 -0.0160 -0.0256
28404W        W44021  12.479   4.803   2.405 -0.1069  0.0814  0.3852
28405W        W44022  18.118   0.700  12.002  0.1065  0.0848 -0.4906
28406W        W44023   5.662   3.008   3.749 -0.2289  0.2554  0.0964
28407W        W44024  11.237  14.253  14.492  0.3851  0.1525 -0.1004
28408W        W44025   2.369   9.610  13.313 -0.0532 -0.0018 -0.0836
28409W        W44026  13.940   7.208   2.107 -0.0368  0.0250  0.0445
28410W        W44027   9.769   8.340   3.851  0.0566  0.0141 -0.4360
28411W        W44028   5.913   0.252   1.124 -0.2987  0.2871  0.2494
28412W        W44029   4.096  12.836   1.775  0.5545 -0.1133  0.2377
28413W        W44030   0.663   2.807  11.519 -0.1483 -0.0407  0.0393
28414W        W44031  10.232  18.347   3.402  0.2362 -0.0007 -0.3526
28415W        W44032   9.507   2.348  10.696 -0.1293 -0.0885  0.0609
28416W        W44033  12.581   1.631   4.875  0.1914  0.3954 -0.1413
28417W        W44034   6.328   7.357  15.213 -0.1548  0.3879 -0.1724
28418W        W44035  13.089   9.384  13.143 -0.1750 -0.1626  0.0148
28419W        W44036   4.761  16.439   1.994  0.0669  0.0303  0.4006
28420W        W44037   2.355  18.765  10.455  0.0008  0.0023 -0.2302
28421W        W44038   0.907   9.055   1.573  0.0357  0.1363  0.0003
28422W        W44039  13.643  17.623   0.055 -0.3509  0.0269  0.1800
28423W        W44040  14.610  15.109   0.605  0.0334  0.0170 -0.2375
28424W        W44041  19.050  13.013   9.868  0.0536  0.1917  0.0066
28425W        W44042  12.288   9.442  13.559  0.0639 -0.1675  0.1463
28426W        W44043   9.209   9.854  12.362  0.1520  0.3313  0.0129
28427W        W44044  18.372  10.844   0.136  0.1602 -0.0299 -0.0626
28428W        W44045  11.974   6.135   5.053  0.2449  0.0191  0.1516
28429W        W44046   1.875   4.854   4.436 -0.1843 -0.3945 -0.0032
28430W        W44047  10.628  16.990  12.816 -0.1160 -0.3904  0.0773
28431W        W44048  15.304   0.604   4.766  0.0036  0.0067 -0.0109
28432W        W44049   7.430  10.115  13.178  0.0850  0.2285 -0.0013
28433W        W44050  12.502   1.901  13.088  0.1366 -0.2884  0.2365
28434W        W44051   2.763   2.996   5.435 -0.3206 -0.3849  0.1020
28435W        W44052   1.096  16.435  10.418  0.0305  0.3417  0.3903
28436W        W44053   5.179  14.794   1.422  0.2291  0.5053  0.0763
28437W        W44054  18.275   5.687   0.820  0.0475  0.0335 -0.3394
28438W        W44055   4.507  12.728   3.576 -0.4229  0.0369 -0.4217
28439W        W44056   6.974  16.558   1.487 -0.0279 -0.0494 -0.0928
28440W        W44057   0.223   3.340   3.659 -0.1256  0.0688  0.0638
28441W        W44058   3.183  15.273   1.091  0.0201 -0.0429  0.0660
28442W        W44059  16.115  18.138   4.537  0.0512  0.3624 -0.2657
28443W        W44060  12.679  14.579  15.024  0.3886 -0.0659  0.0899
28444W        W44061   1.397   8.051  13.576  0.1180  0.2762 -0.2563
28445W        W44062   0.900   2.678  15.046  0.2725  0.1781 -0.2700
28446W        W44063   6.907   4.058  11.041  0.0674 -0.1392  0.2820
28447W        W44064   6.306  17.450   1.117 -0.0563 -0.0969 -0.1230
28448W        W44065  12.212   1.728   5.178 -0.0150 -0.2311  0.0133
28449W        W44066  11.025   6.848  11.005 -0.1716  0.3128  0.0719
28450W        W44067  11.771  16.140  14.176  0.0054 -0.0003  0.1686
28451W        W44068   8.250   8.150  14.298  0.1514 -0.0913  0.0073
28452W        W44069  10.174  18.461   2.866 -0.3320  0.0897 -0.2460
28453W        W44070   7.386  18.732   3.261 -0.1701 -0.2228 -0.4964
28454W        W44071   2.229  18.755   1.630  0.1551  0.1795 -0.0751
28455W        W44072  14.137  12.761  13.273 -0.0551  0.3237 -0.1120
28456W        W44073   8.909  13.767  12.929  0.3978 -0.3843  0.1507
28457W        W44074   4.040   6.054   5.570  0.1278 -0.0039  0.6482
28458W        W44075  15.161   8.052  13.842 -0.1909  0.2024 -0.1887
28459W        W44076  13.003   7.116  12.863  0.0307  0.0084  0.1284
28460W        W44077   3.088   9.096   3.384  0.2542 -0.1780  0.2592
28461W        W44078  18.553  13.916  11.904  0.1838 -0.1498 -0.2407
28462W        W44079  15.071   0.840   5.289  0.0521 -0.0413 -0.0192
28463W        W44080   1.775  13.104   2.331  0.0434  0.0281 -0.0004
28464W        W44081   3.061  16.447   2.207 -0.0568  0.0070  0.0505
28465W        W44082  14.553   5.358   4.189  0.1904  0.1143  0.0271
28466W        W44083  17.018  10.422   3.689 -0.1501 -0.1370  0.0447
28467W        W44084  17.673   1.634   1.419  0.0927 -0.1886  0.3175
28468W        W44085  18.055   4.920   2.225  0.0943 -0.0725 -0.0404
28469W        W44086   9.595  16.157  13.641 -0.1293  0.4092  0.2377
28470W        W44087  13.810  11.172  12.368 -0.1960  0.1427  0.2476
28471W        W44088   9.414   7.452  10.272 -0.0102 -0.0534 -0.0960
28472W        W44089   8.780  11.339   1.435  0.0256 -0.4809 -0.1009
28473W        W44090  14.777  14.397   1.332 -0.0705  0.0233 -0.0760
28474W        W44091   1.492   1.814   3.963  0.0509  0.2392  0.0549
28475W        W44092   5.415   2.846  12.965  0.0267 -0.2228 -0.0034
28476W        W44093  12.111   7.938   3.364  0.0723  0.0909 -0.1404
28477W        W44094  14.815   1.823  14.228  0.0183  0.2209 -0.1451
28478W        W44095   1.820   5.310  12.567 -0.2410 -0.0754 -0.0072
28479W        W44096   5.513  10.169   0.966 -0.0563 -0.0159  0.2003
28480W        W44097   7.458   1.182  10.451 -0.0656  0.3658 -0.1379
28481W        W44098  17.905  16.951  14.655 -0.0899  0.2328  0.1545
28482W        W44099   0.286   2.455   3.660  0.1393 -0.1753 -0.0320
28483W        W44100  13.886   2.310   2.649 -0.0943 -0.0328  0.2130
28484W        W44101  17.181   3.110  11.284  0.4488  0.3157  0.0963
28485W        W44102   2.564  10.334  13.708  0.0720 -0.0840 -0.0529
28486W        W44103  17.847   8.269   0.488 -0.2178 -0.1701  0.2851
28487W        W44104  10.824   5.965  11.523 -0.1325 -0.2023  0.1839
28488W        W44105   2.725  11.934  12.859 -0.2376 -0.0632 -0.1406
28489W        W44106   8.476  16.999   2.489 -0.4725 -0.0933 -0.1540
28490W        W44107   4.620  11.109   0.970 -0.1907 -0.2637 -0.2085
28491W        W44108  10.221   4.930   4.130 -0.0901  0.1073  0.1461
28492W        W44109  14.947   4.961   1.569  0.0773 -0.2955  0.0350
28493W        W44110   4.511  11.208   1.654  0.3446  0.0838 -0.0075
28494W        W44111   1.630  11.078  15.278  0.0628  0.0255  0.1886
28495W        W44112  14.849  11.758  14.144  0.1013  0.1694  0.0661
28496W        W44113   3.640   8.780   4.245  0.0098  0.2570 -0.2796
28497W        W44114   7.681  15.412  14.325 -0.0164 -0.1078  0.1264
28498W        W44115   3.055  12.581  13.418 -0.0895 -0.0626 -0.1082
28499W        W44116   7.773  10.644   1.631  0.1579 -0.3202  0.4613
28500W        W44117  11.306   4.853   1.907 -0.0405 -0.2417 -0.3809
28501W        W44118   3.858  18.313  12.421  0.0868 -0.0070  0.4181
28502W        W44119   4.048  14.590  10.487 -0.7321  0.2074 -0.1124
28503W        W44120   0.557  14.467   3.940  0.0680 -0.1892  0.0893
28504W        W44121   4.778   9.718  12.909 -0.1456 -0.2908  0.1096
28505W        W44122  18.428   5.804  14.550 -0.0812 -0.2428 -0.5523
28506W        W44123  12.743   2.755  13.999  0.1802  0.0714  0.1520
28507W        W44124  14.459   2.050   5.483  0.2081  0.0194  0.0636
28508W        W44125  12.074   0.926   3.463  0.5502 -0.0121  0.0299
28509W        W44126   9.404   7.373  13.953 -0.1340  0.1859 -0.1274
28510W        W44127  11.757  13.192   3.903 -0.2493 -0.3279 -0.0626
28511W        W44128   8.378   8.627   2.721 -0.1729 -0.1020  0.0575
28512W        W44129   8.004  13.769   2.364  0.2809  0.1395  0.0760
28513W        W44130  11.993   1.579  11.768 -0.0441 -0.0823 -0.0870
28514W        W44131   2.356  12.346  13.096  0.0579 -0.0197 -0.4765
28515W        W44132  14.790  15.414  14.103 -0.0872  0.0151  0.1778
28516W        W44133   4.716  13.252   4.169  0.1456  0.0868  0.1395
28517W        W44134   8.658   3.989   4.465  0.0163  0.1969  0.1891
28518W        W44135   8.620   0.526   1.047  0.0411  0.3584  0.2805
28519W        W44136   6.028   2.094   2.482  0.3611 -0.1888  0.0731
28520W        W44137   0.029   2.419   2.699 -0.0252  0.1192 -0.1155
28521W        W44138  18.023  11.251   4.194 -0.3048 -0.3475 -0.2307
28522W        W44139   0.874  17.829  12.005  0.3374 -0.0536 -0.1827
28523W        W44140   5.826  12.667   4.164 -0.2708  0.0578 -0.0675
28524W        W44141  12.867  16.831   1.568  0.3326 -0.0284  0.2141
28525W        W44142  12.580  11.167   0.264 -0.0789  0.0858  0.0379
28526W        W44143   8.976   4.792   0.779  0.2712 -0.1170  0.2156
28527W        W44144  10.984  15.329   1.838  0.0033 -0.2494  0.1164
28528W        W44145  18.250  10.101   5.013 -0.1180  0.0571  0.0220
28529W        W44146   3.082  14.717  11.332  0.0609 -0.1236  0.1539
28530W        W44147   9.267   5.147   2.148  0.2794  0.1272  0.0752
28531W        W44148   1.387   4.380   5.356 -0.1678  0.0494  0.1930
28532W        W44149   2.779   9.421   0.206  0.1147  0.1755  0.1099
28533W        W44150   5.065  18.077  11.021 -0.2309  0.0061 -0.0994
28534W        W44151  15.408   7.159   4.308  0.3580 -0.2037 -0.2494
28535W        W44152   8.252   9.503   4.793 -0.2023 -0.2604 -0.1608
28536W        W44153   8.444   7.752  12.680  0.0102 -0.1901  0.4316
28537W        W44154  18.035  14.946  12.932  0.0625 -0.0400  0.1523
28538W        W44155  10.891   5.516   0.584  0.4291  0.2535  0.2885
28539W        W44156  15.590  13.808   4.042  0.2246 -0.1044 -0.4628
28540W        W44157   9.664   7.364   2.356  0.2591 -0.3344  0.1336
28541W        W44158   7.381  10.814  10.486  0.2003  0.2281  0.4767
28542W        W44159  16.226  16.076   0.505  0.3151 -0.2355 -0.5831
28543W        W44160   8.559   2.507   4.246  0.1109  0.1998 -0.2080
28544W        W44161  12.902   9.648   1.285  0.0397  0.2349 -0.1570
28545W        W44162   8.505  14.510  14.567  0.1151 -0.1613 -0.2072
28546W        W44163   8.004   9.832  13.623 -0.0700  0.0386 -0.1665
28547W        W44164  12.270  14.013   2.957 -0.0976 -0.0051 -0.0056
28548W        W44165   3.526  11.698   0.336  0.0590 -0.0148  0.4057
28549W        W44166  12.469  16.191   4.493 -0.1916 -0.0134 -0.0181
28550W        W44167  10.696  14.794  11.248 -0.1471 -0.3365  0.2864
28551W        W44168   0.432  12.191  11.013 -0.0585 -0.1624  0.0517
28552W        W44169  14.424   1.763   1.377 -0.3829 -0.0335  0.3702
28553W        W44170   0.983   2.642  14.134  0.0829  0.3235  0.0521
28554W        W44171   8.345   1.164  13.159  0.1059 -0.4314 -0.2254
28555W        W44172   3.348   2.753   4.679  0.0520 -0.0472 -0.1925
28556W        W44173  11.771   8.238   1.898  0.2124  0.4134  0.5893
28557W        W44174  18.322  14.108   3.184  0.0916  0.0161 -0.1126
28558W        W44175   1.508  17.217   3.277 -0.1911  0.1493 -0.0880
28559W        W44176  11.762  14.167   1.245  0.0469 -0.1089  0.1455
28560W        W44177  15.211  15.850   3.128 -0.0073  0.2237 -0.1570
28561W        W44178  13.330   8.026   1.022  0.1085  0.2571  0.1937
28562W        W44179   8.653  15.421  11.022  0.3272 -0.3256 -0.0825
28563W        W44180   8.942   5.512  10.875  0.3883 -0.4195  0.1808
28564W        W44181  12.843  17.657   4.395  0.2446  0.2729 -0.1881
28565W        W44182   3.961  14.157  11.303  0.1303 -0.0320 -0.2240
28566W        W44183   8.550   5.844  11.029 -0.0488  0.1464  0.1009
28567W        W44184   8.225   4.217   5.156 -0.2233 -0.0191 -0.1687
28568W        W44185   2.356   0.408   2.792 -0.0695  0.3034  0.0438
28569W        W44186  11.218  15.666   2.935  0.2282  0.2244  0.1261
28570W        W44187   2.470   2.543  14.631  0.0501 -0.2668  0.0450
28571W        W44188   2.165  17.008  13.362 -0.0405  0.1122  0.2090
28572W        W44189  13.048  14.900  12.306 -0.1686  0.1185 -0.1278
28573W        W44190   6.248   0.811  13.114  0.1094 -0.0139 -0.1447
28574W        W44191  13.067  11.862  13.110  0.0066 -0.2181  0.1815
28575W        W44192   4.687   9.091   4.144 -0.2820  0.2938  0.2389
28576W        W44193   2.292  10.028   4.183  0.0835  0.5126  0.0129
28577W        W44194  12.788   9.945   4.995 -0.3536  0.1822 -0.1842
28578W        W44195  16.333  15.072  14.862 -0.0344 -0.1915  0.1439
28579W        W44196   6.591  12.762  11.842 -0.6135  0.2323  0.0566
28580W        W44197   0.848  18.827  12.240  0.3669 -0.3240  0.1073
28581W        W44198   0.105   2.976  10.295 -0.1292  0.1259 -0.2031
28582W        W44199  11.245  10.674  12.522 -0.2287 -0.1176 -0.4051
28583W        W44200   3.030   6.467   4.604  0.0296 -0.1186 -0.2011
28584W        W44201  18.452   2.684  12.104 -0.3609 -0.2236  0.2687
28585W        W44202   7.013  13.246   5.506  0.0756 -0.1028  0.5174
28586W        W44203  18.588   9.189  13.737  0.0080  0.1610  0.5556
28587W        W44204   8.657  18.811  11.137 -0.0785  0.0359 -0.1461
28588W        W44205  18.772   3.713   0.577  0.1088  0.3450  0.0027
28589W        W44206   5.659   6.063   4.593 -0.1744  0.0500  0.0250
28590W        W44207  12.046  12.745  14.158 -0.1040  0.3252 -0.0052
28591W        W44208  17.419  12.588  12.302  0.2070 -0.2934  0.2685
28592W        W44209   5.252  14.741   0.207 -0.0302  0.0698  0.0701
28593W        W44210   3.353  18.817  12.431 -0.1949  0.0822 -0.2934
28594W        W44211   7.918  11.144   9.628 -0.3056  0.1485 -0.0815
28595W        W44212   3.460  16.509  12.167  0.0880  0.2035 -0.0352
28596W        W44213   4.234   5.514   0.601  0.1832 -0.3659  0.3161
28597W        W44214  11.005   7.486  10.965  0.0243  0.2420  0.1425
28598W        W44215  15.957   6.308   0.833 -0.0071 -0.2391 -0.3464
28599W        W44216  13.435  11.178   4.888 -0.2305 -0.1962  0.0035
28600W        W44217   9.018   4.787  13.256 -0.0647 -0.1188  0.1692
28601W        W44218  11.333  16.652   2.852 -0.1351 -0.2266  0.2432
28602W        W44219  18.991  17.186   4.548 -0.0103 -0.4375 -0.1716
28603W        W44220  10.846   0.123   0.696  0.0273  0.1036  0.0076
28604W        W44221  12.619   4.724   2.892 -0.0058  0.1320 -0.3899
28605W        W44222  12.004  12.587  12.569  0.0090  0.0242 -0.0324
28606W        W44223  18.764   8.239   9.562 -0.0466  0.3283 -0.2093
28607W        W44224  16.215   5.498   3.821  0.1163 -0.3439  0.3287
28608W        W44225   1.984   1.973   2.919  0.0450  0.1255 -0.2609
28609W        W44226   1.039  18.246   0.289 -0.4123 -0.1935  0.0071
28610W        W44227   1.840  13.148  13.003 -0.2356 -0.2721 -0.0616
28611W        W44228   1.585   6.174  12.603 -0.1938 -0.0094 -0.0256
28612W        W44229  11.006  14.700  10.835  0.1104  0.0792 -0.0971
28613W        W44230   3.598  16.248  10.576  0.1677 -0.1897  0.2210
28614W        W44231   5.988  14.833   1.982 -0.0296 -0.2952 -0.2459
28615W        W44232  14.531  18.293   0.639 -0.1404 -0.1794  0.1866
28616W        W44233  15.047  18.852  12.615 -0.0755 -0.3295 -0.0477
28617W        W44234  12.845  12.308   4.691 -0.1800 -0.1053 -0.2628
28618W        W44235   1.955   5.008   1.150  0.3965 -0.0618 -0.0229
28619W        W44236  14.292  12.956   0.353 -0.0345 -0.2457  0.0926
28620W        W44237  11.176  17.613   4.824  0.2069  0.2556  0.1703
28621W        W44238  14.426  11.067   1.259 -0.3288 -0.4588 -0.1812
28622W        W44239   7.455   8.796   2.745 -0.1772  0.1091  0.1642
28623W        W44240   6.152  12.870   1.902 -0.2438 -0.0571  0.2334
28624W        W44241   6.084  18.085  10.675 -0.2865 -0.2814  0.0675
28625W        W44242  12.153  15.608   4.265  0.1895  0.2519  0.2052
28626W        W44243  16.583   9.654   2.706  0.2834  0.0446  0.1405
28627W        W44244   7.758   0.569  15.083  0.1220  0.1242 -0.0848
28628W        W44245   6.129  13.585   4.372 -0.0178 -0.0991  0.1269
28629W        W44246   1.711  16.613   0.302  0.3045  0.0938 -0.1659
28630W        W44247  13.225   4.679  14.184  0.0354 -0.3467  0.2608
28631W        W44248  10.241  17.103  13.828 -0.0868 -0.0307 -0.1735
28632W        W44249   1.601  18.494  14.924 -0.2701 -0.0407  0.1760
28633W        W44250  10.123   3.338  11.622 -0.0003 -0.3067 -0.1041
28634W        W44251   2.878   2.385   1.220 -0.0675 -0.2613 -0.1314
28635W        W44252  18.615  18.369  10.840 -0.1052  0.0650 -0.0180
28636W        W44253  11.905   0.016   4.293 -0.2387  0.4121 -0.4558
28637W        W44254  18.185  18.118  14.139  0.1565  0.0162 -0.0121
28638W        W44255   7.669   7.344   4.823  0.1077 -0.0552  0.3497
28639W        W44256   9.767  13.281   0.113 -0.2923 -0.0414  0.0662
28640W        W44257  16.216  11.479   2.201 -0.0923 -0.3339  0.1358
28641W        W44258   5.675  13.065  14.693  0.1313  0.1871 -0.1053
28642W        W44259  12.511   6.664   3.518 -0.3546 -0.0681  0.1870
28643W        W44260  16.210   5.381   2.330 -0.0732 -0.0967  0.2362
28644W        W44261  10.292   6.271  14.512  0.3410 -0.2078  0.1186
28645W        W44262  14.361   2.200   3.635 -0.3319 -0.1837 -0.1493
28646W        W44263   1.572  17.547   2.867  0.1527  0.1096  0.0880
28647W        W44264   0.905  12.109   4.406  0.1197  0.1763  0.1535
28648W        W44265   0.097  15.150  10.431 -0.2650  0.0440 -0.1417
28649W        W44266   7.650   7.823  14.533 -0.0899  0.0586  0.2387
28650W        W44267   0.766  11.222   1.285 -0.0582 -0.2492  0.1436
28651W        W44268   9.349   6.929  12.753  0.2685 -0.0360  0.1074
28652W        W44269  14.906   6.822  11.858  0.2765 -0.1238 -0.2253
28653W        W44270   3.479  16.244   2.414 -0.0749 -0.0678 -0.0732
28654W        W44271   0.793  12.920  13.981  0.3523  0.3551 -0.0684
28655W        W44272  17.675  18.028  14.991 -0.1988 -0.2329  0.0371
28656W        W44273   8.245   5.676  12.420 -0.0281 -0.1072  0.1974
28657W        W44274   3.790  14.939   2.187  0.4646 -0.0576  0.1753
28658W        W44275   2.986  17.347  10.830 -0.3746 -0.0868 -0.0674
28659W        W44276   8.214  16.362  12.789 -0.1627 -0.4940  0.1295
28660W        W44277   4.755  17.126   3.494 -0.2160  0.0130 -0.1772
28661W        W44278  11.184  16.240  11.656  0.2310 -0.1085  0.0109
28662W        W44279   2.710   0.240   4.874 -0.2055 -0.0017  0.0869
28663W        W44280  19.045   5.144   4.600  0.1186 -0.3202  0.2528
28664W        W44281  11.860   6.383   2.557  0.1465  0.0888 -0.0211
28665W        W44282   5.230  14.654  13.605 -0.0356 -0.2640  0.1627
28666W        W44283  14.622  11.611  14.739  0.2764 -0.2050 -0.0494
28667W        W44284  17.833  10.491   1.938  0.1270  0.1352  0.0889
28668W        W44285  10.776   3.216   2.760 -0.0543  0.0507  0.3776
28669W        W44286   0.874  12.414   1.547  0.3080  0.1682 -0.0500
28670W        W44287   1.225  11.185  15.008 -0.0242  0.3249  0.3609
28671W        W44288  10.284   4.166  12.085  0.0334  0.0256  0.1293
28672W        W44289   2.176   4.181   2.261 -0.3284  0.0234  0.0159
28673W        W44290  15.223   9.876  15.163 -0.0906  0.0475  0.0976
28674W        W44291  11.256  11.365  12.503  0.2914  0.0697  0.0850
28675W        W44292   1.225   9.502  11.142 -0.0706 -0.0275 -0.4762
28676W        W44293   3.823   1.029  10.717 -0.1870 -0.2432 -0.4579
28677W        W44294   0.322  15.714   4.720  0.0318 -0.0550 -0.2858
28678W        W44295   9.228  16.074  14.953  0.0972  0.0692 -0.0480
28679W        W44296  16.722  15.575   3.809  0.0775 -0.0790 -0.0718
28680W        W44297   7.467  18.841   2.766 -0.0439 -0.0989  0.2535
28681W        W44298  18.428  12.875   3.675 -0.2921  0.1134 -0.2445
28682W        W44299  17.109   3.765   4.699  0.0857 -0.0855  0.0830
28683W        W44300  16.020   7.127   0.736 -0.2569 -0.0900  0.1840
28684W        W44301   4.315  15.934   1.517  0.0775  0.0415  0.1150
28685W        W44302  11.848   6.231   3.811  0.0371 -0.3311 -0.1913
28686W        W44303  13.672  11.306   3.003  0.2090 -0.1133 -0.1023
28687W        W44304  10.432  14.111  13.062 -0.1314 -0.0657 -0.0496
28688W        W44305  13.401   8.889   1.314 -0.3786  0.0613 -0.1764
28689W        W44306  11.627   9.572   4.493 -0.0423  0.2724  0.0562
28690W        W44307   4.020  18.488  14.480 -0.0762  0.1753 -0.2466
28691W        W44308   0.519   2.046  12.070  0.2621  0.0495 -0.0633
28692W        W44309  11.340   3.117   4.588  0.0413 -0.1204 -0.1105
28693W        W44310   3.412  15.856   0.913  0.4750 -0.0182  0.1801
28694W        W44311  13.451   7.321  13.156 -0.1542  0.6059  0.0068
28695W        W44312  17.830   1.248  14.898  0.3369  0.1939 -0.0880
28696W        W44313  17.006  14.107   2.028  0.1286 -0.1955  0.0208
28697W        W44314   1.694   5.107  14.276  0.0131 -0.1269 -0.2842
28698W        W44315   6.722   7.187  14.679 -0.1870  0.0806 -0.1114
28699W        W44316  13.945  17.432  12.465 -0.0871 -0.2782 -0.1342
28700W        W44317   8.974   4.479  12.855  0.1492  0.2001 -0.2838
28701W        W44318   2.776   7.449   1.172  0.0866  0.0641  0.1840
28702W        W44319  15.109  17.950   4.159  0.1826 -0.3122 -0.0670
28703W        W44320  10.208  13.492  12.577  0.4361 -0.1180  0.0262
28704W        W44321   0.357   0.434   4.694 -0.1387  0.1157  0.0820
28705W        W44322   6.061   4.871  11.834  0.1158 -0.2204  0.2997
28706W        W44323   9.919  18.511  10.426  0.3627  0.4096  0.0211
28707W        W44324   2.660   6.163   3.672 -0.0963 -0.3456  0.2036
28708W        W44325  14.681  12.087  13.769 -0.3297  0.0601 -0.0735
28709W        W44326   1.996   5.589  14.387 -0.1445  0.1470  0.2098
28710W        W44327   8.567   8.349   1.244  0.2095 -0.0681  0.3125
28711W        W44328   8.652  15.218  13.666 -0.2156 -0.0388  0.0683
28712W        W44329   0.670  12.471   1.025 -0.2018  0.0296  0.0083
28713W        W44330  12.675  15.142   3.654 -0.0418 -0.0107  0.2834
28714W        W44331   2.792   0.853  14.046 -0.2042 -0.0267  0.1171
28715W        W44332  17.897   0.900   3.505 -0.2665  0.2559 -0.0839
28716W        W44333   8.407   5.912  10.499  0.2695 -0.2874  0.0368
28717W        W44334   1.550   7.347  11.786 -0.1255 -0.0776  0.1317
28718W        W44335   3.208  15.115   5.037  0.0786 -0.1690 -0.2384
28719W        W44336   4.408   5.879  12.961 -0.5326  0.0328 -0.3874
28720W        W44337   0.792   8.634   1.283  0.1785  0.1643 -0.0535
28721W        W44338  17.894  11.005   0.089  0.0551  0.0323 -0.1717
28722W        W44339   6.000  11.363  14.234  0.0279  0.3944 -0.0703
28723W        W44340  14.110  18.389  14.106 -0.3105 -0.3159 -0.1032
28724W        W44341   0.878   8.011   3.095 -0.4309  0.2932  0.0219
28725W        W44342   4.612  13.365  12.576  0.0096  0.0334  0.2286
28726W        W44343  18.927  11.037  10.793 -0.1908  0.0290 -0.2076
28727W        W44344  14.249   8.546  12.299 -0.1020 -0.2455  0.0171
28728W        W44345   1.628  10.810  10.642 -0.1623  0.0535  0.1482
28729W        W44346   0.987   4.751   4.569 -0.0506  0.3659  0.1421
28730W        W44347  10.830   7.208   5.004  0.1429  0.0793 -0.2417
28731W        W44348  18.360   2.372   1.095 -0.1539  0.2897 -0.1497
28732W        W44349  17.224   2.162  10.457  0.1036  0.1485 -0.1574
28733W        W44350  16.120   9.810  10.016 -0.0010  0.1849  0.1646
28734W        W44351  18.639   5.351   1.037 -0.1889 -0.1729  0.0195
28735W        W44352  10.382   6.011  11.345 -0.0470  0.3069 -0.1800
28736W        W44353  17.783   2.282   0.001  0.0674  0.0627  0.0615
28737W        W44354  18.188  13.616   1.046 -0.0281 -0.1665  0.1887
28738W        W44355   3.824  13.418   1.368 -0.0362 -0.0737  0.0672
28739W        W44356  11.061  12.071   3.595  0.0995  0.0130 -0.3320
28740W        W44357   7.474   5.842  10.565  0.0854  0.1683  0.2595
28741W        W44358   3.456   5.307  14.481  0.2561 -0.0601 -0.0072
28742W        W44359   2.304  16.599   2.158  0.1092  0.2098  0.0898
28743W        W44360  14.200   5.703   2.048 -0.0217 -0.1057  0.0353
28744W        W44361   2.691  10.604   0.259  0.1405  0.1813 -0.3012
28745W        W44362   2.768  12.418   3.677 -0.4843  0.0762 -0.0877
28746W        W44363   9.335   0.277   3.323  0.2164 -0.5276 -0.1229
28747W        W44364  12.198   5.076  11.254  0.1509 -0.1417  0.2373
28748W        W44365  18.489   2.805   0.826  0.3684 -0.2600 -0.3811
28749W        W44366   5.665   0.102  13.650  0.2019 -0.1941  0.2543
28750W        W44367  11.710   7.611   2.343 -0.5172  0.1696  0.1826
28751W        W44368  15.992  13.290  10.637 -0.2705  0.2867 -0.0347
28752W        W44369   7.596   6.335  13.420  0.1460 -0.2208  0.0600
28753W        W44370   5.119   0.951   5.059  0.4153 -0.0152  0.1293
28754W        W44371  12.797   4.877   0.673 -0.0698 -0.0766  0.2178
28755W        W44372   1.099   2.357   3.890 -0.1528  0.0931  0.2047
28756W        W44373   4.166   8.211   1.797  0.2224  0.6427  0.0678
28757W        W44374   5.983   7.631  13.332 -0.2417 -0.1070 -0.0155
28758W        W44375   9.799   5.164   0.587 -0.1052  0.2836 -0.1851
28759W        W44376   1.666   1.239   4.037 -0.1281 -0.0323 -0.2506
28760W        W44377  13.222  13.336   2.728  0.0324  0.0757  0.3151
28761W        W44378   6.049   8.588  11.789  0.1885  0.2089 -0.4428
28762W        W44379   9.911  18.379   1.303 -0.0471 -0.0394 -0.1144
28763W        W44380   3.865  15.115  11.173 -0.0719  0.2023  0.3234
28764W        W44381   9.988  15.276   3.915 -0.3557  0.2241 -0.1550
28765W        W44382  15.253  10.858  12.003 -0.0249 -0.1063 -0.1340
28766W        W44383   7.748  17.668   1.248 -0.2451  0.2582 -0.0888
28767W        W44384  17.666  10.857   4.527 -0.0875  0.3999  0.2372
28768W        W44385  18.100   0.157  12.976 -0.3104  0.0763  0.3835
28769W        W44386   9.891  17.302   1.635  0.2546  0.2184  0.2921
28770W        W44387  10.823  16.062   3.357 -0.2152 -0.1190 -0.0515
28771W        W44388  10.116   3.973  13.584 -0.0465  0.1528 -0.0083
28772W        W44389  17.412  16.200   4.944 -0.0929 -0.1075  0.2290
28773W        W44390  10.048   6.927  13.472 -0.0759 -0.1999  0.2414
28774W        W44391   0.229  13.455  13.797 -0.0362  0.1077  0.1889
28775W        W44392   6.200  17.401   2.460 -0.4268 -0.0037  0.1669
28776W        W44393  17.044  19.059  10.434  0.0317 -0.0133  0.0361
28777W        W44394   1.006   4.766   0.635  0.0319  0.2242  0.1958
28778W        W44395  16.405   2.222   1.576 -0.1344 -0.2283 -0.2799
28779W        W44396   0.920  10.694  14.902 -0.1697  0.2214 -0.0645
28780W        W44397  19.047  17.108  13.986 -0.0168  0.0750  0.0863
28781W        W44398   8.666  18.150   4.902 -0.1953  0.1741  0.1529
28782W        W44399  14.697  10.753   3.894  0.2315 -0.1073 -0.1586
28783W        W44400   1.117   4.535  14.942  0.2892 -0.0235 -0.0424
28784W        W44401  13.706   7.760   5.014  0.0984 -0.2776 -0.0879
28785W        W44402  18.931   5.302   2.547 -0.3238  0.0914 -0.3580
28786W        W44403   5.988   8.635   4.569  0.0198  0.1587  0.3242
28787W        W44404   3.366  19.001   3.044  0.0622 -0.1299  0.2034
28788W        W44405   1.440  13.050   1.334 -0.3198 -0.0710  0.6210
28789W        W44406   2.221  17.522   4.566 -0.1235  0.2706  0.2422
28790W        W44407  12.417   6.932  14.974  0.1823  0.3841  0.1454
28791W        W44408   2.120  12.470   5.488  0.3454  0.4816 -0.3288
28792W        W44409  16.255   4.425   0.716  0.3416  0.0195  0.0879
28793W        W44410  12.474   1.686   5.623  0.2000 -0.1424 -0.0673
28794W        W44411  10.263   9.887   1.578 -0.0752 -0.0382  0.1294
28795W        W44412   0.384  17.356  13.853  0.1578 -0.1357 -0.0078
28796W        W44413   5.722   1.308   3.196  0.0168  0.2101 -0.1111
28797W        W44414  14.533   6.394   3.175 -0.1333 -0.0087  0.0968
28798W        W44415   1.733   3.900  15.249  0.0824  0.1738 -0.2388
28799W        W44416  14.135  11.384  12.977  0.1378 -0.2812 -0.3173
28800W        W44417   5.316  10.604  14.763 -0.0248  0.1835 -0.1608
28801W        W44418  10.029   5.836  13.433 -0.0539  0.1943 -0.4288
28802W        W44419  18.868   9.203   0.881 -0.2167  0.1704  0.0893
28803W        W44420   0.881   6.905   1.505 -0.0045  0.0875  0.3840
28804W        W44421  17.830  12.011   0.329  0.3853  0.1320  0.1299
28805W        W44422  17.470  16.168  11.010 -0.2502  0.1034  0.1157
28806W        W44423   8.713  18.051   1.094  0.0723  0.1799 -0.0507
28807W        W44424  14.988   8.555  10.784  0.0243 -0.1334 -0.1897
28808W        W44425   7.172   0.977  14.213 -0.1981 -0.1398 -0.3150
28809W        W44426   6.873   3.677   0.650 -0.0999 -0.1493  0.0384
28810W        W44427  17.724  16.749   0.176  0.1104  0.2645 -0.0789
28811W        W44428   7.195  11.600   5.589  0.0676 -0.0733  0.0576
28812W        W44429   2.501   3.952  12.187 -0.2519 -0.1572  0.1239
28813W        W44430   7.180   5.991  12.289  0.0471  0.2147  0.0002
28814W        W44431  18.321  17.542  12.157  0.0739 -0.1650 -0.0178
28815W        W44432   5.774   9.556  11.458  0.0862  0.0301  0.0960
28816W        W44433  15.744   3.975  13.097 -0.1541 -0.2505 -0.1851
28817W        W44434  10.874   1.451   4.830 -0.0892 -0.0451  0.1410
28818W        W44435  17.512   8.038  13.673 -0.1211 -0.3494  0.0140
28819W        W44436   1.595  12.882   4.566 -0.1823 -0.0481 -0.0277
28820W        W44437   1.219  12.220   5.520  0.1189  0.2538  0.0042
28821W        W44438  10.786   2.420   9.824  0.0885 -0.1310  0.1272
28822W        W44439  16.348  11.580   4.036 -0.1943  0.2653  0.4431
28823W        W44440   6.272  13.994  15.075 -0.3117  0.2004 -0.0510
28824W        W44441  15.895  17.192   2.430  0.0188 -0.1530  0.1763
28825W        W44442   0.399   6.540  15.121 -0.1507  0.1630 -0.1431
28826W        W44443   1.992  14.611   2.593  0.2313 -0.0862 -0.0915
28827W        W44444  17.819   8.303  14.132 -0.0064 -0.3112  0.1769
28828W        W44445  11.617  13.493   0.955 -0.0321  0.2253  0.0780
28829W        W44446   6.516   9.757   1.700  0.2269 -0.2740 -0.3164
28830W        W44447  11.978  10.997   3.156 -0.2602  0.0386 -0.0069
28831W        W44448  14.087  15.296   3.445 -0.1042 -0.2012 -0.1448
28832W        W44449   5.717  16.011  14.805 -0.0022 -0.0419  0.1625
28833W        W44450   0.416  18.765   2.136 -0.3403 -0.2135  0.1431
28834W        W44451  16.413   7.737   0.062 -0.0596 -0.0062  0.0603
28835W        W44452   5.765  14.819  13.396  0.2067 -0.0136 -0.2022
28836W        W44453   8.939  13.631  12.013 -0.0112 -0.4708  0.1363
28837W        W44454   4.991   4.985   2.985  0.0017 -0.1704 -0.2734
28838W        W44455  15.393  12.511   1.114 -0.0445 -0.0174  0.2618
28839W        W44456  16.152   9.314   4.276 -0.1067  0.1370  0.2256
28840W        W44457   4.218  17.461  10.865  0.1929 -0.2367  0.0852
28841W        W44458  11.558   7.390   3.844  0.2894  0.1307  0.0799
28842W        W44459  17.055   7.796  11.065 -0.0257 -0.1494 -0.1270
28843W        W44460   4.536  18.764  13.870  0.2732  0.3437  0.2339
28844W        W44461  17.858  13.360   3.443 -0.0437 -0.0285 -0.1263
28845W        W44462  10.564   8.380   0.781 -0.3024  0.0013  0.0368
28846W        W44463   8.699  13.767   5.456 -0.1212 -0.1509  0.3097
28847W        W44464  14.648  18.082  15.114 -0.1337 -0.0134 -0.1084
28848W        W44465  16.418  10.028   2.371 -0.2906 -0.1089  0.3088
28849W        W44466  19.007   3.974   0.936 -0.2522 -0.0924  0.1878
28850W        W44467  15.298  15.486   0.292 -0.3048  0.1062  0.2930
28851W        W44468   7.279   9.813  10.408 -0.0020  0.2140  0.1997
28852W        W44469   3.621   3.355  12.347  0.0664  0.2731 -0.0205
28853W        W44470   7.774  14.172   5.374  0.1272 -0.1887  0.0270
28854W        W44471   2.767  14.211  14.864 -0.1146  0.0118  0.1264
28855W        W44472  18.690   3.616   1.372  0.2422 -0.1091  0.2512
28856W        W44473  13.608   4.671   0.580  0.2511  0.0319 -0.3270
28857W        W44474   6.001   6.886   3.333  0.0019  0.0664  0.3284
28858W        W44475  19.074   3.209   4.436 -0.2992  0.6621  0.1150
28859W        W44476   3.411  18.236  12.785 -0.2458 -0.1179  0.4240
28860W        W44477   1.247   8.259   3.306 -0.2708  0.1439  0.0024
28861W        W44478   4.418  11.983   0.015  0.1130 -0.1383 -0.0528
28862W        W44479   7.524  17.516   1.714  0.1369  0.3638  0.0619
28863W        W44480  12.844   9.148   9.215  0.0852 -0.0462  0.2105
28864W        W44481  17.779  11.417  11.695 -0.1284 -0.4063 -0.0252
28865W        W44482   0.061   7.174   2.880  0.1093  0.1739  0.3918
28866W        W44483  14.718   0.797  10.010 -0.1597 -0.0569  0.0008
28867W        W44484   9.315  14.676  12.455 -0.1255  0.1457 -0.0617
28868W        W44485  16.752   0.902   1.544 -0.1121  0.0555 -0.1253
28869W        W44486   2.776   6.059   3.197  0.2280 -0.0817  0.1260
28870W        W44487  17.367   6.628  11.320 -0.1199 -0.1473 -0.1259
28871W        W44488  12.444   3.643  13.413 -0.2306 -0.1818  0.1680
28872W        W44489  15.927   6.132  10.956 -0.1141 -0.1347  0.2203
28873W        W44490   1.708  11.550  13.230  0.1192 -0.1175  0.3218
28874W        W44491   2.015   5.148  12.079 -0.2153 -0.0857  0.0142
28875W        W44492   2.142   3.026  10.535 -0.0427  0.1110  0.2637
28876W        W44493   6.261  15.571   2.535 -0.0760  0.0734  0.1255
28877W        W44494  12.220   0.113  12.263  0.1118  0.1659 -0.0661
28878W        W44495  14.290   1.146   0.526 -0.0694 -0.1712  0.3273
28879W        W44496  13.918   6.404   0.564 -0.0879 -0.0223  0.1232
28880W        W44497   2.651   5.444  11.052 -0.1386  0.2557  0.0298
28881W        W44498   2.776   0.354  14.909 -0.0304  0.2474 -0.0683
28882W        W44499  13.705   2.756   1.036 -0.2872  0.2988 -0.0225
28883W        W44500   1.439  11.271  13.646  0.2219  0.0988  0.1799
28884W        W44501  18.820  14.297   9.877 -0.3796 -0.0092 -0.0659
28885W        W44502   4.550   2.634   0.490 -0.1245 -0.3123  0.0196
28886W        W44503   1.586  19.009   2.240  0.0253  0.0122  0.1781
28887W        W44504  18.270  14.759   3.976 -0.0506 -0.3004  0.2769
28888W        W44505  12.359   3.602  14.781 -0.1780  0.1598 -0.0405
28889W        W44506  14.977  17.954  13.804  0.0405  0.0836  0.1525
28890W        W44507   1.713  18.725   0.768 -0.1179  0.1129 -0.2807
28891W        W44508   1.363  13.937   2.754  0.0672 -0.0222 -0.2068
28892W        W44509   3.748  15.085   3.679 -0.1205 -0.0600 -0.0426
28893W        W44510  15.128   9.830  14.211  0.2114 -0.0012 -0.0529
28894W        W44511  12.087   7.150   3.663 -0.1066 -0.0412  0.2122
28895W        W44512   3.614  12.656  11.251 -0.1450  0.2064 -0.1514
28896W        W44513   7.357  17.919   0.059 -0.1755  0.0742  0.2104
28897W        W44514   6.756   1.491  14.843 -0.0114  0.4480 -0.2788
28898W        W44515   9.421  10.479  12.914 -0.1000 -0.0311 -0.1460
28899W        W44516  18.295  18.898   5.231 -0.1660  0.0245 -0.0505
28900W        W44517   8.339   8.313  14.742 -0.0495 -0.0086 -0.1401
28901W        W44518   0.511  11.692  14.143  0.2196 -0.3150 -0.2337
28902W        W44519  14.343  11.344  13.521 -0.0133 -0.1055  0.0789
28903W        W44520  17.241   0.822   5.873 -0.1665 -0.1703  0.0953
28904W        W44521  10.085  17.803   5.040  0.1020  0.0194 -0.2070
28905W        W44522   3.533   6.146   0.700  0.1109 -0.3054  0.0825
28906W        W44523  17.520  10.543   1.551  0.0680 -0.0828  0.0698
28907W        W44524  16.061  16.734  14.351  0.1186  0.0907  0.1815
28908W        W44525   5.522   9.657   1.886 -0.3358  0.1750  0.1141
28909W        W44526   9.679   1.137   4.586 -0.1718  0.1660 -0.0244
28910W        W44527   6.665  17.355   5.729 -0.1692 -0.3996 -0.2142
28911W        W44528  18.150   9.605  12.134 -0.0285  0.1116 -0.1670
28912W        W44529  15.244  15.916  10.757  0.2127  0.5123 -0.3021
28913W        W44530  12.299   7.056  11.094  0.2794  0.1498  0.3102
28914W        W44531   2.452  12.132   0.621  0.0735 -0.0247 -0.0530
28915W        W44532   2.221  16.721  14.577  0.1596 -0.1461  0.1642
28916W        W44533  12.763  15.748  14.098  0.1138 -0.2986 -0.0336
28917W        W44534  16.550  13.651  14.128  0.0672  0.2094 -0.3171
28918W        W44535  13.164  12.113   4.417  0.1869  0.1948  0.1904
28919W        W44536   9.288  15.735  13.482 -0.0011  0.0887  0.0671
28920W        W44537   3.183  17.533   1.004  0.0627 -0.2690  0.0854
28921W        W44538   1.928  14.026  11.569  0.1564  0.1397 -0.0762
28922W        W44539   2.374   3.291   5.196  0.1480 -0.0956 -0.0691
28923W        W44540   7.738  16.565  13.859  0.1449 -0.1217  0.0390
28924W        W44541   3.638   6.128   1.903 -0.2056  0.2532  0.2969
28925W        W44542   1.906   8.315   2.214 -0.1389  0.4852  0.0794
28926W        W44543  10.380   7.074   0.638 -0.0462  0.3142  0.1636
28927W        W44544  12.198   3.722  11.264 -0.0425 -0.4331 -0.2292
28928W        W44545   4.999   3.628  15.156  0.0717  0.1969 -0.2269
28929W        W44546   6.494  12.878   3.428  0.0973 -0.1820 -0.0209
28930W        W44547   0.715  13.460   4.974  0.0625  0.2915  0.0479
28931W        W44548   0.398   4.952   2.054  0.3180 -0.0166 -0.0274
28932W        W44549   4.019   3.019   2.175  0.2630 -0.0308  0.2411
28933W        W44550   0.667   7.393  12.714  0.0660 -0.0817 -0.2388
28934W        W44551   7.959   9.470  12.218 -0.1910  0.2387 -0.0751
28935W        W44552  13.211  15.989  12.493 -0.1730 -0.3514  0.3959
28936W        W44553   2.265   0.482   1.716  0.3508 -0.4195  0.1162
28937W        W44554   7.653  18.042  11.261  0.2658  0.0759 -0.1596
28938W        W44555  13.589   2.577  10.712  0.2017  0.2664 -0.4068
28939W        W44556   9.249   0.388   2.040 -0.1722 -0.1658 -0.1692
28940W        W44557   0.627  16.979  13.552  0.0670 -0.1186 -0.1015
28941W        W44558  16.544  17.912  10.776  0.0333  0.0281 -0.0231
28942W        W44559  11.866   9.529   1.706  0.0750 -0.2875 -0.2732
28943W        W44560  12.465  11.439   3.774  0.0946  0.0076  0.2936
28944W        W44561   0.129  12.059  12.249  0.0093  0.2789 -0.2664
28945W        W44562  18.772  16.480   1.965 -0.0056  0.1746 -0.0838
28946W        W44563  15.661  11.726   1.532  0.1712 -0.1925 -0.0151
28947W        W44564   6.867   5.236  11.037 -0.1342 -0.2323  0.3803
28948W        W44565  14.558  15.656   1.911 -0.3702 -0.1920 -0.2246
28949W        W44566   8.233  13.506   2.816 -0.2592  0.2279  0.0638
28950W        W44567  16.721  10.004   1.446  0.0880  0.0147 -0.0264
28951W        W44568   1.708  17.777  13.252 -0.0407 -0.1705 -0.1591
28952W        W44569  16.752  10.504  12.932 -0.0570  0.2436 -0.2556
28953W        W44570   6.043  16.407  12.201 -0.0393  0.1100  0.1464
28954W        W44571  12.724   9.521  10.425  0.1037  0.2174  0.3378
28955W        W44572  17.440  12.749  14.945  0.0898  0.1130  0.1774
28956W        W44573  14.275  17.653  10.680  0.2206 -0.2673 -0.0096
28957W        W44574   2.586  10.019   2.385 -0.1216 -0.0007 -0.2371
28958W        W44575  15.596  16.213   5.841 -0.2324 -0.0942 -0.0700
28959W        W44576   0.192  10.009  10.239  0.0237  0.2129 -0.0269
28960W        W44577  11.912  15.518  13.665 -0.1206 -0.1775 -0.2273
28961W        W44578  17.784  15.598  10.493  0.3211 -0.0823 -0.0466
28962W        W44579   1.141  12.847  13.591 -0.0257 -0.0133 -0.4161
28963W        W44580  12.010   5.691  14.517  0.1015  0.2409 -0.0550
28964W        W44581   4.817   0.997  14.299  0.2648  0.0101  0.1202
28965W        W44582   6.885   3.393   2.746  0.0092  0.0533  0.0165
28966W        W44583  12.799  14.501   2.215 -0.2620  0.0389 -0.2933
28967W        W44584  18.129   6.604   1.000  0.0975 -0.3912  0.0948
28968W        W44585   7.016  16.166  12.622 -0.1978  0.1196  0.1110
28969W        W44586   6.324   7.283  12.979 -0.1881 -0.2670  0.0852
28970W        W44587  16.216  10.188   5.656 -0.0168 -0.0297 -0.0335
28971W        W44588   9.546   8.496  11.378 -0.4314  0.1651  0.5421
28972W        W44589   8.016   2.220  14.598 -0.3091  0.1193  0.2925
28973W        W44590   4.522   0.861  13.903 -0.0496  0.5845 -0.1318
28974W        W44591   0.685   3.446  13.298  0.2541 -0.0230 -0.1794
28975W        W44592  10.933   6.385   3.561 -0.1622 -0.0905  0.3069
28976W        W44593  17.145  17.789  13.459 -0.2447 -0.0951  0.0223
28977W        W44594  18.185  15.821   4.667  0.1817 -0.0808  0.3080
28978W        W44595  18.228  16.815   1.159  0.0803  0.1286 -0.0282
28979W        W44596  17.321   1.736   1.766  0.0364  0.2333  0.0922
28980W        W44597   2.509   7.344  12.850 -0.2494  0.0163 -0.0657
28981W        W44598  12.323  10.965   3.794 -0.1497  0.1105  0.1845
28982W        W44599   3.611  12.663   2.760  0.1160 -0.3178 -0.0792
28983W        W44600   6.585  14.373   3.079 -0.0443 -0.0261  0.0180
28984W        W44601  15.857   8.710   2.073  0.1443 -0.1524 -0.0884
28985W        W44602  11.691   4.355  14.632 -0.0044 -0.1657  0.1964
28986W        W44603  13.353   0.329  12.109 -0.3710  0.0302  0.0594
28987W        W44604  13.804   2.360  11.923  0.1679 -0.2008  0.0673
28988W        W44605   7.873  18.813  10.803 -0.2621 -0.0761  0.0248
28989W        W44606  14.625  13.652   4.044  0.1396  0.0737 -0.0036
28990W        W44607   1.204   4.773   5.145  0.1592  0.0725 -0.0768
28991W        W44608  14.077  17.407   3.333  0.0305  0.0361  0.2390
28992W        W44609   6.101   9.511   3.436  0.0309 -0.0747 -0.0295
28993W        W44610   9.106  10.717  13.966  0.1954 -0.1651  0.3037
28994W        W44611  11.087   4.813  12.884  0.2546  0.1838  0.2455
28995W        W44612  13.659   1.783  14.925  0.0175  0.1244  0.6452
28996W        W44613   0.018   4.438   3.704  0.0306  0.3301  0.1512
28997W        W44614   7.664  12.217   4.080  0.0176 -0.1353  0.2871
28998W        W44615  11.669   8.101  12.300  0.0590  0.1377  0.2596
28999W        W44616  18.324   5.236   3.658 -0.2469 -0.1308 -0.2181
29000W        W44617   9.191   3.148  12.629 -0.3058 -0.1592  0.1690
29001W        W44618  18.372   9.495   2.646 -0.0326 -0.0001  0.0705
29002W        W44619   8.857  12.264  12.296 -0.0461 -0.0410 -0.3051
29003W        W44620   2.239   4.002   4.127  0.0577 -0.2145  0.0322
29004W        W44621  16.398  10.241   2.932 -0.3398 -0.0828  0.1258
29005W        W44622  11.842   8.577  10.213 -0.0894  0.4308  0.1580
29006W        W44623   1.199   1.755  10.753  0.0232 -0.0674  0.0725
29007W        W44624  15.701   5.644  10.605 -0.2121 -0.1162 -0.3195
29008W        W44625   7.126   4.931  10.741  0.1952  0.0166 -0.1670
29009W        W44626   0.321   2.773   5.620  0.2589 -0.0974 -0.0982
29010W        W44627  12.867   4.481   3.348 -0.1188 -0.0785  0.0262
29011W        W44628  12.302   5.783  13.741  0.1443  0.0548  0.0593
29012W        W44629   4.375   4.344   5.138  0.0778  0.1669 -0.3015
29013W        W44630  13.367   7.076  14.856  0.0444 -0.1255  0.1161
29014W        W44631   2.399   4.907   2.625 -0.1658  0.1224 -0.2738
29015W        W44632   7.542  16.106  11.136 -0.2833 -0.0455  0.0747
29016W        W44633  16.412   4.750  10.944  0.2660 -0.0589 -0.1672
29017W        W44634  10.134  18.387   2.263 -0.0017 -0.2671  0.1934
29018W        W44635   4.981   2.574  12.734 -0.2341 -0.0714  0.3183
29019W        W44636  14.974   7.682   3.784  0.0536  0.0214  0.0386
29020W        W44637   9.166   1.638   2.849  0.0508 -0.0382  0.2640
29021W        W44638  11.463  11.925   4.434  0.4430  0.0287 -0.1966
29022W        W44639   3.127   0.877   1.296 -0.0446  0.2264  0.1876
29023W        W44640   6.824   2.027   4.792 -0.1737 -0.1419  0.1002
29024W        W44641  14.078  17.916  14.341 -0.1517 -0.1679  0.1150
29025W        W44642   6.623   5.752   1.650 -0.2819 -0.3308 -0.1603
29026W        W44643   9.720   5.680  12.424  0.2481 -0.2435 -0.1072
29027W        W44644  14.910   5.500   3.551  0.0570  0.0424  0.1428
29028W        W44645   7.961   5.405   0.914  0.2000 -0.0003  0.4944
29029W        W44646   5.157   4.586  11.779 -0.4249 -0.1677  0.0905
29030W        W44647   6.449   8.317  10.704 -0.3633  0.2389  0.0660
29031W        W44648   5.363  16.038   5.966 -0.1752 -0.0934  0.0351
29032W        W44649   6.415  14.316  11.314  0.1256  0.2423  0.2748
29033W        W44650   5.106  18.051   3.628 -0.0099 -0.1605  0.0669
29034W        W44651   2.331   2.033   2.519  0.1742  0.0320 -0.0330
29035W        W44652  17.152   0.400  10.751  0.3347  0.2350  0.0136
29036W        W44653  18.979  19.042  10.865 -0.2359 -0.1371 -0.2734
29037W        W44654  10.022  18.635  12.510 -0.0750 -0.1135  0.0246
29038W        W44655   6.462   2.393   4.702  0.0877 -0.0378  0.2205
29039W        W44656   9.535  18.721  10.798 -0.1529  0.2184  0.0331
29040W        W44657   8.748   8.875   2.880 -0.0883  0.0198  0.0743
29041W        W44658  11.961   2.633   4.358 -0.1257 -0.3427 -0.0110
29042W        W44659   0.617   5.397   0.260 -0.3901 -0.1502  0.2105
29043W        W44660   1.905   0.149   3.600 -0.0668 -0.0771 -0.1127
29044W        W44661   0.699  18.269  14.234  0.0055  0.1869  0.1849
29045W        W44662   8.451   0.905   0.413 -0.0672  0.1067  0.0810
29046W        W44663  13.393   2.939   1.933  0.1734 -0.0804  0.0002
29047W        W44664  15.576   7.792   4.938  0.1798  0.0495 -0.1337
29048W        W44665   2.986  10.937   4.925 -0.3140  0.1023  0.0555
29049W        W44666  14.718   3.782   3.398  0.1139  0.2384  0.0374
29050W        W44667  10.251   5.751   2.111 -0.3643 -0.3895  0.0942
29051W        W44668  18.027   6.918   2.203  0.0731  0.3875  0.0831
29052W        W44669   7.814   3.697   4.617  0.1289 -0.1391 -0.1195
29053W        W44670  12.757   3.975  14.692  0.0227  0.0251 -0.1177
29054W        W44671   6.534   1.980  11.509  0.2467 -0.0119  0.0370
29055W        W44672  16.902  13.307  13.869 -0.2250  0.1029 -0.2928
29056W        W44673   6.414  10.435   0.903 -0.2429 -0.0185 -0.0073
29057W        W44674   4.434   5.176  14.218  0.0746  0.0081 -0.0883
29058W        W44675   2.460  17.774   4.216  0.2379 -0.1721 -0.2992
29059W        W44676   1.528  15.626  15.049  0.2163  0.4081 -0.0914
29060W        W44677  10.886   3.153   5.040  0.2418 -0.1729 -0.0083
29061W        W44678   4.501   9.869  11.189  0.0155 -0.0510 -0.0294
29062W        W44679   7.217   3.015   4.782  0.1508  0.0948 -0.0049
29063W        W44680  14.070  18.879   0.572  0.2012 -0.1021 -0.2485
29064W        W44681   9.305  11.288   2.059 -0.0382 -0.1016  0.2188
29065W        W44682  15.905  17.257   4.366  0.1184  0.1756 -0.0102
29066W        W44683  16.205  17.151   3.908  0.0239 -0.0981 -0.0438
29067W        W44684  17.223   1.024   2.898 -0.0309  0.0315 -0.2820
29068W        W44685  16.215   0.791   0.427 -0.0315  0.1199 -0.1566
29069W        W44686  14.660   3.184  11.928  0.0051 -0.0229  0.0417
29070W        W44687   7.014   4.378  14.279  0.2326 -0.1744  0.1188
29071W        W44688   9.016  13.393   3.335 -0.0766  0.0707 -0.3780
29072W        W44689  15.003   8.723   2.491 -0.3557  0.1101 -0.1102
29073W        W44690  15.244   7.256   3.786  0.0956 -0.3143  0.0333
29074W        W44691  10.348   0.973  15.243  0.1277  0.1500 -0.3476
29075W        W44692   1.124   0.842  13.171 -0.5311  0.0189 -0.0183
29076W        W44693   1.822   1.846  12.332 -0.2971  0.0368 -0.2554
29077W        W44694   3.598   1.893   4.713  0.2274 -0.1514 -0.0262
29078W        W44695  14.522   1.117   3.778  0.1125  0.0151 -0.0022
29079W        W44696  13.221   2.575   4.425 -0.0509 -0.0162 -0.2529
29080W        W44697  18.383   5.897   9.580  0.0680 -0.2929  0.2439
29081W        W44698   7.793  10.291   0.617 -0.0851  0.2360 -0.1914
29082W        W44699  11.742   0.385   1.462  0.1859  0.3937 -0.0350
29083W        W44700   3.575   7.490   2.101  0.0590  0.0952 -0.1172
29084W        W44701   1.141  15.942  11.779 -0.1986  0.0567 -0.1802
29085W        W44702   8.663  15.256   0.159  0.2633 -0.0058 -0.2000
29086W        W44703   8.881   2.399  12.562 -0.2982 -0.0951  0.0134
29087W        W44704   5.703   0.008   0.725  0.1620  0.0015  0.3234
29088W        W44705   1.025   0.420   1.198  0.2502  0.0710  0.0335
29089W        W44706   7.368   1.239  12.252  0.0107 -0.2614 -0.1172
29090W        W44707   9.085   4.663   9.617  0.2152  0.0337 -0.3000
29091W        W44708   9.795  17.601   4.498  0.0834 -0.0573 -0.1766
29092W        W44709   5.749   7.359   3.264 -0.1014  0.0280 -0.0463
29093W        W44710   3.743  17.225  10.453  0.1139  0.2666 -0.0799
29094W        W44711  11.626  12.779   3.031  0.1719  0.1499  0.0327
29095W        W44712  15.327  17.602   3.358 -0.0967 -0.1223 -0.0224
29096W        W44713  12.300  13.884   5.569  0.0513  0.2424  0.2636
29097W        W44714   3.869  15.330   3.022  0.2840  0.0760  0.1072
29098W        W44715  10.154   3.813  10.778 -0.2489  0.1773  0.0501
29099W        W44716   6.374   1.125  12.318 -0.2080 -0.0004  0.1623
29100W        W44717   4.455  13.665   3.951  0.0482  0.2079  0.0098
29101W        W44718   1.945  18.738  10.840  0.0260  0.1724 -0.3117
29102W        W44719  11.154   3.568   0.301  0.2707  0.0094  0.1531
29103W        W44720  10.530   9.793  12.988  0.0056 -0.0834  0.1034
29104W        W44721   2.252   2.275  12.802  0.1546  0.2810 -0.2432
29105W        W44722   0.256  16.248  11.258 -0.0008  0.0233  0.2526
29106W        W44723   9.986  11.376  11.963 -0.1909  0.1355 -0.1255
29107W        W44724  10.821  11.299  11.572  0.1795  0.1365  0.0118
29108W        W44725  15.889   6.682   1.894 -0.1248  0.4939  0.4192
29109W        W44726  16.659   4.601   3.551 -0.0573  0.0688  0.1931
29110W        W44727   7.030  16.528  12.960 -0.0064 -0.2800 -0.2262
29111W        W44728   3.518  17.673   4.239 -0.0442  0.0931  0.0196
29112W        W44729   8.063   0.083  10.465  0.1255  0.1006 -0.0981
29113W        W44730  10.157  13.993   5.281 -0.0613 -0.1415 -0.0697
29114W        W44731   9.586   5.518   2.306  0.3180 -0.0604  0.0337
29115W        W44732  11.071   8.727  14.633  0.0965  0.1016  0.3460
29116W        W44733  15.317  10.366  10.325  0.0462 -0.3006 -0.2968
29117W        W44734  10.643  16.062  14.590 -0.1247  0.1143  0.1609
29118W        W44735   7.403   6.675  13.841  0.2143 -0.3081 -0.0179
29119W        W44736   8.846  16.443  11.473  0.0246  0.5512  0.2988
29120W        W44737   8.664   4.844  11.428 -0.2333  0.1270 -0.2230
29121W        W44738   9.782  10.626  10.893 -0.3946 -0.0647  0.1778
29122W        W44739   3.541  10.996   3.451 -0.0014  0.0233  0.1435
29123W        W44740  18.603  18.296  13.884  0.0682  0.0236  0.3100
29124W        W44741  13.281  16.793   4.646 -0.0067  0.1227  0.1959
29125W        W44742   4.200   8.332  10.617 -0.2097 -0.0204 -0.0252
29126W        W44743  14.274  14.624   5.424 -0.1419 -0.3649 -0.0275
29127W        W44744  18.445   4.071   9.468 -0.0475  0.0597  0.1658
29128W        W44745   9.223   2.870  12.133  0.0013 -0.4891 -0.0119
29129W        W44746  10.343   7.786  14.661 -0.3359 -0.0384 -0.3107
29130W        W44747  16.783   0.840  11.192  0.3603  0.0199 -0.0040
29131W        W44748  13.568   8.257   0.603 -0.1250 -0.1243 -0.0313
29132W        W44749  17.463  12.004   9.649 -0.2729 -0.1327 -0.1476
29133W        W44750  13.074  15.776  11.803 -0.0648  0.1531 -0.2297
29134W        W44751  12.497   4.307  14.121 -0.0635 -0.4448  0.1765
29135W        W44752  14.973  12.292  11.950  0.1577  0.0024 -0.0027
29136W        W44753   8.989   2.189  10.406 -0.2076 -0.0459 -0.0586
29137W        W44754   9.457   1.775   4.962  0.4402  0.0365 -0.1548
29138W        W44755   0.136  12.051   3.945 -0.2661 -0.0647 -0.3870
29139W        W44756  15.084   8.208  12.329 -0.0742 -0.1402 -0.0046
29140W        W44757   8.087   2.199   9.879 -0.1321 -0.6243 -0.2135
29141W        W44758  16.341   8.241  11.478 -0.0146 -0.2894  0.0961
29142W        W44759   1.483   7.964   4.189 -0.0972  0.0604 -0.0166
29143W        W44760  15.891   3.711   0.390  0.0847 -0.3462  0.1053
29144W        W44761  15.724  15.384  14.150  0.1350 -0.1023  0.0018
29145W        W44762   6.166   0.545   2.925  0.5173 -0.0755 -0.2491
29146W        W44763   8.949  11.311  12.729  0.2065  0.1590  0.2096
29147W        W44764   6.877   6.995   2.146  0.2826  0.2202 -0.0032
29148W        W44765  11.229  18.741   1.659 -0.1564 -0.2381  0.0812
29149W        W44766  17.719   4.721  11.791 -0.3495  0.1872  0.0589
29150W        W44767   1.806   9.777  14.173 -0.0309 -0.1330  0.2898
29151W        W44768   7.078   9.366  12.559  0.2007 -0.4094  0.2350
29152W        W44769  18.903  11.250   5.045  0.1121  0.1630 -0.2410
29153W        W44770  17.880   8.435  10.466 -0.2150 -0.0445 -0.0030
29154W        W44771  18.523   6.222  11.730 -0.3187  0.0304 -0.1720
29155W        W44772   6.884   4.104  15.186 -0.1290 -0.2981 -0.0906
29156W        W44773   1.861  14.161  14.073  0.0678 -0.0477 -0.2526
29157W        W44774  14.894   3.726  13.326  0.1549  0.2669 -0.3823
29158W        W44775  18.998   4.990   1.349  0.1654 -0.1227  0.2427
29159W        W44776   8.936  14.650  12.884 -0.5142  0.2533 -0.0976
29160W        W44777  13.924  11.892   3.769  0.3035 -0.1330 -0.2115
29161W        W44778   5.323   6.357  15.225 -0.0708 -0.0599 -0.0556
29162W        W44779  10.455  13.559   3.267  0.1129  0.0443  0.1358
29163W        W44780   3.322   8.617   2.120 -0.1968 -0.2367  0.0902
29164W        W44781   3.074   2.737  12.867 -0.4342 -0.0732  0.0780
29165W        W44782  12.521   8.162   1.504 -0.3029  0.3491 -0.2830
29166W        W44783   8.778  13.856   3.402 -0.1125  0.3234  0.2872
29167W        W44784   1.471  17.478  12.349  0.1188  0.1087  0.0161
29168W        W44785   4.819   3.947   2.911 -0.1128 -0.0151  0.0958
29169W        W44786   1.907   1.396  10.128 -0.1564 -0.2205 -0.2307
29170W        W44787  16.800  13.317  12.587  0.1490  0.1158 -0.0605
29171W        W44788   1.170  16.835  14.761  0.3707  0.3667 -0.1749
29172W        W44789  14.965  11.466  15.064 -0.2126  0.2642 -0.3435
29173W        W44790  11.803   8.922  14.795  0.1549 -0.0814  0.2757
29174W        W44791  14.153   9.887   1.763 -0.0834  0.2867 -0.1254
29175W        W44792   5.670  17.299  12.309  0.0925  0.1421 -0.0047
29176W        W44793   5.021  11.350   3.380  0.1339 -0.0941  0.2299
29177W        W44794   6.602  11.685   1.860 -0.1750 -0.2692  0.0202
29178W        W44795  18.607   0.377  11.020 -0.0781 -0.0150  0.1077
29179W        W44796  14.898   6.553   2.860 -0.1799 -0.3195  0.1607
29180W        W44797  10.048  13.273   3.129 -0.1111 -0.1639 -0.1280
29181W        W44798   1.472  16.736   3.228 -0.2217 -0.0219 -0.0345
29182W        W44799   6.258   9.702   0.748 -0.1079 -0.2395 -0.0521
29183W        W44800   7.372   0.310  15.224  0.2908  0.0394 -0.0653
29184W        W44801   7.571   0.587  14.358  0.0888  0.0854 -0.0860
29185W        W44802  18.870   9.597   6.161  0.2132  0.1288 -0.1735
29186W        W44803  11.449  11.455  14.279  0.0183  0.1369  0.0195
29187W        W44804  17.414   0.023   1.083 -0.1218  0.0574 -0.0592
29188W        W44805  18.027   7.709  13.519  0.0878  0.2935 -0.4373
29189W        W44806  12.225  17.587  12.560 -0.0871  0.0624 -0.4398
29190W        W44807  10.085  18.111  13.599  0.4530  0.1184  0.0439
29191W        W44808  14.468   5.681   2.600 -0.0257  0.2259  0.0882
29192W        W44809  15.794   4.017   2.627  0.1109  0.0989 -0.3977
29193W        W44810   5.980  17.033  13.239 -0.2864  0.0934 -0.1074
29194W        W44811  18.730   9.215   2.956  0.1949  0.0694 -0.1585
29195W        W44812   8.998  15.251  10.658 -0.1021 -0.1067  0.1290
29196W        W44813  11.460  10.254  14.802  0.1519  0.1140  0.1986
29197W        W44814  12.719   8.254   3.015 -0.0464  0.1114 -0.0912
29198W        W44815   4.944  18.424  12.633 -0.0822 -0.0303 -0.2980
29199W        W44816   1.321   5.693   4.049  0.1931 -0.0567  0.1814
29200W        W44817  17.925   9.900   9.932 -0.3554  0.0726  0.1446
29201W        W44818  10.651   7.604  11.677  0.2745 -0.6322  0.2592
29202W        W44819  13.234  17.938  11.409  0.0752 -0.0451 -0.1026
29203W        W44820   7.947   1.732   3.488  0.4648  0.2264 -0.2601
29204W        W44821  17.840   7.015  13.387  0.3599  0.1439  0.1245
29205W        W44822   6.196  11.640   4.056  0.0613 -0.0020  0.0700
29206W        W44823  18.615   4.467   0.307 -0.0514 -0.3815 -0.0039
29207W        W44824   9.308   1.492   4.595 -0.1908  0.0930 -0.0732
29208W        W44825   5.270  11.710  11.483  0.0044 -0.1987  0.1226
29209W        W44826   4.349   0.162  13.892  0.0713 -0.2379 -0.4214
29210W        W44827  16.405   4.921  14.522 -0.3272 -0.3189  0.0461
29211W        W44828  10.089  11.851   4.257 -0.4357 -0.3713  0.2304
29212W        W44829   5.296   1.896   1.267 -0.1256 -0.0293 -0.2097
29213W        W44830  16.559   6.277  14.557 -0.1955 -0.1467  0.1334
29214W        W44831   2.727  11.357  12.788 -0.2249 -0.1058 -0.1661
29215W        W44832   1.119   5.571  12.152  0.0543 -0.3380 -0.1323
29216W        W44833  18.227   1.174   2.402 -0.0487 -0.0158  0.2119
29217W        W44834   4.195   7.502  13.832  0.0825 -0.1280  0.0645
29218W        W44835  13.926   8.587  10.983 -0.2269  0.1712  0.0884
29219W        W44836  11.654  15.373   4.455  0.2939 -0.0137 -0.0517
29220W        W44837   1.183  13.977   2.233 -0.1297 -0.2602 -0.3582
29221W        W44838  12.190  16.141  12.690 -0.1712  0.2084  0.1018
29222W        W44839   8.206   6.619  10.583 -0.0285  0.0715 -0.2516
29223W        W44840  17.593  15.366  13.135  0.1443  0.0618  0.2778
29224W        W44841   3.814   7.888  12.291 -0.0656  0.1123 -0.0924
29225W        W44842   6.343  13.092  13.050 -0.2465 -0.1391  0.0449
29226W        W44843  16.691   4.131  12.047  0.0061 -0.2648 -0.1271
29227W        W44844  10.440  17.294   0.291 -0.5631 -0.0090 -0.0498
29228W        W44845  14.475   0.393   2.833  0.0230  0.1140  0.0107
29229W        W44846   6.652   6.532  12.448  0.2698 -0.1489  0.0202
29230W        W44847  17.525   4.650  14.423  0.0282  0.0587 -0.1713
29231W        W44848  13.716  13.489  13.539  0.0175 -0.0160 -0.2158
29232W        W44849  11.325  13.364  12.401  0.2523  0.0811 -0.1448
29233W        W44850   7.188  16.734  11.800  0.0856 -0.0314 -0.3651
29234W        W44851  14.313   5.911  10.932  0.1635 -0.3552  0.1259
29235W        W44852   0.770  15.072   2.375 -0.0655 -0.1459  0.1040
29236W        W44853   5.493   1.049   3.611  0.0655 -0.0225 -0.0880
29237W        W44854  13.418   9.691  15.239 -0.0190 -0.1751  0.2975
29238W        W44855   9.319   1.961  13.434  0.1784  0.0626  0.2883
29239W        W44856   6.661  13.176   1.109  0.0179  0.1583 -0.0234
29240W        W44857  13.638   5.271  12.921 -0.2779 -0.1209 -0.1337
29241W        W44858   4.911  12.943   1.454 -0.1747 -0.3285  0.0108
29242W        W44859   2.754  12.405   0.168 -0.0081  0.2670 -0.0551
29243W        W44860  15.609   7.005   1.012 -0.0609 -0.0088 -0.0770
29244W        W44861  17.483  15.853  14.808  0.3228 -0.1613  0.1160
29245W        W44862   0.446   8.047  13.145  0.1595 -0.2890  0.0964
29246W        W44863   5.632  13.475   3.465 -0.0189  0.2084  0.0045
29247W        W44864   1.258   0.351   0.269 -0.2699 -0.3355  0.0811
29248W        W44865   2.895   2.456   2.797 -0.0401 -0.1431 -0.2986
29249W        W44866   4.466   2.535   2.737 -0.1677  0.0616  0.3898
29250W        W44867  18.118  10.116  10.959 -0.3877  0.3738  0.1226
29251W        W44868  17.564  10.163   2.607  0.5126 -0.0733 -0.1762
29252W        W44869  13.764  14.671  14.616 -0.3513 -0.2085 -0.3613
29253W        W44870  13.855  14.381  13.453 -0.1968 -0.0472  0.2026
29254W        W44871   8.098   6.579   2.086 -0.0411  0.1051 -0.1296
29255W        W44872  13.671  14.571  11.384 -0.0249  0.1250  0.1582
29256W        W44873   9.936   7.428   5.382  0.2700  0.2739  0.1244
29257W        W44874  12.085  17.555  11.184 -0.0117  0.1209  0.0172
29258W        W44875   2.110  16.261   5.104  0.1420  0.1039 -0.3691
29259W        W44876   0.645  17.699   4.048 -0.1391 -0.3241 -0.4817
29260W        W44877  18.223   2.813  12.728  0.0375 -0.2018 -0.1127
29261W        W44878   2.099  18.895   4.660 -0.0471  0.3025 -0.4936
29262W        W44879  11.239   9.098   1.289 -0.4090 -0.0341  0.0148
29263W        W44880  10.135   3.552   0.152 -0.1885 -0.1369 -0.0451
29264W        W44881   1.059   5.638  11.402  0.0556  0.0547 -0.0956
29265W        W44882   9.280  11.336   4.461  0.2301 -0.0323 -0.0706
29266W        W44883   1.471   8.734  11.820 -0.1418  0.0014 -0.1556
29267W        W44884   6.372  16.266   0.140 -0.1803 -0.0419  0.1619
29268W        W44885   8.112   7.456   1.540 -0.0744 -0.1764  0.1471
29269W        W44886   5.997  11.511   1.858 -0.1058  0.0107  0.0392
29270W        W44887   2.599   1.985   4.910 -0.2158 -0.0526  0.0431
29271W        W44888  18.316   2.976   4.049  0.0028 -0.0975 -0.1945
29272W        W44889  10.622  14.957   0.394  0.2219  0.3546 -0.0487
29273W        W44890   9.651   8.903   4.365 -0.2454 -0.3974 -0.3291
29274W        W44891  10.231  18.611  12.048 -0.3408 -0.1627 -0.2287
29275W        W44892  18.438  16.131  10.801 -0.0793 -0.1446 -0.1736
29276W        W44893   2.833  10.367  12.781  0.4797 -0.0344 -0.2068
29277W        W44894  15.838  10.681   1.632 -0.0917  0.1246  0.1675
29278W        W44895  17.242   3.131  14.629 -0.1562 -0.1219  0.2487
29279W        W44896  13.339   7.977  11.773  0.1212 -0.1501 -0.0355
29280W        W44897  15.027   0.255   1.676 -0.0816  0.3407  0.0938
29281W        W44898   6.572  11.215   2.781 -0.0472 -0.1755 -0.1018
29282W        W44899  18.858  18.907  12.628 -0.5140  0.1009 -0.0520
29283W        W44900  17.425  17.162   0.048 -0.0378  0.1726 -0.0295
29284W        W44901  11.702  16.261   4.171  0.3142 -0.0641  0.1142
29285W        W44902   4.211   5.148   1.643 -0.2102  0.2465 -0.1337
29286W        W44903   4.868   3.249   2.809  0.0244 -0.1999  0.1080
29287W        W44904   3.217  11.834  13.241  0.1596  0.1941  0.3611
29288W        W44905   2.790   9.260   5.665  0.1769 -0.0136 -0.0327
29289W        W44906  13.587  15.217  12.228  0.1457 -0.1637  0.0252
29290W        W44907   4.944  14.974   4.376 -0.1758 -0.1739  0.3976
29291W        W44908   9.263   3.230   1.968 -0.1761  0.0329 -0.2684
29292W        W44909   2.474  17.258  15.265 -0.3371  0.0689  0.0152
29293W        W44910   5.207   2.184  14.719 -0.1345  0.1970  0.1236
29294W        W44911   6.239   3.057   4.860 -0.0960  0.1488  0.2957
29295W        W44912   1.747   7.787   3.314  0.2113 -0.2178 -0.1915
29296W        W44913  10.203   9.807  12.577 -0.0516  0.3109  0.0646
29297W        W44914   7.651  18.230  12.153 -0.1897  0.0039  0.1298
29298W        W44915   5.491  14.605   3.044  0.0941 -0.1208 -0.2584
29299W        W44916  18.519  10.565   0.660  0.1293  0.0908 -0.3817
29300W        W44917  16.545   3.570  10.305  0.1691 -0.2276  0.0256
29301W        W44918  12.962  18.010  14.544  0.0236 -0.0517  0.2142
29302W        W44919   8.056   6.995  10.267 -0.4015  0.1316  0.1048
29303W        W44920   2.222   6.234  12.106 -0.1952  0.0580  0.0867
29304W        W44921  12.078  10.947   0.476  0.3816 -0.0588  0.0266
29305W        W44922   9.781  13.239  12.937  0.3974 -0.2504 -0.1137
29306W        W44923  15.082  18.132   0.664 -0.1222  0.2516  0.0288
29307W        W44924  17.593  10.035   5.515  0.2059 -0.1152  0.0370
29308W        W44925  10.182  12.847   1.160  0.1295  0.0371  0.1007
29309W        W44926  11.785  12.809   0.571  0.0596 -0.2414 -0.0245
29310W        W44927   7.241   1.953  11.165  0.0390  0.1109  0.1342
29311W        W44928  13.763   3.786   4.246 -0.2132  0.4275 -0.0681
29312W        W44929   0.163  13.526  10.835  0.1546 -0.4402  0.1918
29313W        W44930   5.295   9.840  13.308 -0.0758 -0.0623  0.0929
29314W        W44931  11.467  18.167   1.532 -0.2472  0.1387  0.0599
29315W        W44932  14.305   6.929   1.876  0.0130 -0.0110  0.0514
29316W        W44933  11.466  14.961   4.352 -0.1304 -0.0971 -0.0928
29317W        W44934  15.139   1.078  11.054  0.2550  0.1121  0.1230
29318W        W44935   9.143  16.262   0.535  0.0777 -0.1593 -0.0190
29319W        W44936   0.601   8.464   3.265  0.0411 -0.0654  0.1632
29320W        W44937  14.072  10.366  13.394  0.0569 -0.0622 -0.0595
29321W        W44938   9.262   2.716  10.132 -0.1642  0.3859 -0.2176
29322W        W44939  17.370   0.051   4.993  0.1490 -0.0080 -0.2168
29323W        W44940  13.167  17.406   3.480  0.0444 -0.2751 -0.1977
29324W        W44941  14.922   5.032   4.445  0.2123 -0.0648  0.2655
29325W        W44942  14.607   1.434   2.631 -0.3374  0.1341 -0.2147
29326W        W44943  18.501   4.889  13.374  0.1032  0.0210 -0.3552
29327W        W44944   9.202  13.493   1.550  0.2018 -0.0865  0.2237
29328W        W44945  14.997  14.052   3.268  0.1341  0.1525  0.0548
29329W        W44946   3.747   1.559  11.640  0.1215 -0.0182 -0.0911
29330W        W44947  14.388   2.173   2.577 -0.0664 -0.1364  0.0640
29331W        W44948   0.346  13.019  11.324  0.5026  0.0869 -0.3144
29332W        W44949  12.712  14.885  13.733 -0.1023 -0.2117  0.3923
29333W        W44950   8.717   8.209  11.030 -0.2941  0.1651 -0.2177
29334W        W44951   5.144  11.753  14.956  0.2861  0.3572 -0.0979
29335W        W44952  16.060   1.807   1.641 -0.2050  0.0155  0.1699
29336W        W44953  13.319   7.549  12.395 -0.1075 -0.1054  0.1300
29337W        W44954  11.643   4.034   3.728 -0.0714  0.1264 -0.1518
29338W        W44955  13.479   6.807  12.948  0.0901 -0.0164 -0.1531
29339W        W44956  18.458  12.953  10.578 -0.1334 -0.3251  0.1307
29340W        W44957  16.121   7.972   0.560 -0.3125 -0.2576 -0.2097
29341W        W44958   4.764  16.227  11.381  0.2333  0.0214 -0.1060
29342W        W44959  12.141  10.189  14.179 -0.2366  0.0271 -0.2557
29343W        W44960   1.125   7.338   1.521 -0.3321 -0.1318 -0.1323
29344W        W44961   9.552   8.067   2.327 -0.2054  0.2724 -0.1295
29345W        W44962   7.107   4.835   3.610 -0.0216 -0.0188  0.2113
29346W        W44963  10.732  15.238   3.641 -0.5336 -0.1280 -0.0657
29347W        W44964   9.901   9.618   5.482 -0.0725  0.0457 -0.2030
29348W        W44965  14.292   6.906  10.439  0.2408 -0.2050  0.4268
29349W        W44966   1.429   8.553   0.098 -0.1100  0.0808  0.0099
29350W        W44967   4.286  12.430  11.449  0.2930  0.2382  0.0452
29351W        W44968   7.650  13.092  13.342 -0.0076 -0.3029  0.0252
29352W        W44969   4.332  14.141   1.761  0.1253 -0.1795 -0.0815
29353W        W44970   1.417  18.138   0.548 -0.4254  0.0559  0.0723
29354W        W44971  10.828   3.801   3.894 -0.0769  0.0028  0.1478
29355W        W44972   7.808   7.795   0.658  0.1311 -0.0565  0.0100
29356W        W44973  12.813   2.407  11.778 -0.0290 -0.4466 -0.0392
29357W        W44974  11.409  18.321  11.642 -0.2515 -0.1012 -0.1677
29358W        W44975   5.264   1.310   4.713 -0.1565 -0.1441  0.0308
29359W        W44976  18.616   4.556   4.747  0.2095 -0.0636 -0.1686
29360W        W44977  17.893   9.465   3.929  0.1657 -0.1342  0.0508
29361W        W44978   3.428   2.424   1.906  0.0433 -0.1412  0.2888
29362W        W44979  11.196  15.307   4.630  0.1339 -0.0152  0.0427
29363W        W44980   5.804  11.322   1.166 -0.0606  0.0176  0.0331
29364W        W44981   0.393   3.864   3.002 -0.2663  0.1226 -0.0438
29365W        W44982  15.921   1.954   1.126  0.0984 -0.1415  0.1254
29366W        W44983  16.275  14.596   3.973  0.0285 -0.0021 -0.0266
29367W        W44984   9.787   2.858  14.379  0.0697 -0.0918  0.0015
29368W        W44985  12.929   8.899   3.359 -0.0493  0.0800  0.1120
29369W        W44986   5.784   3.653  10.803 -0.4012 -0.1546 -0.2182
29370W        W44987   8.851  10.148   3.463 -0.0731 -0.3214  0.0131
29371W        W44988   2.085   0.381  12.241 -0.0110  0.1897  0.1771
29372W        W44989   3.843   5.367   2.414  0.0658  0.1483  0.0944
29373W        W44990   7.993   6.261   4.734 -0.0738 -0.1250  0.2990
29374W        W44991   9.227  13.320  12.330 -0.2183 -0.0532  0.1724
29375W        W44992  15.387   3.767   2.958 -0.0261  0.3912  0.3937
29376W        W44993   6.245  13.425   3.122 -0.1186  0.0802 -0.2202
29377W        W44994  12.395   0.180  14.869 -0.0354  0.1234  0.0725
29378W        W44995  14.868  18.518  12.198  0.0091  0.1875 -0.1360
29379W        W44996  16.762  15.960   4.142 -0.0304 -0.2344  0.1151
29380W        W44997   9.146   2.273   3.681  0.1064 -0.2844 -0.0930
29381W        W44998   9.687   6.714  14.161  0.1722  0.0005 -0.0577
29382W        W44999  18.860  17.535  12.030 -0.2184 -0.1559 -0.0741
29383W        W45000   8.240   6.630   3.104 -0.1478  0.1806  0.3008
29384W        W45001  15.615  11.152   4.537 -0.2540  0.3162  0.2247
29385W        W45002   6.720  17.052   6.121  0.1730 -0.0129  0.2441
29386W        W45003   4.635  16.254   0.637  0.4050 -0.2664  0.2933
29387W        W45004   7.074   5.468   1.325  0.2371  0.3370  0.2050
29388W        W45005   0.923   6.486   5.065 -0.1246  0.0278 -0.3278
29389W        W45006  11.444   2.500   1.468  0.2491 -0.0535  0.0784
29390W        W45007  17.408   2.493  10.099  0.1448 -0.2891 -0.0960
29391W        W45008  13.705  17.650   2.168 -0.1008 -0.1771 -0.0372
29392W        W45009   6.201  18.821  13.960  0.1295  0.2813  0.2224
29393W        W45010  11.161   7.745   0.959  0.1774 -0.3219 -0.2229
29394W        W45011  18.155   0.403   3.426  0.0415  0.0199 -0.0966
29395W        W45012  11.406  12.440  12.360  0.1270 -0.3340 -0.0081
29396W        W45013   5.749   3.071   4.360 -0.1137  0.0631  0.0536
29397W        W45014  14.461   4.344   2.904  0.0910 -0.0478  0.0259
29398W        W45015   0.289  10.217  15.001 -0.2062  0.2223  0.0162
29399W        W45016  17.185  10.330  10.554 -0.1410  0.3767 -0.2764
29400W        W45017  17.399  12.150  14.704  0.2329  0.1627  0.1148
29401W        W45018  16.836  10.591   2.108  0.2104 -0.1664  0.3872
29402W        W45019   7.679   8.428  13.662 -0.0321 -0.0187  0.1218
29403W        W45020   8.763  11.015   1.911  0.3998  0.1640  0.1437
29404W        W45021   5.215  10.347  13.467 -0.0766  0.1905 -0.2025
29405W        W45022   2.152  18.386   5.749 -0.0066  0.2479 -0.1680
29406W        W45023   3.985   6.488  15.222  0.0735 -0.0797  0.0563
29407W        W45024  14.595   7.051   9.934  0.0222 -0.1093  0.2418
29408W        W45025   1.498   0.106  13.273 -0.0770  0.0851  0.4456
29409W        W45026  17.890   9.981   4.519  0.1059  0.0216 -0.0003
29410W        W45027   8.455  17.917  10.559 -0.1105  0.5418  0.2085
29411W        W45028  16.748   8.577  11.625 -0.2941  0.2383  0.0962
29412W        W45029   1.969   3.498  15.074  0.1546 -0.0221  0.2540
29413W        W45030  12.138   1.817  12.687  0.1692  0.0075 -0.0649
29414W        W45031  13.025  12.849  12.897  0.0666  0.1316 -0.1707
29415W        W45032  13.530  14.148  10.183 -0.0329 -0.1186 -0.1450
29416W        W45033   1.465  10.229   1.101  0.2018  0.2191  0.4582
29417W        W45034  15.975   7.562   3.438 -0.2188  0.2240 -0.0981
29418W        W45035  13.256   2.747  10.291  0.0135  0.1309 -0.0435
29419W        W45036  15.441  16.211   0.922 -0.0551 -0.0644 -0.1000
29420W        W45037  14.268   9.538  11.518 -0.5323 -0.3839  0.0850
29421W        W45038   2.752   8.784   3.095 -0.1003  0.2072 -0.1076
29422W        W45039  14.490   3.767   0.571  0.4458  0.0944 -0.2222
29423W        W45040   9.885  18.775   0.585 -0.1706 -0.0435  0.0272
29424W        W45041   0.383  16.589   1.540 -0.0279 -0.2304 -0.0504
29425W        W45042  14.708  17.511   2.403 -0.2313 -0.2303 -0.0408
29426W        W45043  12.586  13.904   2.455 -0.2871 -0.0499 -0.1066
29427W        W45044  12.219   1.016   0.630 -0.3827 -0.0507 -0.2244
29428W        W45045   1.858   1.837  11.010 -0.4206  0.0079 -0.1717
29429W        W45046  14.420   5.369  12.045  0.1138  0.1035  0.0025
29430W        W45047   9.281   7.894  13.931 -0.1553 -0.6283 -0.1631
29431W        W45048  14.090  13.519  14.995 -0.0056 -0.2590 -0.0655
29432W        W45049   6.385  14.645   5.237  0.2031  0.0569 -0.0517
29433W        W45050  16.150   7.718  11.751  0.0235 -0.1848  0.0918
29434W        W45051  16.331  13.216  12.966 -0.1435 -0.0117  0.0207
29435W        W45052  13.772   8.360  12.410 -0.1239  0.0619 -0.0613
29436W        W45053  10.005  18.328  14.116  0.1414  0.2136 -0.0370
29437W        W45054  18.245   8.208   0.216 -0.2079  0.0146  0.1676
29438W        W45055  12.669  10.422  11.123  0.0786 -0.3011 -0.3081
29439W        W45056   5.367  12.018   5.475 -0.1307 -0.0160  0.2049
29440W        W45057   8.398  13.596   1.036 -0.0424 -0.2066 -0.2510
29441W        W45058   7.644   1.602  12.029 -0.2625  0.0672  0.0393
29442W        W45059  11.210  11.058  14.629  0.0890 -0.2107 -0.2363
29443W        W45060  15.658   6.077  13.770  0.2705  0.0267  0.0365
29444W        W45061   7.281   3.713  11.274  0.3999 -0.1430  0.0111
29445W        W45062  12.364  14.623   0.127 -0.4777 -0.1725  0.2863
29446W        W45063  10.486  18.799   4.625 -0.0631 -0.0940  0.0403
29447W        W45064  13.507  13.335   1.097  0.0548 -0.0114 -0.1019
29448W        W45065   6.520  10.849  10.666  0.1242 -0.2982 -0.4165
29449W        W45066  15.678  13.384  14.388  0.1357  0.3832 -0.1025
29450W        W45067  13.767   1.302   0.700 -0.4006 -0.1697  0.0213
29451W        W45068   0.487   6.620  10.093  0.4590 -0.2527  0.1136
29452W        W45069  17.781   0.821   2.545 -0.1312  0.3450 -0.0368
29453W        W45070   0.978  16.065   0.286  0.1204 -0.2269  0.1348
29454W        W45071   0.489   7.072  13.077  0.1693  0.2582 -0.0816
29455W        W45072   9.608  11.957  13.193 -0.1323  0.0635 -0.1126
29456W        W45073   6.707   8.987  13.625  0.0668 -0.3949 -0.0611
29457W        W45074  16.032   5.300   4.948  0.2038 -0.3276  0.0555
29458W        W45075   7.844  18.291   3.947  0.2629  0.1243 -0.2570
29459W        W45076   7.578  15.433  13.017  0.0922  0.1888 -0.0324
29460W        W45077   2.835  14.213   4.720 -0.0727  0.1341 -0.4415
29461W        W45078  11.446  10.453  11.227 -0.1828  0.1456 -0.2528
29462W        W45079  15.916   1.192   3.890  0.3326  0.0636  0.3873
29463W        W45080   6.709   4.134  12.424 -0.0096  0.2344  0.0470
29464W        W45081  14.087   5.682   3.910 -0.2091 -0.4907 -0.0989
29465W        W45082  10.255   7.832  11.410 -0.0639 -0.0924  0.0468
29466W        W45083   3.544   7.996  12.730  0.1293  0.1358 -0.0445
29467W        W45084  11.393  14.587  12.227  0.5441  0.0427  0.5336
29468W        W45085   5.736  14.212   2.044  0.1520  0.0626 -0.2886
29469W        W45086  10.095  16.927  11.945 -0.1259 -0.0379  0.0898
29470W        W45087   4.705   1.519  13.458  0.3466 -0.1866 -0.0223
29471W        W45088  13.061   4.081  13.786  0.1577  0.0816  0.3049
29472W        W45089  15.582   1.312  10.921  0.2643 -0.0846 -0.0930
29473W        W45090   7.454  17.627  12.111 -0.2774 -0.2479 -0.1565
29474W        W45091  16.073  18.939  11.517 -0.2172  0.4086 -0.3514
29475W        W45092   9.915   6.534   9.808 -0.1254  0.3143 -0.5121
29476W        W45093   8.974   5.279  11.824 -0.0916  0.0418 -0.1339
29477W        W45094  17.593  18.065  12.340 -0.1017 -0.6666 -0.0321
29478W        W45095   8.133  14.145   0.875  0.2119  0.1675  0.1950
29479W        W45096   2.529   1.522   5.498  0.1043 -0.1236 -0.0351
29480W        W45097  11.656  17.066   5.164  0.1596 -0.1890  0.1366
29481W        W45098  13.634   8.687  10.545 -0.3776 -0.2517 -0.0702
29482W        W45099  18.853  17.291  11.599  0.3173 -0.1552  0.0520
29483W        W45100  16.853  14.167  12.628 -0.0532  0.0035 -0.1995
29484W        W45101  11.034   4.519  10.526  0.0541  0.2021  0.1260
29485W        W45102  10.759  15.767   2.067  0.2317 -0.0588  0.2730
29486W        W45103  18.166   1.060   5.282  0.1558  0.1659 -0.2391
29487W        W45104  16.636  12.190   3.498  0.3159 -0.3064 -0.0692
29488W        W45105  11.498  14.660   0.273 -0.1027 -0.2869 -0.0491
29489W        W45106   6.350   7.137  14.165  0.0784 -0.0968 -0.3976
29490W        W45107  13.726   6.802   2.892  0.0255 -0.1095  0.0713
29491W        W45108  14.974   1.588   1.340 -0.0949  0.1900  0.1363
29492W        W45109   6.280  18.960  11.771  0.1536 -0.3348 -0.2995
29493W        W45110   6.331   6.814  12.871  0.0960  0.2361 -0.0704
29494W        W45111  12.790  16.039  10.970  0.1097 -0.1641  0.0429
29495W        W45112   6.638  17.124   0.867 -0.0040  0.2379  0.0248
29496W        W45113   7.900  17.704  13.202  0.0454 -0.1060 -0.0554
29497W        W45114  17.316  12.306   3.727 -0.1259  0.2438  0.2738
29498W        W45115  16.627   7.177  14.247 -0.1191 -0.0493 -0.2146
29499W        W45116  18.071   5.390  15.142 -0.0408  0.1210  0.0657
29500W        W45117  14.980   2.338  12.482  0.1135 -0.1273 -0.2218
29501W        W45118   0.036   7.127  12.700  0.2033 -0.1743  0.2089
29502W        W45119   8.840  12.741  12.056 -0.1831 -0.0071  0.1427
29503W        W45120   5.719  17.937  11.665 -0.2689 -0.4953 -0.0295
29504W        W45121   6.110   8.745  10.862  0.2778 -0.3382  0.1527
29505W        W45122   6.855  13.153   1.563  0.0051 -0.0457 -0.0113
29506W        W45123  10.418  10.994  12.121 -0.0331 -0.2629 -0.1519
29507W        W45124   3.530  13.760   4.002 -0.3018 -0.3084  0.1574
29508W        W45125   8.872   3.984   0.786  0.2637 -0.1585 -0.1534
29509W        W45126   8.831  16.981   3.553 -0.2162 -0.2085 -0.1718
29510W        W45127   7.876  15.266  10.132  0.0690 -0.0568  0.0568
29511W        W45128   0.500   0.132   3.808 -0.3711 -0.2314  0.0262
29512W        W45129   7.890  11.600   5.158 -0.0423  0.0616 -0.1132
29513W        W45130   4.617  18.822  12.647  0.2251 -0.2504  0.1984
29514W        W45131   3.664   6.463   3.453 -0.0657  0.1859  0.0182
29515W        W45132   5.252  12.059   3.709 -0.1755 -0.2562 -0.2375
29516W        W45133  16.099  15.218   3.763 -0.1502 -0.1511  0.1607
29517W        W45134  10.583   7.626   2.551  0.0121  0.3309  0.0538
29518W        W45135   9.369   1.308   1.442  0.0561 -0.1132 -0.0665
29519W        W45136   7.350  18.890   0.038 -0.1008  0.0804  0.0661
29520W        W45137  15.278  15.365  11.697 -0.1168  0.0313  0.2514
29521W        W45138  12.401   4.095   3.086  0.1148  0.0375  0.1499
29522W        W45139  13.993   6.723  13.187  0.1408 -0.0809 -0.1503
29523W        W45140  17.082  15.224   2.572  0.2684 -0.7678 -0.0188
29524W        W45141  18.947   5.720  15.163 -0.2772 -0.0758 -0.2141
29525W        W45142   1.484   4.792   0.781 -0.1381 -0.4543 -0.2157
29526W        W45143   0.233  13.559   4.709 -0.1207 -0.0834  0.4053
29527W        W45144  12.751   6.325  12.401  0.3193 -0.2452  0.0014
29528W        W45145  18.700   4.935  10.858  0.0349 -0.0305  0.4025
29529W        W45146   9.609   9.119   3.430  0.1353  0.2605 -0.0836
29530W        W45147   9.007  16.702  13.304  0.2465 -0.1280 -0.2438
29531W        W45148  14.455   4.897  10.225  0.0361 -0.1720 -0.2187
29532W        W45149  13.397  18.579   3.839  0.0014 -0.1122 -0.2532
29533W        W45150   2.978   9.259   3.857 -0.0215  0.1628  0.0233
29534W        W45151   1.201  18.871   0.051  0.0236  0.0245 -0.1813
29535W        W45152   3.428  14.281   1.514  0.1272  0.0144 -0.2513
29536W        W45153  11.929   6.092   4.545 -0.1185 -0.4556  0.0539
29537W        W45154   8.054  14.490   1.273  0.0473  0.1165 -0.0776
29538W        W45155  18.675   3.476  13.579  0.0323 -0.2439 -0.2470
29539W        W45156  14.310  12.981   4.459  0.0658 -0.3090  0.0711
29540W        W45157  12.912   7.969   0.567 -0.1445  0.2542 -0.0134
29541W        W45158   9.045  18.653  11.686  0.1059 -0.0025 -0.0575
29542W        W45159  13.322   8.293   4.274  0.1594  0.3359  0.0630
29543W        W45160   5.070   9.969  14.282 -0.3215  0.1697 -0.0413
29544W        W45161   8.303  15.384   4.918 -0.0106  0.2097 -0.1523
29545W        W45162  18.990   4.787  11.207  0.2860 -0.1592 -0.2080
29546W        W45163   8.900   6.134   4.491  0.1336 -0.0149  0.0197
29547W        W45164   0.415  15.658   1.157 -0.1641  0.0405  0.2639
29548W        W45165  11.316   3.750  14.518 -0.0017 -0.2129  0.0609
29549W        W45166   8.925  10.011   1.841 -0.4788  0.1877 -0.2114
29550W        W45167  11.853  12.661   5.095  0.1690 -0.0652  0.1019
29551W        W45168  15.242   2.424  12.012 -0.2651 -0.0323  0.1195
29552W        W45169   3.634  18.632   4.815 -0.2789 -0.1563  0.0622
29553W        W45170  14.127   2.659  10.862 -0.1295 -0.3139 -0.3031
29554W        W45171  11.330   7.222   3.067  0.2089  0.0897 -0.1763
29555W        W45172   9.096   9.545   1.925  0.1914 -0.2450 -0.0076
29556W        W45173   5.201   6.844  10.932 -0.1663  0.0754  0.2145
29557W        W45174   8.014   4.458   2.997  0.2280 -0.1074  0.0068
29558W        W45175   4.930  17.099  11.016  0.0423  0.1719  0.0748
29559W        W45176   1.419  12.436  14.462 -0.2618 -0.0040  0.0094
29560W        W45177   4.959   4.453   3.610  0.2176 -0.1544 -0.3315
29561W        W45178  17.902   1.758   0.939  0.0856  0.0954 -0.1806
29562W        W45179  16.789   8.075   4.051  0.0766  0.3302 -0.0985
29563W        W45180   8.071  13.344   0.154 -0.2957  0.3481 -0.3191
29564W        W45181   2.432   1.404   0.917  0.0001  0.3302  0.0343
29565W        W45182   8.164   0.847   0.829  0.0545  0.0344  0.1431
29566W        W45183  12.562  17.722   2.024 -0.0022  0.0652  0.0767
29567W        W45184   3.783  16.908  14.445 -0.3399 -0.2939  0.0101
29568W        W45185  15.512   0.148   0.145 -0.3322 -0.0932  0.2659
29569W        W45186   9.186  12.553   3.723 -0.0428 -0.1130 -0.0239
29570W        W45187   6.203  17.720  14.723 -0.0514  0.0373  0.2444
29571W        W45188  16.506   2.281   2.549  0.4216  0.0322 -0.3322
29572W        W45189   5.025  14.300  10.555 -0.0753 -0.0058  0.2536
29573W        W45190  12.986  16.896  10.901  0.2115 -0.2616 -0.0038
29574W        W45191   5.588  11.350  15.100  0.0049  0.0458  0.1361
29575W        W45192   0.906   0.705  15.219  0.1643 -0.3267  0.4198
29576W        W45193  16.281  12.224   3.946  0.0874  0.1184  0.1980
29577W        W45194  19.079  16.258  12.157 -0.2836  0.0417  0.1391
29578W        W45195   1.086   5.560   0.131  0.2722 -0.0483 -0.3879
29579W        W45196   4.614   0.713   3.583  0.2981 -0.2807  0.1426
29580W        W45197  14.042  18.804  12.409 -0.0499  0.2497 -0.2481
29581W        W45198  11.067   8.227   2.602 -0.0143 -0.0979 -0.1802
29582W        W45199   1.487   6.317  15.247  0.0592  0.0744 -0.1198
29583W        W45200   2.708   2.539  15.101 -0.1396  0.1773 -0.0776
29584W        W45201   9.879  17.211  12.290  0.2637  0.1021 -0.0487
29585W        W45202   7.850  17.767  11.752 -0.1440 -0.0397  0.1116
29586W        W45203  15.713   7.306   3.863 -0.2291  0.1762  0.0362
29587W        W45204  19.025   4.756  12.435  0.4204 -0.0313  0.1140
29588W        W45205  11.288  10.831   3.810  0.1357 -0.0006  0.0083
29589W        W45206   0.621   7.315   1.538  0.1387 -0.0943 -0.1828
29590W        W45207  14.568   0.135  11.790  0.2760 -0.1369  0.0879
29591W        W45208  10.620   9.714   3.963 -0.0558 -0.1445  0.1192
29592W        W45209   8.078  14.226   2.993  0.1920 -0.2850 -0.0395
29593W        W45210   7.505  10.295   2.512  0.2895  0.2976  0.5244
29594W        W45211   7.789   1.726   4.081 -0.3084  0.1407  0.2683
29595W        W45212  18.385   8.657   3.913 -0.1970  0.0071  0.2078
29596W        W45213   7.925   6.201   4.194  0.3559  0.1603 -0.1434
29597W        W45214   9.298   6.801  14.889 -0.1075  0.1839 -0.1486
29598W        W45215   0.247  11.854  11.313 -0.1767 -0.0070  0.0866
29599W        W45216   7.731   2.178   1.764 -0.1997 -0.1919  0.3271
29600W        W45217   3.411  17.768  14.405  0.0058  0.2185 -0.2635
29601W        W45218  15.667  14.506  10.361  0.1247 -0.1854  0.2289
29602W        W45219  13.732  17.461   2.749 -0.1009 -0.2464  0.4325
29603W        W45220  16.843   0.954   4.079  0.0597 -0.0779  0.2243
29604W        W45221   8.758   0.447  11.743 -0.0186 -0.2007 -0.3057
29605W        W45222  13.661   1.175  10.468  0.0218 -0.3714 -0.0339
29606W        W45223   7.167   9.651  14.844  0.1401  0.2755  0.1437
29607W        W45224   1.392  12.741   2.353 -0.1852 -0.1519 -0.2359
29608W        W45225  13.448  10.543  14.118  0.3237  0.1343 -0.1794
29609W        W45226   1.109  18.431   3.668  0.0094  0.2330 -0.1934
29610W        W45227   8.952   2.596  11.427  0.0356 -0.3753  0.2378
29611W        W45228   6.566  18.404   2.110 -0.4701  0.2699 -0.2975
29612W        W45229   1.549   1.422   2.803 -0.2925 -0.0334  0.0975
29613W        W45230   3.937   1.105   3.480  0.1436 -0.0888  0.0431
29614W        W45231   7.736   0.473   3.570 -0.0408  0.0993 -0.0370
29615W        W45232   2.273  10.119   1.519 -0.0994 -0.1685  0.0311
29616W        W45233   0.898   3.680  10.713 -0.0918  0.2810  0.4476
29617W        W45234   6.422   5.376  11.299  0.2657  0.1223 -0.2381
29618W        W45235  10.296  10.914  13.565  0.0772  0.1447  0.3321
29619W        W45236   9.299   1.259  13.632  0.0338  0.1136 -0.0660
29620W        W45237   3.876   5.868   6.000  0.1470 -0.1672  0.0126
29621W        W45238   0.020   5.790   4.664  0.3118  0.2554 -0.1630
29622W        W45239   6.774   0.761  13.287 -0.1483 -0.0435  0.0845
29623W        W45240  10.845   0.508   0.405 -0.2347 -0.0908  0.0459
29624W        W45241   9.422  13.794  12.373 -0.4082 -0.0943  0.1413
29625W        W45242   7.102   0.545  11.837  0.1792  0.2450 -0.2917
29626W        W45243  12.773   3.584  14.366 -0.1034 -0.2507 -0.0277
29627W        W45244  18.543  10.564   2.544  0.0852 -0.2031  0.1384
29628W        W45245   4.935   3.405  13.280 -0.1913 -0.0475 -0.0339
29629W        W45246   7.125  16.130   3.739 -0.1702  0.0948  0.2382
29630W        W45247   2.578  14.237   1.715 -0.1179 -0.3140  0.3276
29631W        W45248  16.925   9.582  10.518 -0.0682  0.1874  0.4375
29632W        W45249   6.006   2.097   1.340  0.0863 -0.0646  0.1511
29633W        W45250  10.962   6.114  13.746 -0.0839  0.3687  0.0088
29634W        W45251   9.647  11.310   5.343  0.3095 -0.0961 -0.0895
29635W        W45252   6.594  10.862  13.093  0.0275  0.3556 -0.2293
29636W        W45253   5.393  13.516  12.154 -0.2414 -0.0886 -0.1675
29637W        W45254  18.932  16.751  11.264 -0.0530  0.2045 -0.2767
29638W        W45255   2.097   7.142  11.801  0.0192  0.3385 -0.0416
29639W        W45256   4.060   4.355   2.284  0.0438 -0.0310  0.1467
29640W        W45257  16.342   5.101  15.186  0.0404  0.2195 -0.3410
29641W        W45258   6.982   8.300  14.779  0.1319  0.0859 -0.1501
29642W        W45259   3.466   7.476   0.392  0.2106 -0.3592  0.0078
29643W        W45260   3.077   9.268  14.146  0.2319 -0.2836 -0.2693
29644W        W45261  16.971   6.831  13.595  0.0444  0.2233  0.1091
29645W        W45262   0.466  17.266  13.179 -0.0374  0.0660 -0.0260
29646W        W45263   9.744   0.600   2.097 -0.0386 -0.2793  0.1160
29647W        W45264  13.416  13.943  10.634 -0.0031 -0.0033 -0.1515
29648W        W45265   1.682  11.582   1.036 -0.2538  0.2059  0.1014
29649W        W45266  13.733   0.127   0.588  0.3005  0.0861 -0.0153
29650W        W45267   8.397   9.280  11.907  0.3109  0.2126  0.1877
29651W        W45268   2.491  18.208  12.758 -0.1944  0.0444  0.1528
29652W        W45269  14.021  16.720   0.196  0.1174  0.0363 -0.0925
29653W        W45270   0.288  12.990   0.496  0.0924 -0.0813  0.1868
29654W        W45271  13.433   5.984   1.517  0.0317 -0.3228 -0.0430
29655W        W45272  13.719  12.570  10.577  0.0823  0.0643  0.1673
29656W        W45273   4.813   6.913  10.599  0.0190 -0.1843 -0.0197
29657W        W45274   7.240  16.184   1.216  0.4645 -0.1331 -0.0183
29658W        W45275  15.250   0.357  13.480 -0.1095  0.1296  0.1034
29659W        W45276   2.058   4.357  15.264 -0.0356  0.0453 -0.2726
29660W        W45277   7.990  13.274   1.565 -0.2865 -0.0601  0.1911
29661W        W45278  11.901   1.915   5.511 -0.1203  0.1394  0.1754
29662W        W45279  14.282  16.726   5.233 -0.1836  0.1249 -0.0621
29663W        W45280   2.102   7.069  12.926  0.0891  0.0851 -0.3485
29664W        W45281   3.220   1.297   4.284 -0.1124 -0.2939 -0.1853
29665W        W45282  12.389  10.337  11.932  0.0386  0.1170  0.0203
29666W        W45283   1.019  18.374  12.026  0.2349 -0.1221 -0.3667
29667W        W45284   8.044   1.953  12.431  0.1222 -0.1049 -0.0512
29668W        W45285   1.070   1.900  14.635  0.2556  0.3087 -0.2824
29669W        W45286   3.754   8.126  10.860  0.1978 -0.0067  0.1993
29670W        W45287   8.463   6.205   4.942 -0.3063 -0.0174 -0.2241
29671W        W45288   4.842  10.444   5.085 -0.0056 -0.3946  0.1471
29672W        W45289  18.287  12.058   3.758 -0.2052 -0.2168 -0.2519
29673W        W45290   2.862  13.022   3.754 -0.0356 -0.1882  0.0094
29674W        W45291   8.334  13.391   4.051  0.2372 -0.2790  0.0078
29675W        W45292   4.852   5.572  13.687 -0.2575  0.0660  0.0234
29676W        W45293   5.673   5.867   2.047 -0.1004  0.2867  0.2203
29677W        W45294  16.479   3.355  12.509  0.0351  0.2448 -0.0518
29678W        W45295   9.036   1.650   2.132 -0.3057  0.0387  0.1769
29679W        W45296   3.423   5.164   3.284 -0.0924  0.2628  0.0176
29680W        W45297  14.292   8.045   9.563 -0.1602 -0.4569 -0.0612
29681W        W45298   0.102   1.888   4.452 -0.0477 -0.0189 -0.3334
29682W        W45299  14.178   3.291  14.014 -0.1461  0.3240 -0.0398
29683W        W45300  15.398   0.738  13.789  0.2048 -0.1210  0.2871
29684W        W45301   1.333   6.233   4.261  0.0474 -0.4311  0.3170
29685W        W45302  15.594   1.523  14.817 -0.0465 -0.1337 -0.0810
29686W        W45303   5.182   6.646   2.425 -0.0386  0.0389  0.2650
29687W        W45304   5.961  14.498  12.213  0.1619 -0.1186 -0.0806
29688W        W45305  11.644  12.867  12.710 -0.2885 -0.0059 -0.3641
29689W        W45306  17.766  18.839   5.158  0.3013  0.1965 -0.1770
29690W        W45307   5.302   9.049   3.616 -0.1000 -0.1864 -0.0191
29691W        W45308   4.078   5.923  13.548  0.0316  0.2499 -0.2285
29692W        W45309   6.526  18.041  13.103  0.3122 -0.2075 -0.2064
29693W        W45310  11.602   6.563   4.704  0.2023  0.0898 -0.2014
29694W        W45311   4.918   4.268   0.914 -0.0026 -0.1129  0.1558
29695W        W45312   8.942   7.162  14.806 -0.1159  0.2341  0.2849
29696W        W45313  18.561   0.604  10.534 -0.1167  0.2006 -0.1097
29697W        W45314   0.817  15.339   5.399 -0.1740  0.1513 -0.1795
29698W        W45315   0.581  12.683   2.064  0.1187  0.0614  0.3946
29699W        W45316   3.088  17.911  13.595  0.0496  0.0659  0.2282
29700W        W45317  10.741   7.233  12.080 -0.3635 -0.0023  0.3749
29701W        W45318   8.911  14.848  11.931  0.0010  0.2515  0.0818
29702W        W45319  13.452  16.217  13.086  0.0717 -0.0262 -0.1244
29703W        W45320  16.660  13.098  14.215  0.0045 -0.3423 -0.1870
29704W        W45321   1.764  17.588   1.901  0.3701 -0.1545  0.2863
29705W        W45322   4.563   4.257  11.977 -0.2160  0.0080 -0.1677
29706W        W45323  10.037  12.063  13.505 -0.0909  0.1305  0.0923
29707W        W45324   4.292  12.333   3.793  0.1683  0.1384  0.0160
29708W        W45325  16.460   9.301  15.075 -0.1643 -0.0174  0.1874
29709W        W45326   8.276  10.347   4.280 -0.1628  0.3163 -0.2179
29710W        W45327   4.487  18.775  12.153 -0.1507  0.2832  0.0573
29711W        W45328  18.578  10.859   4.732  0.0988  0.0633  0.1649
29712W        W45329   1.188  19.074  12.530  0.0113 -0.0052  0.1345
29713W        W45330   3.570   9.756   4.034 -0.3445 -0.2171  0.2051
29714W        W45331   5.667   3.841   3.320  0.3478 -0.0515 -0.2362
29715W        W45332   3.537   5.108   1.932 -0.1396  0.0514 -0.3221
29716W        W45333   7.313  14.805  14.929  0.1504  0.1814  0.1350
29717W        W45334  18.221   3.715  14.010  0.1607 -0.1201  0.3415
29718W        W45335  17.156   5.011  11.581 -0.2626 -0.1586 -0.3403
29719W        W45336   8.383  13.679  12.636 -0.0235  0.0282 -0.2071
29720W        W45337   9.671  12.095   4.293  0.1291 -0.0734  0.2936
29721W        W45338  16.970   3.578  11.478  0.1632 -0.0340 -0.0676
29722W        W45339  11.589  12.822   9.872  0.2983  0.1900 -0.1518
29723W        W45340   4.583   2.530   1.451  0.1572  0.1180 -0.0151
29724W        W45341  11.847  10.179  11.655 -0.2631  0.1622  0.0190
29725W        W45342  18.025   1.659  13.144  0.0394 -0.0497  0.0882
29726W        W45343   4.672   6.384   3.039 -0.1331 -0.1104  0.0343
29727W        W45344   5.550  17.322  12.869 -0.0176  0.0366 -0.1065
29728W        W45345   7.396  18.163   4.699  0.1219 -0.2512 -0.0483
29729W        W45346  18.218  18.876  13.292 -0.2333 -0.1324 -0.0829
29730W        W45347  13.020   8.455  12.263 -0.1379  0.2372  0.5482
29731W        W45348   2.355  16.502  12.912 -0.1922  0.1196 -0.1370
29732W        W45349  11.677   9.013   0.071  0.1791 -0.1583 -0.0618
29733W        W45350  14.659  15.453  12.138 -0.2304  0.2285 -0.3701
29734W        W45351  11.628   0.965  12.323 -0.1300  0.0772 -0.3257
29735W        W45352  18.057   7.600   3.676  0.1242  0.3789 -0.2254
29736W        W45353   5.728   2.792   6.060  0.0662  0.3896  0.2438
29737W        W45354  16.788   1.995  10.721 -0.1101 -0.1553  0.1736
29738W        W45355  18.113  10.335   3.573  0.1000 -0.1445  0.0473
29739W        W45356   5.682  12.280   0.039  0.2223 -0.1133  0.0795
29740W        W45357   7.559  11.227   4.227  0.0297  0.0741  0.1315
29741W        W45358   6.388  13.150   5.136 -0.2018  0.1227  0.0337
29742W        W45359  13.478   1.641  14.493  0.2497  0.0938  0.0470
29743W        W45360   4.436   7.885  15.098  0.1008 -0.0340  0.0377
29744W        W45361  18.664  16.910   4.864 -0.4285 -0.1238  0.4454
29745W        W45362   7.944  13.750   1.160 -0.2262 -0.0038  0.0646
29746W        W45363  17.051   0.967  13.597  0.1234  0.1039  0.3283
29747W        W45364   7.421  16.107   2.184 -0.1507 -0.1996 -0.1452
29748W        W45365  18.523   5.791  11.399 -0.0560 -0.3162  0.3450
29749W        W45366  16.588   3.617  11.117  0.5017  0.0298  0.1140
29750W        W45367  16.137   9.272   1.404 -0.0600 -0.0871 -0.0325
29751W        W45368  12.199  18.225   3.146 -0.1991 -0.0628 -0.0877
29752W        W45369  17.236   6.249   5.024 -0.0359  0.0700  0.3401
29753W        W45370   8.598  18.884  11.854  0.1456 -0.2022  0.1082
29754W        W45371   1.630   9.087   3.127  0.1960  0.0037 -0.0362
29755W        W45372  17.978  18.686  14.298  0.0128  0.1016  0.2973
29756W        W45373   2.485   5.537   0.135 -0.1948 -0.1964  0.1806
29757W        W45374  13.901   7.217   3.824  0.0085 -0.1766 -0.2711
29758W        W45375   6.410   6.388   2.173 -0.2023  0.2554  0.1791
29759W        W45376  13.413   1.370  11.951 -0.2432 -0.0705  0.2303
29760W        W45377  11.303  11.001  14.102 -0.2271 -0.1400 -0.1787
29761W        W45378  14.956   2.268   2.755 -0.2652  0.0230 -0.1449
29762W        W45379  17.809   2.592   4.807  0.2003 -0.2019 -0.0754
29763W        W45380  11.882  15.042   1.468 -0.0208  0.1751  0.1015
29764W        W45381  17.006  11.959   0.170  0.2653  0.0871 -0.1273
29765W        W45382   6.452   4.464  14.334  0.2195 -0.0661  0.1216
29766W        W45383  17.056   1.198  11.437  0.4332 -0.2313 -0.0146
29767W        W45384   6.030   0.432  13.379  0.0539 -0.1591  0.4387
29768W        W45385   9.104   5.719   3.414  0.1618 -0.0615 -0.1879
29769W        W45386  16.129  18.109   3.748  0.1656 -0.0794  0.1670
29770W        W45387  10.059   0.369  12.559 -0.0074  0.2354 -0.0363
29771W        W45388   7.091  17.079  13.616  0.2761 -0.1268 -0.6359
29772W        W45389  13.347  18.375  12.658  0.3549  0.3273 -0.2412
29773W        W45390   3.403  12.012  12.771 -0.2974  0.0126 -0.0491
29774W        W45391  16.057  12.938   5.131 -0.2161 -0.0087 -0.2839
29775W        W45392  17.555   0.475   4.786 -0.2976  0.0167  0.3312
29776W        W45393  14.909  12.025  14.687  0.2070 -0.3642  0.1178
29777W        W45394  18.709  17.317  13.282  0.0247  0.0881  0.0614
29778W        W45395   9.101   8.273  10.574  0.0658 -0.0604  0.2809
29779W        W45396  18.642  10.010   0.623 -0.2038  0.3901  0.0914
29780W        W45397  16.324  13.633  14.589  0.0454  0.1241  0.2265
29781W        W45398   5.355  11.046   0.405  0.0991 -0.0409 -0.2425
29782W        W45399  12.130   4.039  13.870 -0.0889 -0.1544 -0.1077
29783W        W45400   0.163   9.328   1.246 -0.3954  0.2336  0.2548
29784W        W45401  16.102   6.819   3.831 -0.1310 -0.1698 -0.1100
29785W        W45402  13.088  15.432  12.495 -0.1642 -0.0240  0.1263
29786W        W45403  11.716   1.747  13.560 -0.2560  0.0366  0.2448
29787W        W45404   9.424  16.495  14.546  0.2706  0.4336 -0.1770
29788W        W45405  16.488  15.910  12.033  0.0837 -0.0987 -0.2743
29789W        W45406   1.897  18.784  11.319  0.2349 -0.0567 -0.0334
29790W        W45407   5.234  18.450  14.248  0.2777  0.1738 -0.0110
29791W        W45408  15.431  13.973   3.484 -0.0152 -0.1625  0.1540
29792W        W45409   6.666   9.067  11.555 -0.3079 -0.0413  0.1134
29793W        W45410  11.999   8.475   0.871  0.1642 -0.0992  0.0658
29794W        W45411  16.007  13.524   3.022 -0.1159 -0.0943 -0.0007
29795W        W45412  15.748  18.566  10.675 -0.0849 -0.2058  0.0260
29796W        W45413   0.619  15.659   0.193  0.5026 -0.5393 -0.1779
29797W        W45414  16.161  10.413   1.295  0.1755 -0.1511  0.1437
29798W        W45415  13.332  14.192  13.125  0.0063  0.2353  0.0752
29799W        W45416   5.508   3.475  13.424 -0.0862 -0.0517 -0.1725
29800W        W45417  13.631   2.082   3.700  0.0443 -0.1583  0.0637
29801W        W45418  16.051  10.823   0.391 -0.2337 -0.1372  0.2079
29802W        W45419  10.079   1.838  12.972  0.0887  0.1582  0.0268
29803W        W45420   3.337   1.176  11.895  0.3751 -0.0029  0.4352
29804W        W45421   7.464   0.146   4.500  0.1675 -0.2189  0.3674
29805W        W45422  14.446  10.754  14.167 -0.0766  0.3025  0.1034
29806W        W45423  16.350  13.570  10.791 -0.0973  0.4387 -0.1762
29807W        W45424  15.746   3.625  12.735  0.1428 -0.2163 -0.0797
29808W        W45425  10.980   3.239  12.448  0.1825 -0.1633  0.1500
29809W        W45426  16.034   2.291   2.326 -0.1981  0.0860 -0.1619
29810W        W45427   6.627   3.147   0.836 -0.3725  0.0595 -0.0956
29811W        W45428  18.881   3.867  14.810 -0.1345  0.1050  0.2746
29812W        W45429  15.657   7.206  13.474 -0.1809  0.0527 -0.0950
29813W        W45430   8.350  10.122   3.439  0.2235  0.0088  0.0996
29814W        W45431  11.435  10.128   2.822 -0.3177  0.0052 -0.0330
29815W        W45432   0.709  13.908  11.712  0.5126 -0.0205 -0.0047
29816W        W45433   3.892   4.080   6.009 -0.0692  0.2082  0.3289
29817W        W45434  12.746   1.163   5.267 -0.2754 -0.0325  0.1763
29818W        W45435  10.234   8.319  14.516 -0.1082 -0.2285  0.0914
29819W        W45436   0.321   5.453   4.215  0.2569 -0.0104  0.1312
29820W        W45437   9.325  12.213   5.729 -0.2126 -0.3673 -0.3552
29821W        W45438  11.733  11.223   4.960  0.0683 -0.0163  0.2028
29822W        W45439  15.060   8.071   4.318  0.1850  0.2954 -0.1874
29823W        W45440  12.216  15.032   3.423 -0.0190 -0.1547 -0.3722
29824W        W45441   8.938   6.766   4.620  0.3950 -0.1456 -0.1066
29825W        W45442  14.118   8.561  10.518  0.0987 -0.0092  0.0038
29826W        W45443   2.640   2.259  11.439 -0.2088  0.0398 -0.0634
29827W        W45444   4.008  15.446   4.515  0.2532 -0.2190 -0.1906
29828W        W45445  10.672   9.993  12.547 -0.1218  0.3961 -0.0417
29829W        W45446   4.717   3.944   4.646 -0.3815  0.1471  0.2383
29830W        W45447  11.685  15.404   2.916 -0.1287 -0.3813  0.1986
29831W        W45448  14.675   3.445  12.442 -0.2668 -0.1048 -0.0323
29832W        W45449   3.490   9.723   4.997 -0.3617  0.0507 -0.1076
29833W        W45450   8.035   9.907  14.607  0.0825 -0.2455 -0.1709
29834W        W45451  12.443  17.162  12.415  0.2785  0.1239 -0.0602
29835W        W45452  12.130   4.930  11.921  0.0783 -0.1219 -0.3726
29836W        W45453  16.934  12.356   2.858  0.1765  0.3505 -0.1980
29837W        W45454  14.522  14.547   1.874  0.0855  0.1200 -0.1340
29838W        W45455   2.385   1.155  14.487 -0.1371 -0.2133  0.2720
29839W        W45456  10.566  18.318   1.390  0.0627 -0.0687  0.0698
29840W        W45457   5.125   1.344  14.464  0.2400 -0.0775  0.1799
29841W        W45458   3.903   6.529   5.407  0.0034 -0.3033  0.0615
29842W        W45459  17.860   2.563   0.987  0.1241  0.1992  0.1112
29843W        W45460  10.990  13.635  13.891  0.2294  0.1171  0.0678
29844W        W45461  12.858   0.302   3.614  0.1340  0.0234  0.0401
29845W        W45462   5.461   2.845   3.286 -0.1504  0.3913  0.2851
29846W        W45463  12.597   2.508   5.062 -0.1700  0.2363 -0.0601
29847W        W45464   0.584   1.827   1.462  0.1670 -0.0868  0.0834
29848W        W45465  10.690  10.587   2.995 -0.1003  0.4732  0.0467
29849W        W45466   0.837   1.862  13.336 -0.0318 -0.0538  0.1160
29850W        W45467  18.803   5.719   1.696  0.1331  0.0667 -0.0735
29851W        W45468  14.704  12.713  10.650  0.0856 -0.1469 -0.0884
29852W        W45469   6.088  14.583   4.578 -0.1666  0.0198 -0.1124
29853W        W45470  19.002   2.961  13.867  0.0349  0.0444 -0.0731
29854W        W45471  16.905   8.973  14.989 -0.1448  0.1403 -0.3133
29855W        W45472   2.008  15.266   4.177 -0.1262 -0.3234  0.1012
29856W        W45473   8.361   7.895  10.635 -0.1100  0.1489 -0.2549
29857W        W45474   5.503   9.560   0.968  0.1357 -0.1111  0.0354
29858W        W45475   9.435   6.866   4.377 -0.1480  0.1052  0.1108
29859W        W45476   5.409   0.221   1.108  0.1399  0.0270 -0.3205
29860W        W45477  16.960  18.843  14.472  0.0933 -0.0462  0.3701
29861W        W45478  17.001   3.424  10.894 -0.1894  0.2825 -0.1441
29862W        W45479   7.228  17.728   5.058  0.0898  0.1302  0.1760
29863W        W45480   8.816   3.543  13.592  0.0998  0.0142  0.1260
29864W        W45481  12.812  10.190   4.510 -0.0815 -0.1531  0.0966
29865W        W45482  18.709   1.761   3.398  0.2747  0.0498 -0.2387
29866W        W45483   7.666  18.904  11.264 -0.3329 -0.1523  0.1036
29867W        W45484  18.531  17.814  13.508  0.1888  0.0183 -0.1213
29868W        W45485   5.038   6.071  12.269 -0.3337  0.2712  0.2399
29869W        W45486   9.049   8.625  13.549 -0.2237  0.2174  0.1071
29870W        W45487  13.651  18.966   1.446 -0.3268  0.1369 -0.0160
29871W        W45488  17.896   2.844  10.745 -0.1169  0.0781 -0.1153
29872W        W45489   1.245   0.748   1.809 -0.2464  0.1376  0.1106
29873W        W45490   0.472   9.022  14.240 -0.1694 -0.4694 -0.1375
29874W        W45491   3.561  18.016   5.587  0.0522  0.3238  0.1101
29875W        W45492  18.969  16.016  15.054  0.0245  0.4447 -0.0809
29876W        W45493  18.311  10.447   9.195  0.1835  0.2125 -0.2573
29877W        W45494   9.388   8.145  14.930  0.2051 -0.0696 -0.0887
29878W        W45495  13.646  15.262   1.177 -0.0216 -0.1931  0.0115
29879W        W45496   3.536   2.586  14.742 -0.0997 -0.1235 -0.0125
29880W        W45497   3.726  16.406  13.132 -0.0873  0.1407 -0.1502
29881W        W45498   7.148   4.385  14.785 -0.1542  0.0123  0.1133
29882W        W45499   2.273   8.655  12.718  0.1990  0.0970  0.1665
29883W        W45500   2.374  12.159  11.609 -0.0803 -0.1946  0.3090
29884W        W45501   3.573   4.175  13.305  0.1841 -0.0370  0.1087
29885W        W45502  17.632  13.678  11.608  0.2796  0.2001  0.0575
29886W        W45503  15.850   8.567  15.273  0.3389  0.0633  0.2907
29887W        W45504   5.339   4.595  13.970 -0.0166 -0.2927  0.0067
29888W        W45505   9.092   8.175   3.732 -0.1801 -0.0964  0.2429
29889W        W45506   3.227   0.349  15.156  0.1028  0.0669  0.0146
29890W        W45507   4.517  16.748  12.076 -0.1714  0.1502 -0.0010
29891W        W45508   3.568  11.265   1.321 -0.2984 -0.0121 -0.2915
29892W        W45509  18.327  11.606   0.648 -0.2708 -0.1119  0.1823
29893W        W45510   3.670   3.105   5.085 -0.0005 -0.0477 -0.0037
29894W        W45511  16.671   2.029  14.474 -0.2038  0.0580  0.0786
29895W        W45512   7.583  10.634  14.097 -0.3947  0.1110 -0.2256
29896W        W45513  11.317   7.244   2.531  0.0698  0.0025  0.0106
29897W        W45514  10.465   1.651  10.376  0.0629  0.0736  0.0242
29898W        W45515   0.501   7.012   0.628  0.4252  0.1554  0.1666
29899W        W45516  13.544   6.901  13.522 -0.2289  0.1109  0.0898
29900W        W45517   0.397   8.870  15.224 -0.0815 -0.1316 -0.1153
29901W        W45518   4.283  15.108   3.865 -0.0546  0.3364 -0.3170
29902W        W45519   1.360   8.638   1.383  0.0205  0.0627  0.1948
29903W        W45520  15.317   4.096  12.147 -0.1049  0.1528  0.0869
29904W        W45521  16.080   4.251   5.163  0.3505 -0.3279 -0.1324
29905W        W45522   6.710  15.472  14.566  0.2222  0.0600  0.0162
29906W        W45523   4.709   5.125   1.697 -0.1294 -0.1032  0.0557
29907W        W45524  10.826   9.434  14.235  0.2195 -0.1226  0.0904
29908W        W45525  12.611   7.799   3.232 -0.2122  0.1940 -0.4607
29909W        W45526   5.480   1.267  14.810  0.1278  0.2058 -0.0273
29910W        W45527  12.039   3.083   3.178  0.2203  0.0371 -0.2032
29911W        W45528   3.936  17.302   1.985  0.2954  0.1243  0.0718
29912W        W45529   2.831  13.350   1.434  0.0464  0.0704 -0.0915
29913W        W45530   2.952   7.300   4.221  0.0516  0.2024 -0.0523
29914W        W45531  14.392  18.548   3.855  0.1679 -0.0444  0.2084
29915W        W45532   1.074  17.770   0.596  0.1420  0.2056 -0.1527
29916W        W45533   1.178  14.885   3.070  0.0317 -0.2938 -0.1990
29917W        W45534   4.267   4.235  14.783  0.1763 -0.0176  0.1498
29918W        W45535  14.117  10.580  10.937 -0.0954 -0.0855  0.0679
29919W        W45536   6.181  10.113  13.747 -0.0407  0.3271 -0.0304
29920W        W45537   3.613  18.783   2.187 -0.1645  0.0263  0.2452
29921W        W45538   9.231   8.724   1.849  0.1810 -0.1021 -0.0859
29922W        W45539   4.227   5.099  14.729  0.1482 -0.1669  0.2653
29923W        W45540   0.256   1.076  10.791  0.2567 -0.3832 -0.0017
29924W        W45541  15.465   9.660   3.208  0.4202 -0.2749  0.1083
29925W        W45542  10.152   2.712   3.487 -0.5721  0.3197  0.2880
29926W        W45543  11.769   6.695   2.922 -0.1923 -0.0286 -0.1142
29927W        W45544  12.310   4.960   0.385 -0.0324  0.0874 -0.2208
29928W        W45545   1.166  13.682   5.249 -0.1735 -0.1380  0.0659
29929W        W45546  16.913  18.389  14.744 -0.0660  0.0838  0.0211
29930W        W45547   1.498  13.360  12.589 -0.1324 -0.0601 -0.0026
29931W        W45548   2.301   1.036  10.034  0.0391  0.4015  0.1489
29932W        W45549  14.881  10.037  10.512  0.0692  0.0288  0.2345
29933W        W45550   2.928   1.533  10.518 -0.0954  0.2053  0.2006
29934W        W45551  17.153   9.465   4.618 -0.1705  0.0075 -0.1043
29935W        W45552   3.737   0.173   4.055  0.4154 -0.0220 -0.2621
29936W        W45553  17.780   7.235   0.137  0.2674 -0.2430  0.1721
29937W        W45554   7.277   0.187  12.813 -0.2947  0.0217  0.2541
29938W        W45555  11.710   4.043  13.320  0.2694  0.0424 -0.1005
29939W        W45556  16.317  15.174  11.549 -0.0231 -0.1905  0.0077
29940W        W45557   2.141  12.823  13.291 -0.1512 -0.1478  0.1086
29941W        W45558   5.966   2.666  14.686 -0.2829 -0.2355  0.0356
29942W        W45559  11.437  13.184  13.731  0.1654  0.2107 -0.2234
29943W        W45560  10.448   2.173   4.371 -0.1279  0.2642  0.2733
29944W        W45561  12.307  14.277   4.125  0.2470  0.0831  0.3330
29945W        W45562  11.690   3.576  10.994 -0.0965 -0.3086  0.1439
29946W        W45563   5.779  15.905   2.693 -0.3799 -0.3258  0.0406
29947W        W45564   7.619  11.629  15.064  0.1981 -0.1295 -0.1702
29948W        W45565  12.197   7.868  12.892 -0.1290 -0.1372 -0.2025
29949W        W45566   7.029  17.475   0.821  0.0796  0.0991  0.1910
29950W        W45567   7.959   0.592   5.223 -0.0776  0.2371  0.1697
29951W        W45568  17.926   7.479   1.363 -0.0804  0.0188  0.2189
29952W        W45569   4.623  18.820   3.897  0.1430 -0.0753  0.0431
29953W        W45570   0.055  13.871   0.699 -0.2095 -0.0467  0.1830
29954W        W45571   6.433   6.464   5.274 -0.0679 -0.1310 -0.1869
29955W        W45572   6.347  12.214  11.348 -0.0932 -0.1143  0.1461
29956W        W45573  12.226   3.221   0.411  0.1381 -0.2458 -0.2660
29957W        W45574  15.192  14.440   3.524  0.2425  0.0614  0.1042
29958W        W45575  13.839   3.722   0.033  0.2984 -0.4726 -0.1992
29959W        W45576  16.892  14.698  11.098  0.2055 -0.0822  0.0772
29960W        W45577  18.382   9.389   0.099 -0.0863 -0.2066  0.0233
29961W        W45578   9.497   9.469  11.778 -0.1912  0.0204  0.4648
29962W        W45579   6.897  14.911  12.870 -0.2239 -0.0749 -0.1025
29963W        W45580  18.394   1.512  10.911  0.0480 -0.3568  0.0285
29964W        W45581  17.547   8.655   4.464 -0.0695 -0.1343 -0.1020
29965W        W45582  17.610  15.498   1.757  0.2404  0.1198 -0.1860
29966W        W45583   2.458   3.743  13.769  0.2414  0.1497 -0.0553
29967W        W45584  16.634   6.691   1.927  0.2655  0.0201  0.0113
29968W        W45585  15.977   4.190   2.182 -0.0902  0.1055 -0.1888
29969W        W45586   7.124  12.716  10.919  0.2470  0.2701 -0.3616
29970W        W45587  18.569   2.406  11.303 -0.2667  0.1256  0.1919
29971W        W45588  13.745   6.709   4.016 -0.2349  0.0704  0.2426
29972W        W45589  13.454   5.634  11.305 -0.1422  0.1084 -0.0154
29973W        W45590   0.679  17.142  12.597  0.1059  0.1724  0.0925
29974W        W45591   3.625  11.020  14.872  0.0148  0.1845  0.3430
29975W        W45592   3.961   4.049   1.918  0.2816 -0.4190  0.0530
29976W        W45593   3.399   5.583   2.144  0.0199  0.0556  0.1706
29977W        W45594   9.761  18.025  10.528 -0.1472  0.0558 -0.1786
29978W        W45595   2.571  13.111  11.773  0.4854 -0.2246 -0.1745
29979W        W45596   4.135  14.502  14.527 -0.0016  0.3913  0.0999
29980W        W45597   4.800  15.805   1.738 -0.0302 -0.0905  0.1221
29981W        W45598  14.859   6.207  10.021  0.0012 -0.6364 -0.2220
29982W        W45599   5.123  12.967  13.103  0.0720  0.0825 -0.1118
29983W        W45600  15.819  11.497   3.521 -0.1717 -0.1666 -0.0550
29984W        W45601  16.069   1.271  10.635  0.0551 -0.0099  0.0860
29985W        W45602   4.143   4.247  12.333  0.0337  0.0249 -0.3751
29986W        W45603   8.159   4.006   1.882 -0.0297 -0.0064 -0.1287
29987W        W45604   0.629  17.211   0.420  0.5028  0.1768  0.1724
29988W        W45605  14.653  17.999   1.573  0.0015  0.1918  0.1187
29989W        W45606  18.327   1.091  14.112  0.1613 -0.0887  0.1477
29990W        W45607  12.883  12.620  12.455  0.2770 -0.0076  0.0673
29991W        W45608   0.048   6.820   2.164  0.3650 -0.1338  0.1744
29992W        W45609  18.344  14.396  10.113 -0.0559  0.0826 -0.3407
29993W        W45610  18.593  14.671   3.586  0.3169 -0.1132  0.0944
29994W        W45611  10.713  17.425   3.615 -0.0126  0.0460 -0.0800
29995W        W45612  15.856   1.748  15.214 -0.0855  0.2295 -0.2824
29996W        W45613  11.930  15.526   0.879  0.0230  0.0506 -0.0432
29997W        W45614  12.553   2.689  10.395  0.0865 -0.1112 -0.2024
29998W        W45615   3.861   8.752  14.511 -0.4252 -0.2986 -0.3038
29999W        W45616   5.956   1.623  10.773 -0.2227  0.0271 -0.0395
30000W        W45617  11.844   2.884  14.521 -0.0416 -0.1859  0.0316
30001W        W45618  12.723  16.744   3.043 -0.0874  0.2591  0.2572
30002W        W45619  16.549   6.985  11.339  0.1257 -0.3921  0.1757
30003W        W45620  13.568   6.402   0.130 -0.2751  0.1944 -0.0701
30004W        W45621   4.196  17.839   2.976 -0.2804  0.1328 -0.0560
30005W        W45622   7.790   5.015  13.035  0.0764  0.1016 -0.1495
30006W        W45623   0.359  10.427   0.789  0.0586 -0.1744 -0.0140
30007W        W45624  12.468  15.223   4.822 -0.1885  0.1064  0.1347
30008W        W45625  15.551   6.010   0.702 -0.3095 -0.1018  0.0534
30009W        W45626   3.963   0.115  15.224 -0.2279  0.1574 -0.3234
30010W        W45627   7.400   7.762   2.265  0.2903 -0.2102 -0.4458
30011W        W45628   2.764   8.820  10.256 -0.0575 -0.1132  0.4345
30012W        W45629   0.663   3.012   4.239 -0.0259 -0.2258 -0.0087
30013W        W45630  18.186   1.717   3.212 -0.2710 -0.2827  0.0527
30014W        W45631  12.807  14.385   0.775  0.0505 -0.0184 -0.0265
30015W        W45632   1.662  13.481  14.859 -0.2644  0.1716  0.2949
30016W        W45633   3.888   6.681  13.766 -0.2246  0.0845 -0.0265
30017W        W45634  15.830   6.553  12.232  0.1325 -0.3697  0.1886
30018W        W45635  10.490  12.219  12.163  0.2279  0.0719 -0.1247
30019W        W45636   4.645   9.763   4.426  0.1132  0.1040 -0.1497
30020W        W45637   7.881   4.399   3.464  0.0852  0.0644 -0.3465
30021W        W45638  15.566  15.519  12.576  0.3219 -0.0057  0.5426
30022W        W45639   3.291   6.242  13.253  0.1056 -0.0711  0.0350
30023W        W45640   8.579  10.855   0.624 -0.0262 -0.3244 -0.3564
30024W        W45641  14.901  13.608   2.439  0.0181 -0.0480  0.0294
30025W        W45642   8.146   0.397  13.750  0.0549 -0.1245 -0.0930
30026W        W45643  15.653   6.665  13.570 -0.3827  0.0270  0.0783
30027W        W45644   6.250   8.797  11.382 -0.0148 -0.2603 -0.0458
30028W        W45645  10.450  16.051   2.428  0.0401  0.0393  0.0405
30029W        W45646   2.992  18.020  12.638 -0.1457  0.2433  0.2623
30030W        W45647   3.740   7.632  13.644  0.4782  0.0035 -0.2371
30031W        W45648  17.711  18.846   0.578 -0.2024  0.2882 -0.3814
30032W        W45649  11.102   1.027  11.323  0.0052  0.1686  0.0285
30033W        W45650  16.372  10.512  11.199  0.1042  0.4153 -0.0262
30034W        W45651  16.191   1.417   5.245  0.0243 -0.2272 -0.1960
30035W        W45652  17.874  16.049   5.055 -0.0397  0.0055 -0.1484
30036W        W45653   0.747  16.715  14.375 -0.2279 -0.3911  0.1840
30037W        W45654   1.498   5.180  12.226  0.0258 -0.2581 -0.2707
30038W        W45655  17.870   4.948   3.840  0.5071 -0.0808  0.0454
30039W        W45656   4.668  11.419  10.967 -0.1362  0.0090  0.1192
30040W        W45657  11.367   4.295  11.863  0.2555 -0.2359  0.1236
30041W        W45658   4.554  13.132  10.796  0.2691 -0.1485  0.2260
30042W        W45659   4.332  18.122  13.020 -0.1020  0.0233  0.1675
30043W        W45660   8.331  15.221   1.549  0.3790 -0.1452 -0.0468
30044W        W45661   7.549  12.389  12.210  0.0681 -0.1740 -0.0928
30045W        W45662  18.439   5.269   5.481  0.0967  0.0866  0.0300
30046W        W45663   6.910  10.923  10.359 -0.0438  0.1043 -0.1406
30047W        W45664  13.447   7.231  11.984 -0.0698 -0.0742  0.2616
30048W        W45665   8.817   3.438   2.102 -0.0654 -0.0533  0.2056
30049W        W45666  18.789  16.453  15.045 -0.1418 -0.3325  0.1774
30050W        W45667   7.988  11.777  12.319  0.4079 -0.2827  0.0218
30051W        W45668   5.498  10.548  13.851  0.0209 -0.1634 -0.2305
30052W        W45669   7.254   9.353  13.119  0.2626  0.3849  0.0067
30053W        W45670   5.898  15.585  13.382 -0.3082  0.1632 -0.1581
30054W        W45671   9.252  11.087   1.582  0.1722  0.1100 -0.0678
30055W        W45672  15.671  15.160   0.225  0.0038  0.3066 -0.3844
30056W        W45673  14.022   0.674   0.505  0.0497 -0.1247 -0.0875
30057W        W45674   3.987  14.648  11.437  0.0841  0.1770 -0.0123
30058W        W45675   9.626   3.725  14.376  0.0972 -0.3145 -0.0446
30059W        W45676   7.657  17.915   3.632 -0.5017 -0.3071 -0.4945
30060W        W45677  12.485  18.370   4.578  0.0676  0.1955 -0.3682
30061W        W45678   5.218   6.765   0.244 -0.0247  0.0219  0.0518
30062W        W45679   5.705  11.614   5.345  0.0350 -0.0689  0.0996
30063W        W45680   7.167   7.440  13.247  0.0095  0.1004  0.1305
30064W        W45681   4.056   8.030  12.786  0.1094 -0.2816  0.2547
30065W        W45682   4.575   5.401  11.013  0.0154  0.0208  0.3889
30066W        W45683  12.375  10.956  12.127  0.0401 -0.2716 -0.0649
30067W        W45684  16.054   3.980   0.820  0.4198 -0.1705 -0.2796
30068W        W45685   6.169   5.975  15.241  0.0110  0.2323 -0.1345
30069W        W45686  13.606  12.631  11.807 -0.0353 -0.3300 -0.1808
30070W        W45687  14.579  16.676  13.990  0.0772 -0.2352 -0.1152
30071W        W45688   2.890   9.891  14.704 -0.0302  0.0579  0.0156
30072W        W45689  18.773  14.033   4.154  0.2172 -0.0141  0.1769
30073W        W45690   0.485  11.712  10.917 -0.0067  0.1671  0.2568
30074W        W45691  15.918  16.349  10.408 -0.0662  0.2490  0.0636
30075W        W45692  18.556  15.981   5.486 -0.2559 -0.1848  0.3269
30076W        W45693   7.061  14.117   1.509  0.0288  0.4928  0.2326
30077W        W45694   0.681   5.201   4.514 -0.2616 -0.2212  0.0490
30078W        W45695  11.975  12.669   2.460 -0.3080 -0.0435 -0.2863
30079W        W45696  18.764   8.964   4.137 -0.3684 -0.0060 -0.2783
30080W        W45697   7.660  14.511   2.876 -0.1007 -0.0600  0.1951
30081W        W45698  15.332   4.155   1.106 -0.2316  0.2159 -0.2733
30082W        W45699   6.356   3.254   3.441  0.0622 -0.0185  0.1221
30083W        W45700  16.921   9.997   1.910 -0.0011 -0.0442  0.1671
30084W        W45701   1.367   3.579   0.028 -0.0881 -0.0526  0.4299
30085W        W45702   5.526   0.371  12.701  0.0525  0.2377  0.2273
30086W        W45703   4.744  14.269   0.967  0.2968 -0.1950  0.1577
30087W        W45704   5.042  13.991   2.110  0.0553 -0.0647  0.0581
30088W        W45705  11.114   7.587   3.780  0.3289 -0.0627  0.2678
30089W        W45706   7.083   6.115   0.398  0.0073 -0.0551  0.0082
30090W        W45707   8.130   6.039  11.107  0.0193  0.0093  0.0421
30091W        W45708   8.866   4.419  10.558  0.0038 -0.2634 -0.2347
30092W        W45709  13.507  13.582   4.786 -0.1726 -0.1022 -0.0344
30093W        W45710   7.767   1.380  12.528  0.0532  0.0075  0.1882
30094W        W45711   4.263   9.490   2.942  0.0229  0.1183  0.0165
30095W        W45712  11.862   0.340   3.885 -0.0398 -0.0998 -0.0498
30096W        W45713  10.753  16.833   3.590  0.2383  0.1311  0.0041
30097W        W45714   9.298   7.316   4.707  0.5636  0.0168 -0.1607
30098W        W45715   1.672   6.621   1.328  0.0185  0.0115  0.2449
30099W        W45716  18.389  14.324  13.238  0.2411 -0.0850 -0.1117
30100W        W45717   4.306   7.989   0.305 -0.1501 -0.0826 -0.0875
30101W        W45718   6.116   8.323  12.805 -0.1581  0.3376 -0.0324
30102W        W45719   3.392   8.422  11.726  0.0165  0.0595  0.0723
30103W        W45720   5.981   4.187  10.901  0.0184  0.1446  0.0231
30104W        W45721  18.449   2.895   2.336  0.0122  0.0596  0.2939
30105W        W45722   8.923  12.571   0.863  0.0620 -0.1412  0.4487
30106W        W45723   6.235   7.877   0.727  0.2748  0.3034  0.0620
30107W        W45724   9.894   5.001  14.592  0.4474  0.2806 -0.4434
30108W        W45725   5.149   5.794   0.037 -0.2170 -0.2189 -0.0717
30109W        W45726  15.030   6.575  13.470  0.1934  0.3445  0.0140
30110W        W45727   4.764  18.361  13.086 -0.0958  0.1643  0.2920
30111W        W45728   6.712  12.309   0.990 -0.0483 -0.2386  0.2425
30112W        W45729  17.091  13.895   4.717  0.3695  0.1533 -0.0130
30113W        W45730  18.518  16.557  11.520 -0.1263 -0.1143  0.0727
30114W        W45731   5.894  10.345   1.223 -0.0989 -0.4320 -0.0154
30115W        W45732  12.093  16.110  11.686 -0.0419 -0.2722 -0.1780
30116W        W45733   0.950   7.779  15.181  0.2414  0.0325  0.0090
30117W        W45734  11.912   7.664   0.895  0.0109 -0.1372  0.2029
30118W        W45735   6.890   8.188   1.394 -0.3676  0.2508 -0.1596
30119W        W45736   6.701   9.503  11.329 -0.2058  0.3002 -0.0118
30120W        W45737  16.605   6.409   5.072  0.1386 -0.1555  0.2554
30121W        W45738  14.796   1.917  10.841 -0.1825  0.0377 -0.1404
30122W        W45739  18.354   6.028   3.044  0.2211  0.1506  0.1558
30123W        W45740   8.572  17.568  13.682 -0.1695 -0.2612 -0.1010
30124W        W45741  15.462  14.631   0.120  0.4786  0.0116 -0.0117
30125W        W45742  18.564   4.117  13.040 -0.0511 -0.0416  0.0930
30126W        W45743   7.333   8.071   0.508  0.2094 -0.0742 -0.1734
30127W        W45744   0.335   4.747  12.768 -0.0461 -0.0135  0.2428
30128W        W45745   5.807  11.824   3.793 -0.0827  0.4801  0.4280
30129W        W45746   3.921   1.614   3.330 -0.0669  0.0899  0.1334
30130W        W45747   2.437  12.457   2.444  0.1499 -0.1427  0.2766
30131W        W45748   4.535  15.478   1.387  0.0286 -0.4152  0.2113
30132W        W45749  14.242   7.956   4.501 -0.0742  0.0780 -0.2693
30133W        W45750   3.050   4.302   2.648 -0.0217 -0.2078  0.0868
30134W        W45751   2.934   6.016   5.194 -0.1579 -0.2406  0.0667
30135W        W45752   2.915  12.520   5.086  0.3084  0.4021  0.2540
30136W        W45753  10.572  10.829   2.156 -0.0561  0.0180  0.1536
30137W        W45754   0.115   7.239   0.907 -0.2366 -0.0507  0.4406
30138W        W45755  14.202  16.438   4.414  0.2955 -0.1809  0.5029
30139W        W45756   5.003  17.532  13.520  0.3280 -0.1614  0.3271
30140W        W45757   1.319   6.612  12.547  0.3434  0.0629 -0.3845
30141W        W45758   5.695  17.202  14.032  0.3090 -0.1202  0.2227
30142W        W45759  18.744   1.540  13.873  0.0095 -0.1174 -0.1548
30143W        W45760  16.203   5.267   0.978  0.1859 -0.2324 -0.0095
30144W        W45761  13.659   7.754  10.818 -0.0536  0.1163 -0.0112
30145W        W45762  13.885  12.183   0.566 -0.0590 -0.1950  0.1881
30146W        W45763  18.347   8.158   3.192 -0.0643 -0.1079 -0.0842
30147W        W45764   5.387   2.674   0.115 -0.0614 -0.0966 -0.1316
30148W        W45765   8.525  13.778   2.467  0.0187 -0.4254 -0.1495
30149W        W45766  18.659   1.945  11.608  0.2513 -0.1174  0.1503
30150W        W45767   2.841  14.144  13.254  0.3020 -0.1776 -0.1175
30151W        W45768  18.091   6.096  12.781  0.0173 -0.0744  0.0383
30152W        W45769   7.286  13.772   3.388  0.2874  0.3668 -0.0796
30153W        W45770   7.663  16.826  14.884 -0.3791 -0.0366  0.2259
30154W        W45771   3.769   3.680   5.763  0.2629 -0.0223 -0.2041
30155W        W45772  10.651  14.327  12.673 -0.3677  0.2495  0.1452
30156W        W45773  14.492   6.642   0.429 -0.2913  0.0022  0.2083
30157W        W45774   9.454  15.745   0.481 -0.1549  0.1125  0.0495
30158W        W45775  11.777  10.384   4.855  0.0378  0.1257 -0.2552
30159W        W45776  13.682   2.029   3.008  0.1349  0.3313 -0.1369
30160W        W45777  13.336   2.768   5.533 -0.2014 -0.2376 -0.0415
30161W        W45778   9.035  17.459   1.255 -0.0312  0.1493 -0.0641
30162W        W45779   1.404   4.188  13.599 -0.1441  0.1545  0.0371
30163W        W45780  13.860   3.526   1.613  0.1831  0.0501  0.0486
30164W        W45781   5.042  14.204  12.361 -0.0590 -0.0177 -0.1197
30165W        W45782   4.294   2.679  12.071  0.0307 -0.0466  0.1993
30166W        W45783  13.735   3.549   3.236  0.0406 -0.0601  0.1710
30167W        W45784  16.150   8.834  10.404 -0.1594  0.0257  0.1239
30168W        W45785  13.940   9.231  11.750 -0.1506  0.0133 -0.0864
30169W        W45786   1.905   2.218   1.102  0.0767  0.2157  0.3233
30170W        W45787   6.269   4.436   4.095  0.1540  0.2939  0.0700
30171W        W45788   4.418   5.313   5.481 -0.1092 -0.0354  0.2154
30172W        W45789  15.981  12.217   1.616  0.0823 -0.0885  0.0959
30173W        W45790  17.448  16.861  13.270  0.2376 -0.1889  0.1525
30174W        W45791   4.837   9.693  14.741  0.0706 -0.1772 -0.1299
30175W        W45792   5.860  16.708  13.977 -0.0892  0.1422  0.0107
30176W        W45793  10.549   2.703   2.135  0.1813 -0.0556 -0.1999
30177W        W45794  13.502   1.627   1.311 -0.1031  0.3421 -0.2223
30178W        W45795   9.548  15.634   4.013 -0.0222  0.0289 -0.0764
30179W        W45796   6.550   5.794  14.456 -0.0951  0.1542  0.0778
30180W        W45797  15.636   7.453  10.753  0.2299 -0.1074  0.0137
30181W        W45798  17.460   5.421   5.213 -0.1942 -0.1570  0.0676
30182W        W45799  18.939  15.157  14.110 -0.1179  0.0819 -0.2300
30183W        W45800   3.304   4.720   1.391 -0.3664  0.1790  0.1098
30184W        W45801  12.968   2.330   3.650  0.0346  0.0674 -0.2372
30185W        W45802   7.603   5.675  14.256 -0.2513 -0.3666  0.0067
30186W        W45803  19.002   2.320  14.617 -0.0775  0.0375 -0.2453
30187W        W45804   4.188   9.943  12.036 -0.1563 -0.2192  0.1836
30188W        W45805  14.142  13.773   4.025 -0.1582  0.5014 -0.1546
30189W        W45806   3.955   4.475   4.252 -0.0498  0.1103  0.3783
30190W        W45807  12.231   4.150  11.505  0.2320  0.0451  0.2255
30191W        W45808   4.869  10.053   3.162 -0.1544 -0.1994 -0.0028
30192W        W45809   2.669  11.103  12.409 -0.0995  0.2749  0.1377
30193W        W45810  12.845  10.633   4.817  0.0513  0.0612 -0.4255
30194W        W45811   4.234   6.757   0.259  0.1044  0.1676 -0.1099
30195W        W45812  18.690   3.362  14.720  0.3884 -0.2660 -0.0419
30196W        W45813  14.092   1.618   0.397  0.0298 -0.1181  0.2416
30197W        W45814  18.756   9.898  10.334  0.4301  0.3107 -0.3535
30198W        W45815  14.479   2.584  14.495  0.0601  0.5060  0.2554
30199W        W45816   7.829   3.710   4.127 -0.0042  0.3319 -0.2445
30200W        W45817   8.328   4.584  10.361  0.1042  0.1663 -0.1222
30201W        W45818  16.978   0.258   4.670 -0.3346  0.3647  0.1394
30202W        W45819   3.785   8.158  10.332  0.1708  0.0727  0.0962
30203W        W45820  10.274   3.029  12.056  0.3012 -0.3129 -0.2238
30204W        W45821  11.047   1.900   1.292  0.1580 -0.0911 -0.2373
30205W        W45822  14.204   1.557   3.083 -0.2106  0.2618  0.3908
30206W        W45823   6.739   0.165  10.250  0.0567 -0.3235 -0.3247
30207W        W45824   7.276  13.198   1.788 -0.0524 -0.0938 -0.1301
30208W        W45825   4.307   9.988   3.072  0.2737 -0.0878 -0.1229
30209W        W45826   7.017  17.508  11.850  0.2617  0.1369 -0.0238
30210W        W45827  13.150   1.773  12.214  0.0526  0.1012  0.1225
30211W        W45828  13.841   9.265   2.315  0.0970  0.1660  0.3437
30212W        W45829  15.541   9.419  10.741 -0.0310 -0.0514  0.0199
30213W        W45830  12.051  15.991   3.971  0.0850  0.0619  0.1033
30214W        W45831   2.230   9.316   3.422  0.0308 -0.2894  0.0592
30215W        W45832   0.871  19.018  13.772  0.1909  0.1730 -0.0015
30216W        W45833   6.617   7.916   4.180  0.3766 -0.0779 -0.0684
30217W        W45834   9.976  12.199   4.717  0.2210 -0.0125  0.1277
30218W        W45835   0.554   2.232   1.852 -0.0931 -0.0710 -0.1049
30219W        W45836  16.066  14.753  11.296 -0.0396 -0.1313 -0.0376
30220W        W45837  12.385   2.992  13.635 -0.0996  0.0133  0.0545
30221W        W45838  18.615   1.510   0.658 -0.2321 -0.0702  0.2214
30222W        W45839   6.027   2.001  11.741 -0.0642  0.1113  0.1902
30223W        W45840  14.953   5.780  14.417  0.1646  0.2229 -0.0889
30224W        W45841  15.974   8.466   1.268  0.0175 -0.3702 -0.0468
30225W        W45842  13.722  15.776  13.074  0.1883 -0.0511  0.0576
30226W        W45843   0.507   5.181  14.695  0.0375 -0.0538 -0.2411
30227W        W45844   0.679   8.672  11.607  0.2567 -0.0398 -0.1127
30228W        W45845   7.037   8.297  13.527  0.0949  0.0739 -0.0166
30229W        W45846  13.985  11.926  12.193  0.0553  0.3044 -0.1492
30230W        W45847   9.878  14.238   0.378  0.0409 -0.1570  0.0837
30231W        W45848  13.717  12.847  15.167 -0.0588  0.2477 -0.1151
30232W        W45849   9.355   5.145   1.657  0.3095  0.1371 -0.3844
30233W        W45850  13.308   7.036  12.457 -0.0783  0.1214  0.3371
30234W        W45851  15.166   3.347   2.035  0.1590  0.3025  0.6047
30235W        W45852   8.486   2.486   2.207 -0.1754 -0.0349 -0.1109
30236W        W45853  16.180   6.531   2.655 -0.0145  0.0476  0.2361
30237W        W45854  12.468   3.926   4.470  0.3584 -0.1585 -0.3492
30238W        W45855   9.799   4.448   1.970  0.2619  0.3124  0.1146
30239W        W45856   8.105   9.082  11.411 -0.1406 -0.3762 -0.1851
30240W        W45857   5.365  11.469  13.586  0.4212  0.1176 -0.2637
30241W        W45858  14.765   7.866  13.018  0.1676  0.0669 -0.3636
30242W        W45859  14.639  15.869  12.392  0.2798  0.0690  0.4517
30243W        W45860  11.560  16.165   6.159  0.3200  0.0115 -0.2968
30244W        W45861  12.864  18.323  12.405 -0.3146 -0.6351  0.0376
30245W        W45862  12.574   1.188  14.762 -0.0638 -0.4086 -0.1201
30246W        W45863  17.597   9.023  13.197  0.1580  0.0487  0.1866
30247W        W45864  13.113   1.636   1.677 -0.2271  0.1219 -0.1038
30248W        W45865  14.754  13.602  11.855  0.0807 -0.1666 -0.0914
30249W        W45866  14.591  10.163  11.820 -0.1915  0.1170  0.0118
30250W        W45867   5.279   2.549   5.920  0.0507  0.0099 -0.4023
30251W        W45868   0.601  15.282  12.419  0.1552 -0.1738 -0.0374
30252W        W45869   0.829   9.425  13.326  0.1735 -0.0368  0.0899
30253W        W45870  12.752   6.479   2.584 -0.0965 -0.0193  0.0977
30254W        W45871   6.568   4.567  13.444  0.3002 -0.2081 -0.0285
30255W        W45872   6.604   6.160   0.637 -0.2308 -0.1578  0.2437
30256W        W45873   3.400   2.165   5.505 -0.3428 -0.1531  0.0413
30257W        W45874   0.045   5.419   1.149  0.2358  0.3427  0.1890
30258W        W45875   6.735   3.594   9.582 -0.3740  0.1359  0.1405
30259W        W45876  12.496  17.141   2.761 -0.2575  0.0048  0.1425
30260W        W45877   2.342  13.096   3.849 -0.2165 -0.0498  0.3619
30261W        W45878   5.196   7.720  11.641  0.1131 -0.1097  0.0525
30262W        W45879   5.592  12.604  10.031  0.0314  0.1263 -0.0555
30263W        W45880   2.357  16.178  10.204 -0.0024 -0.0940 -0.1705
30264W        W45881   2.808  17.977  14.952 -0.0977  0.1016  0.2491
30265W        W45882   2.746  10.140   5.315  0.3163 -0.1510 -0.1253
30266W        W45883  16.475   9.207  12.243 -0.0486  0.2622  0.1660
30267W        W45884  14.257   4.920   0.025  0.4256 -0.1262  0.1058
30268W        W45885  10.769  16.111  13.166  0.0358  0.0230  0.3703
30269W        W45886   8.038   7.324  12.721  0.1060 -0.1311 -0.2411
30270W        W45887   7.464   6.189   4.040  0.0498 -0.2938 -0.0715
30271W        W45888   7.852  19.065  11.749  0.1259  0.0617  0.1217
30272W        W45889   3.711   2.407  15.166 -0.0718 -0.0490 -0.3174
30273W        W45890  15.830  13.918   2.402 -0.0037  0.1908 -0.0755
30274W        W45891   2.592   6.571   4.393  0.0166 -0.2015  0.3010
30275W        W45892   5.881  16.330   4.600 -0.2741 -0.3096  0.1361
30276W        W45893   0.531  11.009  14.704 -0.1907  0.1357  0.3150
30277W        W45894   2.064   3.162   4.820  0.6137 -0.0817 -0.1993
30278W        W45895   5.226  18.434   4.352 -0.0384  0.1011 -0.0102
30279W        W45896   9.870  10.205  12.739  0.1451  0.0187  0.1958
30280W        W45897  18.854   8.011  12.235  0.2626  0.3835  0.0236
30281W        W45898   3.855   5.021   4.487  0.0633  0.0510  0.0910
30282W        W45899   2.013  13.804  14.770  0.2572  0.0647  0.2307
30283W        W45900   4.693  11.139  11.842  0.2160  0.0782 -0.2274
30284W        W45901  10.420   5.508  11.252  0.1613  0.1099 -0.0137
30285W        W45902  11.539   6.419   2.136  0.1692  0.1001  0.0631
30286W        W45903   0.556   3.878  11.593  0.1968 -0.1853  0.0078
30287W        W45904   3.609  17.670   4.912 -0.1811  0.0908 -0.2674
30288W        W45905   2.841   0.148  13.389  0.2855 -0.0329 -0.2354
30289W        W45906  15.079  10.321  13.212  0.2372  0.4159 -0.0044
30290W        W45907   5.746  16.458  11.800  0.3610  0.0191 -0.0061
30291W        W45908   6.388   7.505   4.987  0.0608 -0.1361  0.1308
30292W        W45909   7.988  13.113   3.807 -0.4331  0.1997 -0.2540
30293W        W45910   2.870  17.990   3.084 -0.2058  0.2838  0.2604
30294W        W45911   0.756   0.261  12.407  0.4531 -0.4477 -0.1312
30295W        W45912   2.689  17.004  14.514  0.3873 -0.1115  0.1857
30296W        W45913  18.974   9.595   9.940  0.2085 -0.2052 -0.0765
30297W        W45914  18.881   6.194  13.403 -0.3409 -0.0259  0.1578
30298W        W45915   2.224   3.880  10.136 -0.1017  0.2816 -0.0186
30299W        W45916   2.763  15.027  13.543 -0.3090 -0.2216  0.0731
30300W        W45917  18.876   7.246   4.065  0.2208 -0.0053 -0.1440
30301W        W45918   7.966  17.941  14.185  0.0839 -0.0599 -0.0033
30302W        W45919  11.280   9.105  14.977 -0.2447 -0.1271 -0.0669
30303W        W45920  12.561  10.891  11.177  0.0817 -0.0549 -0.1194
30304W        W45921   7.698  13.463  11.992  0.1968 -0.0326 -0.0118
30305W        W45922  17.494   1.715  13.001  0.0242 -0.0976 -0.1995
30306W        W45923  10.673   4.899   3.815 -0.1714  0.2621  0.0309
30307W        W45924  10.113   5.299   2.258  0.0100 -0.2310  0.0175
30308W        W45925  10.318  12.287   0.665 -0.0736  0.2524  0.0559
30309W        W45926  10.208   1.090   1.476 -0.0272 -0.0539 -0.1404
30310W        W45927  17.674   0.360  10.831 -0.1440  0.1354  0.0708
30311W        W45928   6.033   5.550  11.623  0.0038 -0.2918  0.3599
30312W        W45929  18.204  13.923  10.837 -0.2023 -0.2660 -0.2104
30313W        W45930   4.997   7.154   3.147  0.1603 -0.3340  0.2558
30314W        W45931  10.578  12.771  13.841 -0.2660 -0.2403  0.1687
30315W        W45932   4.597  13.505   2.846  0.3071  0.1159  0.2742
30316W        W45933  16.692   2.263   1.143  0.1267 -0.2196 -0.0323
30317W        W45934   6.955   8.738   4.649 -0.1506  0.1137 -0.0997
30318W        W45935  13.890  18.186   5.707 -0.0636 -0.0623 -0.0295
30319W        W45936   8.722   9.847   2.274  0.0833 -0.0715  0.4904
30320W        W45937  18.371  10.325  10.582 -0.1130 -0.1598 -0.1441
30321W        W45938  13.628  12.312   4.608  0.3266  0.4032  0.2993
30322W        W45939   8.951   6.733  10.919 -0.0647  0.4596 -0.0352
30323W        W45940   4.921  14.815  11.369 -0.3002  0.1280 -0.3182
30324W        W45941  12.259  16.397   3.363  0.2757  0.2007 -0.0788
30325W        W45942  18.991   9.172  11.857  0.0924  0.1190 -0.0244
30326W        W45943  16.336  15.391   5.116  0.0981 -0.0862 -0.0794
30327W        W45944   8.940  10.117   4.385  0.3196 -0.0324  0.1036
30328W        W45945  10.404  10.067   0.718 -0.2325  0.1301  0.0297
30329W        W45946  11.608   4.573   4.571  0.2134 -0.2350  0.0479
30330W        W45947   9.449  10.679  12.013 -0.2186 -0.0757 -0.0059
30331W        W45948   3.061  15.056  11.712 -0.0370 -0.3198 -0.0402
30332W        W45949   2.621   5.615  13.332  0.2340 -0.0569  0.1675
30333W        W45950   3.742  16.177   3.106 -0.0006 -0.0803  0.0954
30334W        W45951  17.677  12.033  12.306  0.0861 -0.2241 -0.0302
30335W        W45952  17.865  15.596  13.476  0.0834 -0.0381 -0.1245
30336W        W45953   7.680   4.162  12.537  0.0465 -0.2205  0.2097
30337W        W45954  16.064  15.458   4.553  0.0505 -0.0863 -0.0157
30338W        W45955  16.995   0.473   1.777  0.0138  0.3041  0.0561
30339W        W45956  16.107   4.082  13.412 -0.2107  0.1305 -0.0151
30340W        W45957  12.970   5.106   0.230  0.1668 -0.0760 -0.1122
30341W        W45958   5.564   7.915  11.196  0.2237 -0.1100  0.0642
30342W        W45959   5.267  15.614   1.994 -0.0131  0.2527 -0.0055
30343W        W45960  16.523  11.473   0.697 -0.0345 -0.2379  0.1182
30344W        W45961   8.078  16.286   4.056  0.3653  0.2575  0.1458
30345W        W45962  15.391   7.419  14.332 -0.2725 -0.0525 -0.2484
30346W        W45963   2.457  10.749  12.710  0.0986 -0.0238 -0.2077
30347W        W45964  16.870  15.705   0.182 -0.0861  0.3431  0.3722
30348W        W45965  18.515  16.539   3.383  0.0033  0.0576  0.0099
30349W        W45966  10.784  15.482   1.039  0.1457 -0.0286  0.2179
30350W        W45967   5.438  15.779  10.117  0.1839 -0.0798 -0.3766
30351W        W45968   3.857   4.328  14.280 -0.1309  0.0021 -0.3412
30352W        W45969   6.602   0.395   4.756  0.0751 -0.0888 -0.2629
30353W        W45970  18.267  17.385  13.418  0.1139  0.2105 -0.2230
30354W        W45971   4.178   1.338   5.274 -0.3236 -0.1984  0.0632
30355W        W45972   9.778  18.932  13.478 -0.1365  0.2515  0.1664
30356W        W45973   7.969   9.926   9.636 -0.0230  0.1156 -0.0925
30357W        W45974   3.932  15.015   4.331  0.1635  0.2850 -0.0823
30358W        W45975   4.929   6.389  13.548  0.0187 -0.0626 -0.0709
30359W        W45976  14.173  14.012   1.355 -0.2955  0.5501 -0.1471
30360W        W45977   0.856   3.425   3.138  0.1251 -0.5940 -0.1585
30361W        W45978  12.584  17.692   2.587 -0.0522  0.1041  0.1217
30362W        W45979   9.900   8.582   2.610 -0.4976 -0.1459  0.2807
30363W        W45980  18.848  13.192   3.075  0.2454  0.3278  0.0065
30364W        W45981   5.506  12.901  13.400  0.2042 -0.2187  0.1403
30365W        W45982  14.102   9.138   1.009  0.0691 -0.2302 -0.2983
30366W        W45983  15.685  13.211   2.549  0.0904 -0.0838 -0.1028
30367W        W45984  14.695  12.654   4.416 -0.1113  0.0430  0.0625
30368W        W45985  18.758   8.749   9.533 -0.1976 -0.2706 -0.5078
30369W        W45986  15.823   6.633  15.192  0.1133 -0.2568  0.3031
30370W        W45987   6.117   4.335  11.700 -0.1547 -0.0165 -0.0784
30371W        W45988  10.732   7.697   3.467 -0.0336 -0.2326  0.0625
30372W        W45989   6.424   6.956  10.496  0.0614  0.3106  0.5664
30373W        W45990   8.118  13.795   6.060 -0.2808 -0.0998 -0.2021
30374W        W45991   6.898  18.374  12.884 -0.0293 -0.0415 -0.0136
30375W        W45992  15.002  13.967   2.776 -0.1579 -0.0740  0.0793
30376W        W45993  10.641  14.750   3.699 -0.1410  0.5985 -0.1312
30377W        W45994  16.888  17.534   2.261 -0.1132 -0.1060 -0.1723
30378W        W45995  11.987  15.418  11.189  0.0393  0.2665 -0.5412
30379W        W45996  17.260  14.916  14.712  0.0670  0.1468 -0.2262
30380W        W45997   3.467   4.257   2.089 -0.0896 -0.0425  0.1180
30381W        W45998  14.944  17.156  15.162  0.1789  0.0171  0.1358
30382W        W45999  16.864  13.270   0.036  0.1199 -0.1492  0.0265
30383W        W46000   2.988   7.277   1.623  0.0523  0.1868 -0.0003
30384W        W46001  15.410   3.043  11.393  0.0328 -0.2908 -0.2554
30385W        W46002  14.055   6.608  14.390 -0.0534 -0.2439  0.0381
30386W        W46003   0.962  15.244   4.563  0.2563  0.0410 -0.0448
30387W        W46004   3.442   9.246   3.850 -0.1304  0.1539  0.2463
30388W        W46005  18.467  14.748   0.011 -0.1016 -0.3741  0.0743
30389W        W46006  14.578  10.347  13.397 -0.1264  0.1794 -0.0798
30390W        W46007   5.901   4.161  13.705  0.1264  0.1478  0.0159
30391W        W46008   8.094  15.297  11.100 -0.0006  0.0363 -0.1104
30392W        W46009   7.420   4.316  14.009  0.2069  0.1668  0.2113
30393W        W46010  18.354   9.980  14.281  0.0340 -0.1530 -0.1458
30394W        W46011   2.126   0.882   2.064  0.0882 -0.1601 -0.3361
30395W        W46012   7.394  12.895   3.295 -0.1598 -0.0171 -0.1463
30396W        W46013  16.956   2.356  15.192 -0.1161  0.1074  0.0122
30397W        W46014  12.590  17.202  13.841  0.0710  0.2616  0.0497
30398W        W46015   7.783  15.536  10.582 -0.2817  0.2511 -0.0265
30399W        W46016  13.618   7.924   0.076  0.0970  0.3141  0.1219
30400W        W46017  17.102   4.658  14.202 -0.1497 -0.1863  0.0676
30401W        W46018  17.162  12.661  10.502  0.0612 -0.2073 -0.2804
30402W        W46019  17.367   2.241   0.357 -0.2299 -0.0890 -0.2815
30403W        W46020   4.692   5.209   3.840 -0.0677 -0.1914 -0.0471
30404W        W46021   1.827   0.695   1.671  0.0657  0.0898 -0.0391
30405W        W46022  12.736   7.894   0.999  0.0536 -0.0913 -0.2400
30406W        W46023  16.896   9.845  14.370  0.1086 -0.0557 -0.0971
30407W        W46024   3.690   3.834   5.236 -0.0200  0.1149 -0.1977
30408W        W46025   5.527  16.653  14.830  0.3240 -0.2314  0.3755
30409W        W46026   7.233   8.172  14.003 -0.0651  0.0577 -0.0049
30410W        W46027  15.704   1.921   3.196 -0.3044 -0.2355 -0.0131
30411W        W46028   1.901   2.502   1.962 -0.0807 -0.0079 -0.1244
30412W        W46029   2.804  13.735   3.020  0.4545  0.3992  0.0505
30413W        W46030   3.969  18.007  14.372  0.2794 -0.0695  0.0634
30414W        W46031   8.509  12.054   4.528  0.0667 -0.2402  0.0524
30415W        W46032  12.433  13.250   1.058 -0.2037 -0.0131  0.2986
30416W        W46033   9.673   9.181  12.531  0.3520  0.0989  0.0808
30417W        W46034   0.752  12.338   3.024  0.0939 -0.2673 -0.0343
30418W        W46035  17.506  12.600  14.220  0.0134  0.0670 -0.2016
30419W        W46036   6.418   1.313  13.732 -0.1394 -0.2547  0.1820
30420W        W46037  11.518  18.633   3.420 -0.2047  0.0953  0.1011
30421W        W46038   9.334  14.744   1.021 -0.1947  0.2181 -0.0739
30422W        W46039   5.704   2.569  13.282 -0.1141 -0.3353 -0.2427
30423W        W46040   0.515   7.389  14.035 -0.2359  0.0570  0.0837
30424W        W46041  17.976   1.107  12.868 -0.0376 -0.1083 -0.1368
30425W        W46042  15.567   7.560   0.253  0.0955  0.2087 -0.3193
30426W        W46043  10.281   0.498  10.974 -0.0817  0.0827 -0.1277
30427W        W46044   4.660  17.510  11.112  0.2756  0.0796  0.2438
30428W        W46045   1.783   1.581   0.140  0.1306 -0.0244  0.0677
30429W        W46046  16.928   6.112   5.379  0.1750  0.1634  0.1152
30430W        W46047   6.961   1.852  12.846  0.1205 -0.2993  0.0805
30431W        W46048   2.078   6.184  11.251 -0.1249 -0.0552 -0.2325
30432W        W46049   8.515  12.447  12.683  0.0179 -0.0317  0.0500
30433W        W46050  10.902  13.841   3.572 -0.0578  0.1444 -0.2201
30434W        W46051  18.135   2.154  11.564  0.0937  0.1920 -0.0263
30435W        W46052   6.113   2.270   4.295 -0.2710 -0.0467 -0.0499
30436W        W46053   7.211  17.130   3.113  0.2079 -0.2028  0.1097
30437W        W46054   1.345   4.547  14.472  0.1672  0.0886 -0.1226
30438W        W46055  16.015   9.104  13.393 -0.1453 -0.1724  0.0856
30439W        W46056  16.731   4.106   3.652 -0.0777 -0.0618 -0.3824
30440W        W46057   2.005  15.575   3.162 -0.2373 -0.1416 -0.2459
30441W        W46058  12.568   4.931   3.352 -0.1957  0.1330 -0.0324
30442W        W46059   9.739   0.711   3.632 -0.1429  0.0466 -0.2073
30443W        W46060  18.583  18.490   5.281  0.2417  0.0999  0.3819
30444W        W46061  15.288   0.599  14.367  0.0824 -0.1817 -0.1111
30445W        W46062  14.777  11.481   4.517  0.0989  0.0670  0.1012
30446W        W46063  10.662   2.688   3.561  0.1647  0.0210 -0.2833
30447W        W46064   5.440  13.219   3.079  0.1293 -0.1836 -0.3646
30448W        W46065  10.748  11.145   4.235  0.0832  0.0970 -0.1232
30449W        W46066   8.953  14.860   4.046 -0.1754  0.2256 -0.1114
30450W        W46067   0.492   2.538  14.219  0.0433  0.3559 -0.0083
30451W        W46068  16.103  17.722   4.167  0.0743 -0.1951  0.2170
30452W        W46069   6.441   5.788  12.814 -0.0169  0.0786 -0.0227
30453W        W46070   0.130  14.162  11.731 -0.1624 -0.0386 -0.0538
30454W        W46071  10.183  16.867  10.194  0.1797 -0.1462  0.2527
30455W        W46072   3.318  10.445  12.877 -0.1191 -0.2012  0.0229
30456W        W46073  15.111  18.477   5.021 -0.3849 -0.1036 -0.0127
30457W        W46074   3.075   6.542   2.045  0.1844 -0.1069  0.1378
30458W        W46075   7.992  11.249  12.265 -0.1300  0.0191 -0.0438
30459W        W46076   3.956   0.853  14.890  0.0350 -0.3444  0.1224
30460W        W46077   7.945   0.650   5.740  0.1555 -0.0435 -0.2268
30461W        W46078   1.794   9.032  12.075 -0.1242 -0.0893  0.2022
30462W        W46079  16.568  11.162  14.097 -0.0751 -0.0726  0.1579
30463W        W46080   3.057   7.607  14.709 -0.2679 -0.1397 -0.3666
30464W        W46081   1.935  14.621  12.033  0.0344 -0.0780 -0.2811
30465W        W46082  16.046  11.791  11.558 -0.0838  0.1020 -0.4316
30466W        W46083  10.246  13.940  11.420 -0.1322 -0.0802 -0.0079
30467W        W46084   4.565   4.310   0.170 -0.0806 -0.2524 -0.0193
30468W        W46085   7.370   4.599   5.008  0.1038  0.0833 -0.3299
30469W        W46086  15.108  12.709   1.503  0.2452 -0.1821 -0.0178
30470W        W46087   4.470  15.209   0.980  0.2373  0.1786  0.1019
30471W        W46088   8.315   3.233  10.457  0.1256  0.0846  0.3186
30472W        W46089  10.078   5.451  14.560  0.3494 -0.3380 -0.2492
30473W        W46090   1.018  16.642  11.241 -0.2176  0.1738  0.0272
30474W        W46091   3.060  12.878   2.824 -0.3493 -0.3479 -0.2632
30475W        W46092   8.075   1.836   1.582 -0.0921 -0.0525  0.0125
30476W        W46093   4.768  13.412  10.133 -0.2685 -0.1398 -0.2627
30477W        W46094  12.064   8.369  14.573 -0.3228  0.0543  0.1534
30478W        W46095   9.353  15.130  11.650  0.2299  0.3240  0.1081
30479W        W46096  14.080   0.083  14.976  0.3841  0.0756 -0.1740
30480W        W46097   1.775  11.612   3.343  0.3974 -0.3761  0.0554
30481W        W46098   3.134   6.553  14.248  0.3462  0.0110  0.1782
30482W        W46099   0.022   0.039   2.688 -0.2718 -0.0225 -0.2516
30483W        W46100   2.920  13.260   2.345  0.4499  0.2795 -0.1557
30484W        W46101  12.177  12.889  11.381 -0.1209  0.1748  0.2509
30485W        W46102   3.993  15.695  14.067 -0.0827 -0.2054 -0.0446
30486W        W46103  10.398  17.457  11.029  0.3426  0.0047  0.1084
30487W        W46104  13.877   3.122  14.903 -0.1503 -0.0190 -0.1143
30488W        W46105  17.254   8.155  15.186 -0.1819 -0.0955  0.1736
30489W        W46106  14.084   7.397  13.974 -0.0392  0.0739 -0.0544
30490W        W46107  17.314  15.532  12.550 -0.2375 -0.0635  0.4604
30491W        W46108  14.400   5.811   5.600  0.4406 -0.1200  0.3077
30492W        W46109   2.344  11.701   1.677 -0.1456  0.1035 -0.2034
30493W        W46110   1.545  16.476  12.376 -0.0439  0.1409 -0.0158
30494W        W46111  15.846  17.587  10.567  0.1113 -0.2008 -0.3456
30495W        W46112   5.850   5.496  11.172 -0.0018  0.0648  0.1353
30496W        W46113   5.629  18.359   5.408  0.0242 -0.2660 -0.2360
30497W        W46114   9.842   9.820   4.584 -0.4641 -0.2315 -0.2967
30498W        W46115   0.901  18.945   0.453 -0.2187 -0.2607 -0.2732
30499W        W46116  13.221   4.583   0.912  0.2242 -0.0421  0.2165
30500W        W46117  14.901  16.860   3.218  0.1222  0.0603  0.2864
30501W        W46118  12.325  16.870   0.481  0.2026 -0.1733  0.0833
30502W        W46119  18.913   1.361  10.911 -0.2759  0.0933 -0.2559
30503W        W46120  18.432  10.850   1.206 -0.3763 -0.0702 -0.1657
30504W        W46121  15.425   7.097   2.764 -0.3216  0.1463 -0.1890
30505W        W46122  15.456   6.438   2.159 -0.0405  0.0999  0.1175
30506W        W46123   9.018   6.904  11.872 -0.0971 -0.2079 -0.0866
30507W        W46124   8.096   8.480  13.896 -0.3370  0.1374  0.0541
30508W        W46125   8.909   3.877   1.686  0.1120 -0.2020 -0.1175
30509W        W46126  13.952  10.816  14.281 -0.1792  0.2880 -0.4519
30510W        W46127   9.676  19.065  10.463 -0.2018  0.1557 -0.2447
30511W        W46128  16.196   8.407   2.446 -0.0849 -0.3134 -0.0653
30512W        W46129   1.453  16.284   1.981 -0.2077  0.4581 -0.2244
30513W        W46130   6.162  13.445  10.779  0.2445 -0.0386 -0.0781
30514W        W46131  11.863   0.502   4.431 -0.0547 -0.0987  0.0138
30515W        W46132   9.646  13.405   5.876 -0.0365  0.1444  0.1452
30516W        W46133  15.467   4.584  14.316 -0.3158 -0.0893 -0.0167
30517W        W46134   2.310  14.263  10.030  0.2621 -0.2106  0.2779
30518W        W46135   2.198  14.696   0.773  0.3778 -0.4438  0.0072
30519W        W46136   6.118  15.803  10.991 -0.0364 -0.0070  0.1595
30520W        W46137  10.904   6.207  13.230  0.0776 -0.2585  0.1631
30521W        W46138   1.165  14.159   0.456  0.2780 -0.1756  0.0238
30522W        W46139  14.893  11.199   0.284  0.2408  0.1774  0.0327
30523W        W46140   4.448   1.833   4.584 -0.1493 -0.0110 -0.2669
30524W        W46141   6.522  18.665   5.760  0.0069 -0.2241  0.0128
30525W        W46142   1.180  15.442   3.181  0.1552 -0.1249  0.1509
30526W        W46143  18.899   6.677  10.958  0.1449  0.1903  0.2403
30527W        W46144   6.449  17.846  13.966  0.1856 -0.1492 -0.2210
30528W        W46145   2.650   1.639  14.771 -0.1136  0.1614  0.1500
30529W        W46146   2.777   5.698   2.849  0.2446 -0.1557  0.0539
30530W        W46147   4.568   2.602  15.072  0.2030 -0.2785  0.0211
30531W        W46148   2.520   8.883  11.569  0.0076  0.0071  0.0260
30532W        W46149   9.244   3.711   2.067  0.2080 -0.1031 -0.0688
30533W        W46150   2.594   3.377   3.221  0.2546  0.1392  0.0187
30534W        W46151  10.378  12.472   4.952  0.2048 -0.1506 -0.0344
30535W        W46152   1.519  14.777   1.313  0.1574  0.2782  0.0189
30536W        W46153  14.599   0.996   4.377 -0.2192 -0.0963  0.2435
30537W        W46154  13.885  16.590   4.920 -0.2569 -0.0925  0.1111
30538W        W46155   9.848  16.212   4.195 -0.1316  0.2468 -0.0141
30539W        W46156   5.680  18.524   2.991 -0.0730  0.2755  0.0579
30540W        W46157   7.596  11.283   0.850  0.0414  0.2453 -0.0589
30541W        W46158   0.179  18.279   9.719 -0.0131 -0.2053  0.1248
30542W        W46159   8.482  17.931   3.139 -0.0953  0.1000  0.2180
30543W        W46160  14.715   2.938  12.337  0.1693  0.3341 -0.1880
30544W        W46161   3.901   9.371  15.142  0.3448  0.1405  0.0258
30545W        W46162  10.857  16.737   1.549 -0.0553 -0.0406  0.3048
30546W        W46163   6.590   7.079   2.505  0.2050 -0.1027 -0.0462
30547W        W46164   6.931   0.213  13.200  0.0811 -0.4554  0.1810
30548W        W46165  15.481   5.030   1.657  0.0351  0.1408 -0.2671
30549W        W46166  12.027  18.540   5.182 -0.0565  0.0258  0.3148
30550W        W46167   9.629   6.470   2.461  0.1672 -0.2312 -0.2446
30551W        W46168   1.388   2.002   5.149  0.2457  0.3044  0.0453
30552W        W46169  12.497  19.048   3.672 -0.3422 -0.2820 -0.1135
30553W        W46170  15.059   4.157  11.246  0.3192  0.1067  0.2220
30554W        W46171   3.233  12.106   1.670  0.0488 -0.2203  0.0522
30555W        W46172  17.940   9.251   1.012  0.0825 -0.1908 -0.1460
30556W        W46173  14.422   8.429  11.117 -0.2353  0.0046  0.1587
30557W        W46174   0.168   2.958  12.604 -0.1221  0.1676  0.0950
30558W        W46175   5.685   0.609  11.730  0.2695  0.2405 -0.0615
30559W        W46176   3.645  18.497  14.842 -0.3757  0.0847 -0.0918
30560W        W46177   6.621  12.849   5.430 -0.1694  0.0215 -0.0139
30561W        W46178  12.642   9.537  13.146  0.2312 -0.0492 -0.0851
30562W        W46179  13.574  10.584   5.154  0.0831 -0.2308  0.0292
30563W        W46180  15.085  10.285   1.010 -0.1004  0.1170 -0.1775
30564W        W46181  11.209  17.171  13.569 -0.2789 -0.4319  0.1299
30565W        W46182   6.309   9.355   4.179  0.0767 -0.1598  0.0707
30566W        W46183   2.431   8.532   0.483 -0.3321  0.1769  0.0575
30567W        W46184   8.980   6.895   1.705  0.3145 -0.1345 -0.0850
30568W        W46185   6.627  13.314  14.026  0.1583 -0.0127 -0.0489
30569W        W46186   8.196  13.625  10.415 -0.1963 -0.0085 -0.1186
30570W        W46187  15.103   4.960   0.857  0.1048  0.4255  0.3859
30571W        W46188   7.281  11.505   3.123 -0.0357  0.1406 -0.0711
30572W        W46189   0.157  18.958  11.270 -0.0848 -0.2043  0.0271
30573W        W46190  12.890   7.697  13.519 -0.0406  0.0746  0.1100
30574W        W46191  15.989  10.995   5.267 -0.0389  0.1558  0.0353
30575W        W46192  15.102   3.822  13.843 -0.2511  0.3160  0.3640
30576W        W46193  10.885  16.676  11.767 -0.0762  0.0500 -0.0995
30577W        W46194  12.912   9.148   1.531  0.0911  0.2946  0.2301
30578W        W46195  18.089   7.335  13.912 -0.1718 -0.0578 -0.0763
30579W        W46196   6.312  14.164   2.269 -0.1492  0.0809  0.0670
30580W        W46197  14.837  10.610   0.318 -0.1593 -0.0677  0.0892
30581W        W46198   2.784   0.441   0.116  0.2102  0.1163  0.1749
30582W        W46199  17.545  17.898   2.312 -0.0280 -0.0948  0.0440
30583W        W46200  16.637  10.391   1.056  0.1201 -0.0016  0.2061
30584W        W46201  12.183  14.502  14.805  0.0407 -0.0748 -0.0545
30585W        W46202   5.152  16.218  11.746  0.2215 -0.1997  0.1145
30586W        W46203   9.494  13.138  11.520 -0.1071 -0.0602  0.0700
30587W        W46204   7.719  11.052   2.111 -0.0848 -0.1297 -0.2618
30588W        W46205   7.732   3.071  14.357  0.0034 -0.0148 -0.2663
30589W        W46206  18.787  17.290   1.945  0.2385 -0.2355  0.0848
30590W        W46207   7.951   8.909  12.961 -0.0135 -0.2864  0.0563
30591W        W46208   2.278   6.190   2.483  0.0081 -0.3091  0.1266
30592W        W46209  17.784   3.780   3.241  0.2621 -0.1990 -0.0597
30593W        W46210   7.181   5.870  14.026  0.1189  0.1946 -0.3135
30594W        W46211   6.931   7.013  10.602  0.0188 -0.0383  0.0792
30595W        W46212  18.043  10.891   4.794  0.4535  0.0398 -0.0139
30596W        W46213   1.254   2.561   4.287 -0.0344 -0.1622  0.1473
30597W        W46214  17.328  18.802  12.771  0.1542 -0.1755 -0.0933
30598W        W46215   5.106   0.654   3.483  0.1531  0.1035 -0.0770
30599W        W46216   4.010   7.038  14.065 -0.3743 -0.0293 -0.2166
30600W        W46217   3.446   6.698  10.408  0.0362  0.0882  0.2613
30601W        W46218  15.751  15.374   4.099 -0.0665 -0.2673  0.1030
30602W        W46219  16.036   0.170  12.668 -0.1684  0.0807 -0.0941
30603W        W46220   6.049   2.363  14.177 -0.0985  0.0274 -0.1211
30604W        W46221  14.015  13.866  14.214  0.2299 -0.2210  0.2152
30605W        W46222   9.487   0.081  15.028 -0.2408 -0.0537 -0.6204
30606W        W46223   3.051   5.282  12.033 -0.1531  0.0684 -0.1837
30607W        W46224   5.055  17.785   0.871 -0.2382  0.1324  0.1549
30608W        W46225   3.435  11.015   1.804 -0.2208  0.1595 -0.2489
30609W        W46226   3.393  11.759   3.960  0.3721 -0.1671  0.2476
30610W        W46227  18.365  15.904   3.238 -0.3436  0.1178 -0.0869
30611W        W46228   0.125  10.161   1.135  0.2907  0.2052  0.4190
30612W        W46229  13.498   4.949  10.753 -0.2073 -0.2393  0.1167
30613W        W46230  13.935  16.431  13.110  0.0657 -0.3178  0.0321
30614W        W46231   0.412  11.077   1.011 -0.0872 -0.0277  0.2289
30615W        W46232  10.791  15.330  15.239 -0.0786 -0.1248 -0.0196
30616W        W46233   6.469  17.149  13.479 -0.0320 -0.5588 -0.0834
30617W        W46234  10.906  10.988  12.364 -0.0436  0.2757  0.1505
30618W        W46235   7.175   0.039  10.110 -0.1257  0.0545  0.2221
30619W        W46236  10.514  17.093   1.697 -0.3700 -0.0197  0.0303
30620W        W46237   9.589  11.951   9.832 -0.0309  0.3137  0.0822
30621W        W46238   0.770  16.314  11.500  0.2003  0.1405  0.0371
30622W        W46239   3.103   7.770   1.331 -0.2715  0.1216 -0.0234
30623W        W46240   0.336  14.665   2.514 -0.0608 -0.1888 -0.0556
30624W        W46241  12.995   4.014   0.674  0.2607 -0.3536  0.0557
30625W        W46242  15.074  18.200   4.588 -0.2175 -0.0318  0.0361
30626W        W46243  16.416   4.947  12.532 -0.0802 -0.4860  0.0136
30627W        W46244   0.140  14.846   4.903  0.1137  0.2479  0.1424
30628W        W46245   8.152   2.885   2.194 -0.0656 -0.2205  0.0626
30629W        W46246  15.116   7.178  14.753 -0.3306 -0.1179 -0.0748
30630W        W46247  10.098  14.242   1.500 -0.1207 -0.1259 -0.1050
30631W        W46248   4.334   5.527  15.015  0.2256 -0.0298  0.2947
30632W        W46249  15.126  10.019   3.314  0.2778 -0.2019 -0.1377
30633W        W46250  17.291  16.801  12.198 -0.0283  0.0328 -0.1255
30634W        W46251   0.991   2.472   1.096 -0.0716  0.0531 -0.1323
30635W        W46252   8.742  13.022  10.919 -0.3106 -0.0850 -0.5112
30636W        W46253   8.325  15.455   2.361  0.3195  0.1561 -0.1233
30637W        W46254   6.082   7.966  13.675 -0.1421 -0.3323  0.3512
30638W        W46255  17.170  12.407   0.924 -0.0817 -0.1622  0.2524
30639W        W46256  16.126   0.233   1.816  0.1238 -0.1834 -0.1732
30640W        W46257   4.204  13.059   4.384 -0.1554  0.0784  0.0458
30641W        W46258   3.631   6.645   0.764 -0.2484  0.0346  0.0760
30642W        W46259  18.455  17.077   4.316  0.2214 -0.1271  0.1236
30643W        W46260  12.164   7.478  10.778 -0.0384  0.0828 -0.0527
30644W        W46261   1.813  17.907   0.218  0.2463  0.0398  0.1576
30645W        W46262   2.417  18.968   5.112 -0.0866 -0.0710  0.0158
30646W        W46263   3.768  10.096  12.880 -0.0868  0.2185  0.1221
30647W        W46264  15.944   6.818   3.002 -0.1025 -0.3813  0.2328
30648W        W46265  14.268   9.163  12.089 -0.0746  0.3331 -0.0252
30649W        W46266   3.569   2.326  13.810 -0.1654 -0.2540 -0.0435
30650W        W46267  16.142   1.637  12.661 -0.2711 -0.0428 -0.1114
30651W        W46268   3.767   2.079  14.798  0.0566  0.1876 -0.0163
30652W        W46269   5.386   3.972  12.602 -0.0702 -0.3025 -0.2651
30653W        W46270   4.687   8.407  12.150 -0.4053 -0.0247  0.0917
30654W        W46271  11.719   8.910   0.821  0.4251  0.0320 -0.1912
30655W        W46272  14.503  14.594  14.785  0.2220 -0.2336  0.0802
30656W        W46273  17.368  12.613  12.962 -0.0472  0.0337  0.3762
30657W        W46274  13.464   8.756  12.381 -0.1567 -0.1180 -0.1134
30658W        W46275  17.227   1.768  14.318 -0.3855 -0.1968  0.4221
30659W        W46276  12.642  15.745   4.241 -0.0271  0.0289 -0.1881
30660W        W46277  13.166  12.667   2.101  0.0562  0.0606  0.3115
30661W        W46278   3.350   3.015   4.175  0.0049 -0.1049 -0.0902
30662W        W46279  18.281  17.224   2.049  0.0197  0.0418 -0.0903
30663W        W46280  17.465  12.721  13.404  0.2502 -0.2712 -0.2266
30664W        W46281   4.154  12.549  11.993 -0.0529 -0.1766 -0.2212
30665W        W46282   4.682  10.426  11.028  0.1872  0.0945  0.3315
30666W        W46283   9.022   6.759   3.571  0.1334 -0.0749  0.5202
30667W        W46284   7.417   1.108   4.131 -0.0029 -0.1273 -0.4692
30668W        W46285   5.478  15.760   3.631 -0.1427 -0.1250 -0.1352
30669W        W46286   6.533   4.051   4.553 -0.2167  0.0620 -0.1644
30670W        W46287  11.946   3.832  11.985 -0.1603 -0.0063 -0.1723
30671W        W46288   3.895   9.452   5.325  0.3098 -0.3989  0.1293
30672W        W46289   3.210   1.696   2.386 -0.0873  0.1654  0.0625
30673W        W46290  17.672   0.306  13.827 -0.0376 -0.0768  0.0675
30674W        W46291  15.617   3.099   3.471 -0.1935  0.0002  0.1720
30675W        W46292  12.555   7.250   3.485 -0.1354 -0.2637  0.1366
30676W        W46293   2.853  11.882   2.507 -0.0955 -0.0023 -0.2001
30677W        W46294  11.496   1.774  14.074  0.1360  0.1294  0.1598
30678W        W46295   3.788   1.383  13.538 -0.2049  0.0917 -0.2910
30679W        W46296  10.565   2.122  13.753 -0.1158 -0.0036 -0.0220
30680W        W46297  15.654  15.773   0.162 -0.0649 -0.2542 -0.0528
30681W        W46298   1.033   6.831   5.544 -0.2616 -0.2331 -0.2818
30682W        W46299  11.764   0.723   1.107 -0.0085  0.0361 -0.1182
30683W        W46300   2.161  11.071  12.504  0.0193  0.2231  0.2018
30684W        W46301   9.124   1.912   4.103  0.2292 -0.1619 -0.0330
30685W        W46302   8.705   4.026  12.631 -0.4095  0.2450 -0.3145
30686W        W46303   2.772  16.917  10.564  0.3170 -0.1324 -0.0980
30687W        W46304  11.021  11.862  14.234 -0.0859  0.0100  0.1735
30688W        W46305   6.996   2.690   2.033 -0.1872 -0.1590 -0.4653
30689W        W46306   2.245  13.365  12.127 -0.1550 -0.1515  0.1797
30690W        W46307   2.217   2.619   2.441  0.1737  0.1687  0.0908
30691W        W46308   9.065   9.044  14.783 -0.2469  0.1998  0.1863
30692W        W46309  15.902   2.507   3.741 -0.0609 -0.0162  0.0575
30693W        W46310   2.165   7.216   3.858 -0.1577 -0.0662  0.1231
30694W        W46311   3.407  15.854   5.931  0.0908  0.1512 -0.1521
30695W        W46312  13.845  10.048  13.051 -0.1280 -0.0082  0.5985
30696W        W46313  14.389  17.920   0.243 -0.0400  0.1049 -0.1824
30697W        W46314   0.886   6.363   2.907 -0.2090  0.1308 -0.3040
30698W        W46315   1.861   4.502   3.422 -0.0814  0.1574  0.2561
30699W        W46316   5.485  17.990   1.334  0.1090 -0.3505  0.1736
30700W        W46317   8.570   4.939   1.997 -0.0612 -0.1975 -0.1123
30701W        W46318   2.857  11.730   4.581 -0.1747  0.2212 -0.2468
30702W        W46319  14.389  11.916   3.653  0.2142  0.1860  0.0776
30703W        W46320   0.261  10.949   1.480 -0.1009  0.0255  0.3034
30704W        W46321   3.970   1.292   2.005 -0.2945 -0.0063  0.3154
30705W        W46322  12.444   2.807  14.398 -0.2867 -0.0765  0.0339
30706W        W46323  12.925  18.016   1.844  0.2688 -0.1491 -0.2243
30707W        W46324   5.063  16.155   4.451  0.1375  0.0102  0.0260
30708W        W46325   4.194   0.757   0.040 -0.3335 -0.1550 -0.4224
30709W        W46326  15.630   5.449  11.336 -0.0916 -0.1127 -0.2741
30710W        W46327  12.788   0.464  14.176  0.0668 -0.0241 -0.0929
30711W        W46328  17.551   9.526   4.292 -0.3981 -0.1167 -0.1791
30712W        W46329   7.565  17.439   2.218  0.3318  0.0914 -0.1338
30713W        W46330  15.498   3.206  12.957  0.2078  0.1392  0.0109
30714W        W46331   5.577  11.310   2.596  0.0961  0.2168 -0.2603
30715W        W46332   0.428  12.506   5.223  0.2284 -0.2262 -0.1520
30716W        W46333   7.504  16.411  12.806 -0.0572  0.0073  0.0855
30717W        W46334   8.434  12.376   0.805 -0.1248  0.0016  0.2924
30718W        W46335  12.469   1.000  11.156 -0.0310 -0.0611 -0.1618
30719W        W46336  16.062   1.976  10.523 -0.1526 -0.4506  0.3583
30720W        W46337   5.752   9.985   0.070  0.2821 -0.0733 -0.0530
30721W        W46338  18.842   2.053  12.462  0.2594 -0.2057 -0.1867
30722W        W46339  16.002   0.744   1.742  0.1285  0.0067  0.1119
30723W        W46340  14.911  18.644   9.464 -0.2008 -0.0244 -0.0829
30724W        W46341  12.885   0.377   1.925  0.2617 -0.0007 -0.1068
30725W        W46342  15.210   7.646  12.146  0.0663  0.0503 -0.4108
30726W        W46343  10.619  14.292  11.556 -0.1247 -0.2067  0.0068
30727W        W46344   3.080  18.776   0.311  0.2484 -0.1691 -0.0161
30728W        W46345  10.003   9.232   4.555 -0.2904  0.4155  0.2185
30729W        W46346  11.220   3.856  12.507 -0.0433  0.0792  0.2026
30730W        W46347   7.720   3.209  12.490 -0.0278 -0.3819  0.2352
30731W        W46348  18.600  11.320  11.209 -0.2022 -0.0770  0.1870
30732W        W46349   0.449   8.997   0.441 -0.1895  0.0857 -0.0431
30733W        W46350   3.257   2.049  14.047  0.2052 -0.3638 -0.0276
30734W        W46351  14.550   4.423  14.610  0.2963 -0.1847 -0.1754
30735W        W46352  17.045  17.551   0.173  0.1847 -0.1228 -0.0370
30736W        W46353  16.338  14.621   0.534  0.1598  0.0907  0.1982
30737W        W46354  18.142  12.709   9.989 -0.2277 -0.1829 -0.0748
30738W        W46355  18.949   8.836  11.107 -0.3398  0.0148  0.0910
30739W        W46356  12.246  18.024  13.834 -0.2199 -0.0450  0.1187
30740W        W46357  11.079   4.750  11.856  0.1671  0.0752  0.1360
30741W        W46358   1.077   0.069   2.212  0.1883 -0.0965  0.2163
30742W        W46359  10.988   3.487   2.179  0.2033 -0.1065  0.1518
30743W        W46360  13.675  11.881  13.646 -0.0536 -0.1960 -0.4058
30744W        W46361   6.481   8.831  11.915 -0.2215  0.3191 -0.1061
30745W        W46362  15.264  11.105  14.414 -0.0104 -0.1090  0.4322
30746W        W46363  12.451   9.663  11.428  0.1523  0.1320  0.0759
30747W        W46364  17.233  12.997   0.455  0.0809 -0.1559  0.0297
30748W        W46365  16.683   2.807   2.859  0.3019  0.0210  0.2035
30749W        W46366   1.418  11.638  11.134  0.3499 -0.0962 -0.0072
30750W        W46367  17.997   1.315  10.457 -0.0768  0.0522 -0.3132
30751W        W46368   1.167  13.308  10.594  0.0503 -0.0157  0.4603
30752W        W46369  11.897   2.627   5.382 -0.1507 -0.0269  0.3061
30753W        W46370   1.280  12.057  14.119 -0.1949 -0.1777 -0.3731
30754W        W46371   0.530  10.276  13.835  0.0246  0.0445 -0.1949
30755W        W46372   1.691   7.154  14.247  0.2212 -0.0508  0.1304
30756W        W46373   7.398  16.611  11.312  0.5039  0.0401  0.0011
30757W        W46374   8.596  14.400   3.100  0.2602  0.1723 -0.4173
30758W        W46375  13.302  18.348   3.094  0.2693 -0.5799  0.1056
30759W        W46376   4.142  16.109  13.337 -0.3893  0.1876  0.0912
30760W        W46377   8.249   2.701  14.217 -0.0718  0.2316 -0.1715
30761W        W46378   8.444  11.732  14.722  0.0626  0.1975 -0.2349
30762W        W46379   5.665   6.073  11.486 -0.2995 -0.3371  0.2340
30763W        W46380   0.479   9.757   0.936 -0.2746 -0.2161 -0.1771
30764W        W46381   3.487   6.759   2.187 -0.0300 -0.3137 -0.1799
30765W        W46382   1.821  18.222  13.001  0.2428  0.0117  0.2740
30766W        W46383   9.207  13.725   0.223  0.0029  0.0673  0.0625
30767W        W46384  11.592  17.202   5.704 -0.0001  0.1789  0.4218
30768W        W46385  13.589   9.134   0.049 -0.1923  0.0371  0.3696
30769W        W46386   7.514   2.846  10.485  0.0385  0.1517 -0.2991
30770W        W46387  17.939  16.457   1.592 -0.0690 -0.0393 -0.0445
30771W        W46388   9.178  18.445   1.825 -0.1461 -0.3586  0.0804
30772W        W46389   7.756  10.762   0.712  0.0733 -0.6520 -0.2053
30773W        W46390   8.477  12.380  10.706 -0.1326  0.1487  0.0236
30774W        W46391   5.072   4.088   5.022 -0.1600 -0.1586  0.2132
30775W        W46392  14.546   2.948   1.663  0.0742 -0.1575 -0.2279
30776W        W46393  16.489  14.076   0.708  0.0493  0.0017 -0.1876
30777W        W46394   4.977   2.642   4.996 -0.3807  0.0287  0.1049
30778W        W46395  13.748   9.616  13.480 -0.3906 -0.3262 -0.4557
30779W        W46396  17.828  10.062  15.115 -0.1173  0.3615  0.1735
30780W        W46397   7.530   7.078  14.241  0.0034 -0.2369  0.1278
30781W        W46398  11.342   3.497  13.745  0.2563 -0.0565  0.2081
30782W        W46399  14.190  17.493  11.122 -0.0278 -0.0680  0.1082
30783W        W46400   6.279  18.941   4.664 -0.0527 -0.0885  0.2548
30784W        W46401  11.743  13.950  13.593 -0.1038 -0.0458 -0.3824
30785W        W46402  15.391   8.848  15.223  0.0889 -0.0893  0.4122
30786W        W46403  15.965   5.067   3.552 -0.1751 -0.0560  0.2002
30787W        W46404  10.506   0.939   0.446  0.3354 -0.0640 -0.1168
30788W        W46405  18.369  11.021   5.928 -0.0903  0.2769  0.1025
30789W        W46406  17.941  11.494   1.453 -0.1076 -0.4298 -0.1638
30790W        W46407  16.049  17.932   1.591 -0.1329  0.1796 -0.1750
30791W        W46408  10.348  11.386   2.472  0.1295  0.1231 -0.1474
30792W        W46409   2.956   7.861   5.634 -0.3175 -0.3294  0.2186
30793W        W46410   7.798   8.982   1.135  0.1332 -0.0334 -0.0841
30794W        W46411  16.275   0.841   2.450  0.1127 -0.0369 -0.1205
30795W        W46412   1.409   4.342   0.088  0.0861 -0.1045 -0.0631
30796W        W46413   7.799   3.498  14.811 -0.2608 -0.1125  0.3050
30797W        W46414   2.643   2.064  10.134 -0.2540  0.1269  0.0040
30798W        W46415  10.514  11.410  13.902 -0.2598 -0.0898 -0.0477
30799W        W46416  11.583  12.342  11.595 -0.2463 -0.0104 -0.2347
30800W        W46417   4.107   0.630  13.635  0.0677 -0.2631  0.0704
30801W        W46418  14.754   1.473  10.946  0.2004 -0.0015 -0.0146
30802W        W46419   1.794  18.749   1.311 -0.3265  0.1583 -0.1057
30803W        W46420  13.056  14.286   3.685 -0.4648 -0.0322  0.1476
30804W        W46421   7.665   1.338  11.549  0.2371 -0.0513 -0.0287
30805W        W46422  18.407  15.772  13.688 -0.2130  0.1687  0.0393
30806W        W46423   5.103  12.546   2.329  0.0539 -0.0899 -0.0717
30807W        W46424  13.894  17.281  14.981  0.2377  0.2201  0.4346
30808W        W46425  13.605   6.128   3.255  0.2275  0.1552 -0.2948
30809W        W46426  14.826   9.326  12.572 -0.3081  0.0525 -0.0721
30810W        W46427   6.830   8.617   4.145  0.1415  0.1560 -0.1203
30811W        W46428  15.804   4.557  11.613 -0.1311 -0.0837  0.1536
30812W        W46429  15.651   7.390  14.779 -0.1562 -0.0968  0.1229
30813W        W46430   8.307   0.501   9.550 -0.0805 -0.1034 -0.2944
30814W        W46431   3.304   2.567   3.653  0.0672  0.3465 -0.0165
30815W        W46432  14.259   9.170   4.536  0.0169 -0.1116 -0.3356
30816W        W46433   9.417   2.652  11.716 -0.1926  0.2461  0.0426
30817W        W46434  15.563  17.983  10.854 -0.3063  0.1194  0.1243
30818W        W46435  10.765   9.590   4.481  0.2620  0.2143 -0.2492
30819W        W46436  15.990   8.853  12.923 -0.1404 -0.2516 -0.1652
30820W        W46437  14.757   4.669   2.335 -0.0218 -0.2287  0.0220
30821W        W46438  17.841  11.734   4.255  0.3130 -0.1914 -0.0409
30822W        W46439  12.571   9.238  14.039  0.1437 -0.0145  0.0222
30823W        W46440  17.401   7.406   9.487 -0.2149  0.4042 -0.0781
30824W        W46441  18.506   3.861   1.971  0.0307 -0.0311  0.0118
30825W        W46442   1.175  15.240   2.718 -0.1085 -0.2698 -0.0558
30826W        W46443  18.918  10.828   9.877  0.0939 -0.1652 -0.0938
30827W        W46444  12.361  16.320  11.247  0.0765  0.0450  0.0419
30828W        W46445   5.387   3.832   2.141 -0.0065 -0.1873 -0.0040
30829W        W46446   3.779  15.879  12.969 -0.2253  0.0774  0.1035
30830W        W46447   3.691  10.740   2.208 -0.3961 -0.1165  0.3774
30831W        W46448  17.173   4.653  13.251  0.1218  0.0695 -0.0283
30832W        W46449   9.663   4.154  13.517  0.1823  0.1234 -0.0610
30833W        W46450   9.461   3.996   2.778  0.0474  0.0618  0.0639
30834W        W46451  13.759  12.924  13.564 -0.0567 -0.0432 -0.2468
30835W        W46452   4.146  10.460   0.764 -0.3305  0.2662 -0.2171
30836W        W46453  14.874  13.068   5.727 -0.0753 -0.2090 -0.1306
30837W        W46454  15.721  16.653   2.274  0.3075 -0.0459  0.0099
30838W        W46455   5.998   6.504  12.029  0.0305 -0.0176  0.1038
30839W        W46456  13.116   1.749  10.579  0.1316  0.0019  0.0461
30840W        W46457  17.161  13.848  13.872  0.1518  0.1481 -0.0626
30841W        W46458   9.387   2.880  15.282  0.1050 -0.1218  0.1445
30842W        W46459  13.442  17.802   1.797  0.1448 -0.1635 -0.3727
30843W        W46460  13.064   7.517   3.840  0.0304  0.0948 -0.0747
30844W        W46461  14.661  17.231   4.129 -0.1123  0.0012  0.0310
30845W        W46462   8.831   2.898   3.022 -0.0536  0.1403 -0.1310
30846W        W46463   0.556   9.411  14.786 -0.0979  0.0045  0.1611
30847W        W46464   3.799  10.393   1.128  0.1942  0.0473 -0.0265
30848W        W46465  11.558   0.083   5.618  0.1716  0.3551 -0.0134
30849W        W46466   3.317  14.484   4.814  0.2268  0.0183  0.0682
30850W        W46467   8.432  10.957  11.191  0.2737  0.1288 -0.0131
30851W        W46468   7.223  16.540   1.977 -0.0202  0.0392 -0.3724
30852W        W46469  14.847   9.596   0.232  0.1559 -0.0475 -0.1600
30853W        W46470  11.496  14.710  13.044  0.0112  0.0419 -0.0608
30854W        W46471  15.482  14.028   1.941 -0.3528 -0.1802  0.1882
30855W        W46472   4.593   8.750   0.192  0.0946  0.1807 -0.1908
30856W        W46473  10.696  11.897  11.727  0.1643 -0.1891  0.2955
30857W        W46474   2.833  15.456   2.108  0.1597 -0.0604  0.1884
30858W        W46475  14.162   0.450   0.021 -0.2244  0.2267  0.2035
30859W        W46476   8.297   3.883   0.104 -0.0237 -0.0745 -0.2773
30860W        W46477  13.760   3.352  14.491  0.1636 -0.1008 -0.0424
30861W        W46478  14.659   6.356   3.666 -0.1186 -0.1276  0.2971
30862W        W46479   1.901  15.645  12.115  0.0124  0.1628 -0.1028
30863W        W46480   1.864  13.046   3.737 -0.1575  0.1810 -0.2532
30864W        W46481  11.381  12.048   2.194 -0.3203 -0.0318  0.4865
30865W        W46482   3.476   5.752  14.708 -0.0113  0.0460 -0.1011
30866W        W46483   3.687   6.690  12.161  0.2589  0.0429 -0.0663
30867W        W46484   0.604  14.843  13.215 -0.0753 -0.1076  0.0460
30868W        W46485  16.963   8.435   1.638  0.2346 -0.0283 -0.0341
30869W        W46486  12.231  12.725  10.874 -0.2668 -0.1468  0.0067
30870W        W46487  13.916  16.321   0.914  0.3566  0.0870  0.0318
30871W        W46488  13.065   5.997   4.749  0.1337  0.4120  0.4702
30872W        W46489  13.212   2.971  13.777  0.1679  0.0337  0.1471
30873W        W46490   9.855   6.193  11.359  0.0727 -0.0860 -0.1049
30874W        W46491  10.328   5.400   3.962 -0.1163 -0.3825 -0.3469
30875W        W46492   7.374   3.428   4.593  0.1465 -0.1440  0.0817
30876W        W46493  13.578   3.728   0.815  0.1622 -0.1868  0.2221
30877W        W46494  15.505  15.016  12.117 -0.1846 -0.0179  0.1993
30878W        W46495   6.583   6.765  14.425 -0.4667  0.0306  0.2425
30879W        W46496   8.686   7.861   0.905 -0.0083 -0.1103  0.0660
30880W        W46497  13.490  17.297   1.856 -0.0481  0.1330  0.0472
30881W        W46498   9.353  12.719  10.364 -0.2080  0.2734 -0.0775
30882W        W46499  14.789  13.500  11.026 -0.0044 -0.0642  0.0995
30883W        W46500   7.132   1.645  15.271  0.1116 -0.2016  0.1116
30884W        W46501   6.633  11.396   4.667 -0.2153  0.0701 -0.0677
30885W        W46502   8.477  13.074   1.755 -0.1293  0.0302  0.3916
30886W        W46503  14.691  15.167   2.035  0.0615  0.1907  0.1848
30887W        W46504  11.151   5.439   1.071  0.1281 -0.0513  0.0796
30888W        W46505  10.586   4.672   2.459 -0.0741  0.0944  0.1405
30889W        W46506   0.850  11.977  13.811 -0.0848 -0.3987  0.1608
30890W        W46507   0.846   0.408   4.080  0.0493 -0.0229 -0.1121
30891W        W46508   5.585  15.756  12.532  0.1049  0.1740 -0.5239
30892W        W46509   5.811   6.181  14.375 -0.1855  0.1367 -0.0939
30893W        W46510  11.422  14.817  14.694 -0.0116  0.0585  0.1742
30894W        W46511  17.268  14.409   4.371  0.1368  0.2556  0.2893
30895W        W46512  15.796  14.340   2.772  0.0248 -0.1960 -0.1658
30896W        W46513  12.798  10.575   1.684 -0.0173 -0.3122 -0.1244
30897W        W46514  18.099   1.518   4.234  0.0109  0.1441 -0.0893
30898W        W46515  14.188   0.868  14.406  0.1329 -0.0135 -0.0647
30899W        W46516   8.507   4.510  12.664  0.1784  0.2509 -0.1910
30900W        W46517  14.199   9.723   2.215 -0.0644 -0.3232 -0.0057
30901W        W46518  14.376  15.734  13.994  0.0288 -0.1215  0.3175
30902W        W46519   5.870   3.838  11.751 -0.1393 -0.2710  0.3196
30903W        W46520  12.109   3.369  12.360  0.1710  0.0906 -0.0636
30904W        W46521   1.429  13.283   0.741 -0.1575 -0.0298 -0.3247
30905W        W46522  16.338   6.796   2.288 -0.1024 -0.1937 -0.0294
30906W        W46523  15.270   2.176   4.167  0.1610 -0.0914  0.0006
30907W        W46524   4.272  10.073  14.930  0.0374  0.0653 -0.4434
30908W        W46525  15.512   9.572  10.238  0.3048 -0.0115 -0.2426
30909W        W46526   6.261   3.992   5.014  0.0165 -0.2536  0.4400
30910W        W46527  10.892  12.048   2.249  0.2746  0.2926 -0.2154
30911W        W46528   8.072  17.262   2.188 -0.0740  0.1544  0.2022
30912W        W46529  12.585   1.388   4.408  0.3966  0.4373 -0.1476
30913W        W46530   3.228  16.928   3.643 -0.1091 -0.1260  0.2286
30914W        W46531   3.483   9.999   2.736  0.0192 -0.0937 -0.0265
30915W        W46532   1.612   2.108   0.307 -0.0516  0.1040 -0.0770
30916W        W46533   4.408   6.098  14.909  0.1839  0.2690  0.0982
30917W        W46534   1.508  14.222   3.495  0.2859 -0.0296  0.0471
30918W        W46535   2.580  17.874  12.361 -0.2357  0.2550  0.1214
30919W        W46536  14.236  12.043   0.175 -0.4052  0.0547  0.0185
30920W        W46537   9.773   1.360   2.833 -0.2146 -0.1616  0.0863
30921W        W46538   9.737   9.535   4.125  0.2500  0.0079 -0.1295
30922W        W46539  15.704  12.960   1.038  0.1708  0.0206 -0.2357
30923W        W46540  16.904   9.037   4.054  0.1075 -0.0828  0.2150
30924W        W46541  10.116   1.294   4.507 -0.0840  0.0658 -0.1106
30925W        W46542  14.723   5.095  14.190 -0.0461 -0.1365 -0.3002
30926W        W46543   1.482  14.286   1.435  0.0377 -0.1426  0.2922
30927W        W46544  13.760  16.008   3.989  0.0518  0.2159 -0.0303
30928W        W46545  18.178   9.671   3.142  0.0923  0.1020  0.0533
30929W        W46546   4.861   4.566  13.062 -0.1192 -0.0908  0.2093
30930W        W46547   3.538  16.397   3.542 -0.1134 -0.2360 -0.2656
30931W        W46548   5.343   6.311  14.304  0.0648 -0.3570 -0.1537
30932W        W46549  11.843  14.596   5.239  0.0687  0.4123  0.0194
30933W        W46550   9.057   5.660   4.433  0.2395 -0.0299  0.0506
30934W        W46551  14.839   3.791   2.849 -0.5808  0.1892  0.3861
30935W        W46552  16.194  17.253  12.694 -0.0531  0.1791  0.0682
30936W        W46553  15.037   2.919   4.551  0.1908  0.0876 -0.2611
30937W        W46554  13.845   3.957   4.711  0.1061  0.2380 -0.1537
30938W        W46555   7.488  15.282   2.651 -0.2259  0.0950 -0.2600
30939W        W46556   6.417   0.160   5.940  0.1813 -0.1135 -0.0819
30940W        W46557  16.826  16.662  13.458  0.1470 -0.1202 -0.0407
30941W        W46558   7.869   9.462   3.734 -0.3480 -0.2560 -0.0321
30942W        W46559  16.078  18.874  12.121 -0.4237 -0.4411 -0.0866
30943W        W46560   6.111   6.234   0.808  0.1187 -0.0386  0.2323
30944W        W46561   9.836  13.760   5.026 -0.0501  0.1180  0.1108
30945W        W46562   7.630  10.584  13.437  0.0836 -0.1970 -0.0307
30946W        W46563   1.555  10.248   4.801  0.1612 -0.0884 -0.2928
30947W        W46564  17.936  15.407   3.745  0.0738 -0.0843  0.0345
30948W        W46565  18.792   6.553  13.045  0.3580  0.0811  0.1947
30949W        W46566  11.462   7.096  12.529 -0.2382 -0.2121  0.1691
30950W        W46567  14.526   6.011  14.174  0.1727  0.1828 -0.1598
30951W        W46568   8.872  17.048   9.524 -0.0125 -0.2191 -0.1571
30952W        W46569  10.020   3.821  11.678  0.1040 -0.1579 -0.2341
30953W        W46570   9.393   1.181   3.119  0.1675  0.0729 -0.0488
30954W        W46571   8.326   1.077   2.789  0.2650 -0.1497  0.0594
30955W        W46572  12.631  13.159   3.948  0.2371  0.2062  0.1414
30956W        W46573   3.193   6.626  10.912  0.1033 -0.1042  0.3295
30957W        W46574  14.791   3.985   1.462  0.0425  0.0710 -0.1706
30958W        W46575   4.492  15.537   2.963 -0.1829 -0.0282  0.0054
30959W        W46576  15.575   0.187   5.058  0.1416  0.0905  0.2733
30960W        W46577   8.321   1.069   5.246 -0.0981 -0.0216 -0.1914
30961W        W46578  17.447  10.113   1.849 -0.3179  0.0097  0.1809
30962W        W46579   8.614  12.284  13.231 -0.1432  0.1048 -0.0644
30963W        W46580   8.328  10.125   1.795 -0.0561  0.0104  0.2974
30964W        W46581  15.681   6.967  10.634  0.1219 -0.3155 -0.0641
30965W        W46582   4.761   3.495   2.340  0.1710  0.2972  0.3311
30966W        W46583   3.890   7.184   0.244  0.1309  0.0667 -0.2894
30967W        W46584   2.355  17.797  11.677 -0.0114 -0.1573 -0.1501
30968W        W46585   2.912  15.098   2.951  0.2846  0.3257 -0.0855
30969W        W46586   7.861  13.188  10.396 -0.0219 -0.0681  0.4833
30970W        W46587  12.047  17.609   4.174  0.0930 -0.0288 -0.1735
30971W        W46588  10.042  18.874  11.338  0.1199 -0.0847 -0.1041
30972W        W46589  18.057   2.222   5.413  0.0659 -0.1136 -0.0805
30973W        W46590  18.296  15.433   4.361  0.0443  0.0901  0.0300
30974W        W46591   2.473   0.452   1.089  0.1395 -0.1332 -0.0661
30975W        W46592   4.704  13.282   3.624 -0.0561 -0.0769  0.0417
30976W        W46593  10.440   9.205  14.424 -0.2377 -0.2099  0.0754
30977W        W46594   0.825  13.971  10.089  0.1239  0.1586 -0.0744
30978W        W46595   1.812   5.700  11.524 -0.0879  0.2657 -0.0287
30979W        W46596  12.604   4.103  10.872  0.4265  0.0433  0.0440
30980W        W46597   7.126   9.630  11.129 -0.2677 -0.3464 -0.0016
30981W        W46598  12.783   3.943   4.136 -0.0551 -0.0357  0.1220
30982W        W46599   9.836   4.943  11.982 -0.1594  0.1612 -0.0090
30983W        W46600   8.178  18.383  12.891  0.0658  0.0134  0.1610
30984W        W46601   9.470  11.924   0.464  0.1796 -0.0607 -0.1098
30985W        W46602  18.994  17.845  11.666 -0.0284 -0.0152  0.2672
30986W        W46603  15.224   6.783   3.476  0.1341  0.1700  0.0633
30987W        W46604  12.398  15.216   1.476  0.1446 -0.2710  0.3786
30988W        W46605   4.275   2.595   9.633 -0.1608  0.0948 -0.0208
30989W        W46606  15.649   6.175  14.888  0.0909  0.0404  0.6185
30990W        W46607  18.018   2.977   3.589 -0.0019  0.2037  0.0272
30991W        W46608  18.567  17.026   3.418  0.1284 -0.4578 -0.0031
30992W        W46609  16.971   8.261  11.274  0.3640  0.3056 -0.2334
30993W        W46610   2.352  15.060   0.489 -0.0221  0.3473  0.0868
30994W        W46611  14.383   1.981  11.654  0.2157 -0.0101  0.3723
30995W        W46612   3.621  13.986   0.138  0.0316  0.1001 -0.2792
30996W        W46613   8.679  10.700  12.417 -0.0637  0.0849 -0.3793
30997W        W46614   5.870  11.931   4.882  0.1009 -0.2336  0.0949
30998W        W46615  16.115  13.860   0.365  0.1166  0.2124 -0.0805
30999W        W46616  16.863   5.437   4.669  0.3294  0.1720  0.1786
31000W        W46617   9.240   3.976  12.417 -0.2244 -0.0903  0.1469
31001W        W46618  14.018   6.064  14.668 -0.0623  0.1849 -0.0879
31002W        W46619  16.155   4.461  10.610  0.0584  0.2410 -0.2187
31003W        W46620  15.271  17.365   4.461 -0.1278 -0.0258  0.1370
31004W        W46621  12.058   7.243   1.792 -0.3011  0.4322  0.4916
31005W        W46622   7.883  16.975  13.365  0.5328 -0.1056 -0.0815
31006W        W46623  18.439   9.989  12.205 -0.1813 -0.1332  0.1342
31007W        W46624   7.938  18.567   0.667 -0.1007  0.2182 -0.2120
31008W        W46625   9.389  16.525   0.206 -0.1720  0.0069  0.0340
31009W        W46626  10.410   0.951  12.358  0.1207 -0.2735  0.2233
31010W        W46627   2.425  16.710  13.696  0.2172  0.1434  0.3684
31011W        W46628   9.644  14.059   5.362  0.1192  0.1600 -0.1805
31012W        W46629  16.192   0.705  11.223  0.1011  0.0870 -0.1180
31013W        W46630   0.946  14.841  10.413  0.0914  0.3122 -0.1405
31014W        W46631  10.565  18.731  11.544 -0.0031  0.2142 -0.0209
31015W        W46632  14.780  13.590   2.989  0.2411  0.1935 -0.3148
31016W        W46633  16.813  12.558  12.917  0.1056  0.1046 -0.2817
31017W        W46634   6.737  14.745   3.967 -0.0694  0.0067 -0.0343
31018W        W46635  19.063   8.336  12.935  0.5363 -0.0540  0.1243
31019W        W46636   5.398  15.376   0.682  0.1126 -0.1904 -0.0091
31020W        W46637   9.275   3.501   3.030  0.0179  0.3328  0.1425
31021W        W46638  19.038  12.080   1.275  0.1608 -0.2154  0.4499
31022W        W46639   2.736  15.331  10.415  0.1465  0.2671 -0.0901
31023W        W46640   0.722   0.555  11.805  0.1816 -0.1942  0.0080
31024W        W46641  12.002   4.844  12.747 -0.0007  0.0379 -0.2955
31025W        W46642   8.496   6.341   2.223  0.1231 -0.3833 -0.2860
31026W        W46643  18.897  12.890  14.346  0.2360  0.1630 -0.1321
31027W        W46644   7.318   0.062   4.962 -0.0051  0.0413 -0.4077
31028W        W46645  13.161  10.876  14.364 -0.0563  0.0230 -0.0287
31029W        W46646   4.905   6.189   2.166  0.2609 -0.3743  0.1973
31030W        W46647  13.590  15.885   3.068 -0.3011 -0.0995  0.0967
31031W        W46648   1.412   7.996  12.351 -0.4636 -0.0630 -0.1144
31032W        W46649  13.501  17.675   3.874 -0.2233  0.0106  0.3987
31033W        W46650  11.135   6.538  14.017  0.3419  0.1834 -0.0646
31034W        W46651  18.589  10.261   3.753 -0.0133  0.4222 -0.0633
31035W        W46652   2.400  14.887   2.231 -0.0220  0.0674  0.0230
31036W        W46653  10.016   5.323   2.817  0.1523  0.0770  0.1852
31037W        W46654   1.702  12.675  13.150  0.0731 -0.2785  0.2306
31038W        W46655   6.901   0.983  11.937 -0.1669  0.3274 -0.1691
31039W        W46656   9.560   3.478   3.434  0.4277  0.0173 -0.4404
31040W        W46657  13.645   1.467   4.165 -0.3364  0.1988  0.2700
31041W        W46658   2.264   3.340  14.226 -0.3941 -0.2444 -0.0352
31042W        W46659   3.822   8.032   1.378  0.1392 -0.0443  0.0409
31043W        W46660   6.880  18.165   3.275 -0.3051 -0.1626  0.0871
31044W        W46661   4.617  18.159  12.261 -0.3369 -0.1087  0.3279
31045W        W46662  18.083  12.658  14.075  0.1265 -0.3731  0.2078
31046W        W46663  16.830  11.785  10.840 -0.0823 -0.2707  0.1052
31047W        W46664  10.487  14.972  13.521 -0.2333 -0.1478  0.0757
31048W        W46665   0.119  11.590   5.335  0.1114  0.1956  0.0401
31049W        W46666   5.405   9.165   1.534 -0.7699 -0.1082 -0.0436
31050W        W46667  13.761   0.152   0.120 -0.2857  0.4312  0.1223
31051W        W46668   9.373  12.411  11.223 -0.1801  0.1265 -0.1264
31052W        W46669   8.785   1.222   0.872 -0.0892 -0.2538 -0.0771
31053W        W46670   5.586   9.561   4.255  0.2498  0.0308 -0.0296
31054W        W46671  15.135  15.087   0.593  0.1425  0.0370  0.2439
31055W        W46672   4.454  12.717   4.155  0.0176 -0.2404  0.4383
31056W        W46673   1.163  12.295  10.245  0.1467  0.1023  0.1989
31057W        W46674  18.880   2.751   4.352 -0.2955 -0.1520 -0.0585
31058W        W46675   4.422   9.470   3.847 -0.1791 -0.2535  0.0947
31059W        W46676  16.462  12.900  12.566  0.0219 -0.0950  0.4485
31060W        W46677  12.227   5.334  14.010  0.5642 -0.0994 -0.0517
31061W        W46678  11.880   3.081   2.146 -0.0958  0.1662  0.1006
31062W        W46679   8.916   3.004  11.060  0.2963 -0.2410 -0.0339
31063W        W46680   8.428  12.673  11.765  0.1466  0.1309 -0.0205
31064W        W46681   6.285   1.632   2.475 -0.1715 -0.0403 -0.1399
31065W        W46682   0.923   9.583   0.580 -0.0553 -0.0675  0.1348
31066W        W46683   4.219   4.378  11.088 -0.3053  0.0429  0.1110
31067W        W46684   0.694   0.742  14.250 -0.0102 -0.0506 -0.1162
31068W        W46685  11.399   4.006  11.356 -0.4374 -0.1737 -0.2493
31069W        W46686   5.411  14.703  11.451 -0.0764 -0.0190 -0.1749
31070W        W46687  11.743   2.588   2.372  0.1936  0.0465 -0.1713
31071W        W46688  12.791  10.442  10.636  0.3036  0.0362 -0.1534
31072W        W46689   1.903  13.561  13.901  0.2388 -0.0409 -0.0599
31073W        W46690  15.353   9.014  14.272  0.0708  0.1788  0.0119
31074W        W46691  18.434  16.794   3.917 -0.0569 -0.3287  0.0249
31075W        W46692  17.781  13.872  12.688  0.0159  0.1627 -0.2594
31076W        W46693   0.964   5.214   1.513 -0.5118 -0.0151 -0.3464
31077W        W46694  15.005  18.398  14.050 -0.0534 -0.0294  0.1415
31078W        W46695  12.572  16.878  14.925 -0.0524 -0.2368 -0.4009
31079W        W46696   2.628   7.400   3.717 -0.3550 -0.1038 -0.0543
31080W        W46697  18.259  15.268  13.568  0.0894  0.4837 -0.3470
31081W        W46698  10.312   7.299  10.591  0.0982 -0.1469  0.0931
31082W        W46699   2.607   7.845  11.935 -0.0223  0.1358 -0.1582
31083W        W46700   0.636   1.324  13.420 -0.1000  0.1926 -0.1851
31084W        W46701   4.756   3.831  14.270  0.2266  0.0354  0.1522
31085W        W46702   2.277  10.900   4.586 -0.1107  0.0036 -0.3764
31086W        W46703  14.688  14.923   2.739 -0.0461 -0.1212 -0.2208
31087W        W46704   3.372   2.375   3.151  0.0901 -0.0838 -0.3591
31088W        W46705   7.118  16.004   4.213 -0.1943  0.1563  0.2275
31089W        W46706   5.999   0.297  10.939 -0.0400 -0.2906 -0.1515
31090W        W46707  11.819   3.936  14.402  0.2096  0.1112  0.0965
31091W        W46708   4.438  17.613   2.518  0.1903  0.0756  0.1897
31092W        W46709  13.481  16.322   2.720 -0.2174  0.1263 -0.2035
31093W        W46710   8.521   8.343   3.626  0.3335  0.1469  0.1291
31094W        W46711  16.769  10.509   4.089  0.0856 -0.1052  0.0890
31095W        W46712   2.358  16.473  11.885  0.2404 -0.1001  0.4391
31096W        W46713  10.973  14.114  13.101  0.1441 -0.0824 -0.1845
31097W        W46714   0.721   8.753  12.515  0.0137  0.2693 -0.2518
31098W        W46715  14.638  11.478   2.420  0.0957 -0.0751 -0.0060
31099W        W46716   4.599   3.394   6.081 -0.1832  0.2751  0.1927
31100W        W46717  15.030  11.070   4.824 -0.1523  0.0770 -0.0406
31101W        W46718  10.095  13.000  10.920 -0.0516  0.1683  0.1516
31102W        W46719   7.431   3.140   2.818 -0.2201 -0.1437 -0.0191
31103W        W46720   6.247   3.527   5.915 -0.0543 -0.3225  0.0169
31104W        W46721  11.065   9.408   3.596 -0.0977  0.1320 -0.2200
31105W        W46722  15.845   7.932   1.729  0.1710  0.1278 -0.0466
31106W        W46723  12.496  17.662   0.825 -0.1002  0.2625  0.1155
31107W        W46724  12.183  14.182   0.160 -0.1524 -0.0276 -0.1812
31108W        W46725   3.716   0.814   0.447  0.1793 -0.2306 -0.0496
31109W        W46726  19.048  18.222  15.000 -0.0111 -0.1073  0.0213
31110W        W46727  10.448  15.777  10.820  0.2523 -0.3036 -0.1787
31111W        W46728  11.141   0.214   3.436 -0.0894 -0.0971 -0.4582
31112W        W46729   9.904   7.285  13.869  0.0903  0.5047 -0.1971
31113W        W46730  14.472  14.656   4.003  0.0276  0.1173 -0.1018
31114W        W46731  14.787  18.542  14.536  0.1827 -0.2766  0.3195
31115W        W46732  13.410  16.188  13.939  0.1098  0.0970 -0.3919
31116W        W46733  10.596   5.465  10.699  0.1034  0.1826  0.3884
31117W        W46734   9.994   8.205  12.010  0.1222 -0.3409  0.1307
31118W        W46735  17.671   2.270   2.384 -0.0665 -0.0084 -0.0283
31119W        W46736   7.286  10.179  14.703  0.0133  0.1128  0.0726
31120W        W46737  15.510  15.641   3.580 -0.3121  0.1440  0.2013
31121W        W46738   1.088  16.534   2.774 -0.2166 -0.0358 -0.1967
31122W        W46739   9.915   3.129  14.877 -0.3394 -0.1750  0.0778
31123W        W46740   8.461  14.995  11.324  0.2152 -0.1390  0.0620
31124W        W46741   1.198  10.877   4.854  0.1935 -0.1037 -0.0057
31125W        W46742  14.517  11.698  11.183  0.0048 -0.4533 -0.1292
31126W        W46743   2.854   5.596   4.975  0.0591 -0.2698  0.2262
31127W        W46744   2.173   8.184   3.686 -0.0972 -0.2637  0.0883
31128W        W46745  17.458  14.780   4.653 -0.0829  0.1675  0.0845
31129W        W46746  10.168  18.791   0.095  0.3093  0.1803  0.1259
31130W        W46747  16.821   5.476  13.290  0.2411 -0.3427 -0.0723
31131W        W46748  12.372  11.299  12.555  0.3217  0.0035  0.1551
31132W        W46749   1.913   5.811  13.927  0.0135 -0.1652 -0.1806
31133W        W46750  14.619   5.268   5.004 -0.1168  0.0400 -0.0953
31134W        W46751   7.746  10.025   3.536 -0.1101 -0.0911 -0.2479
31135W        W46752  13.336  17.659   0.397  0.0896 -0.2029 -0.0829
31136W        W46753  15.208   1.723  11.003 -0.5736  0.1905  0.3655
31137W        W46754   9.545  13.571   4.606 -0.0116 -0.4852  0.2100
31138W        W46755  13.260  16.320   4.902  0.0206  0.2260  0.2251
31139W        W46756  18.524  18.488   0.784 -0.1664  0.1961 -0.3290
31140W        W46757  13.489  10.402   2.304  0.2808 -0.3424  0.0235
31141W        W46758  10.175  13.251   3.634 -0.2868  0.2046  0.0459
31142W        W46759  15.600  18.330  14.856  0.0228 -0.1729  0.1809
31143W        W46760  15.516  11.018   5.074 -0.0081  0.3043 -0.1234
31144W        W46761  13.614  10.167  11.488 -0.0485  0.0498  0.1538
31145W        W46762  18.938  11.641   3.176 -0.0456  0.1393  0.3183
31146W        W46763  11.522   1.325   0.559 -0.2196 -0.4983 -0.1050
31147W        W46764   9.202  11.568   2.501 -0.0255 -0.2244 -0.0769
31148W        W46765   1.023  11.181  13.356  0.3891  0.1947  0.0863
31149W        W46766   1.789   5.241   3.227  0.0391 -0.3245  0.1401
31150W        W46767   8.311   3.625   4.441  0.0330  0.0619 -0.3459
31151W        W46768  10.691  15.694  14.248 -0.0824  0.0794 -0.1885
31152W        W46769   6.757   1.012   0.575  0.1460 -0.0220  0.3940
31153W        W46770  10.290   9.824   0.236  0.0673  0.5038 -0.0263
31154W        W46771  12.192   8.593  11.449  0.2404  0.0628 -0.5379
31155W        W46772   2.745  11.474   3.427 -0.1193 -0.1316  0.0808
31156W        W46773   5.150  15.199   0.068  0.1716 -0.1615 -0.1445
31157W        W46774  15.828  12.018  14.361  0.0069  0.1171 -0.2148
31158W        W46775   9.178  17.410  12.933 -0.0202 -0.3158  0.1313
31159W        W46776   6.374   7.994  14.082  0.1298 -0.0435 -0.1113
31160W        W46777  16.101  16.151  12.360  0.0187 -0.0779 -0.3920
31161W        W46778   1.547   2.679   0.522 -0.2504 -0.6595  0.0200
31162W        W46779  17.027  14.419   2.867 -0.0764 -0.1793 -0.1930
31163W        W46780   7.850  10.073  11.527 -0.0911 -0.0036  0.1134
31164W        W46781   2.325  17.423   2.823 -0.0798 -0.3104  0.1174
31165W        W46782  16.171   7.295  12.015 -0.2820  0.0404  0.1190
31166W        W46783   9.843   2.512   5.095 -0.1868  0.3746  0.2329
31167W        W46784  18.458   8.229   4.637 -0.0923 -0.2670  0.0384
31168W        W46785  18.316   7.338  11.921 -0.1479 -0.0555 -0.1413
31169W        W46786  16.460   7.216  15.131  0.0822  0.0110 -0.0013
31170W        W46787   2.008  10.126   0.698  0.2872 -0.0808 -0.0013
31171W        W46788  14.837  10.171  11.302 -0.1331  0.0123  0.1987
31172W        W46789  13.548   4.903  13.375  0.2046 -0.1985 -0.2974
31173W        W46790  11.206   5.327   1.978  0.0327  0.2273 -0.3682
31174W        W46791   8.760   3.336  11.417 -0.0604  0.2463  0.2077
31175W        W46792   2.883  10.483   1.058  0.0949 -0.3805 -0.1811
31176W        W46793   0.050  17.051  13.503 -0.1939  0.1050  0.0730
31177W        W46794   6.363  11.436   2.378 -0.1121 -0.0089 -0.3161
31178W        W46795  13.891  11.892  11.264 -0.0254 -0.2651 -0.6278
31179W        W46796   5.266   7.825   2.144  0.0359 -0.1698 -0.0129
31180W        W46797  15.995  18.338  13.806 -0.1860  0.3684 -0.1870
31181W        W46798  11.148   5.332  13.862  0.0386  0.0458  0.1022
31182W        W46799  17.988   5.351  12.519  0.0982 -0.1352 -0.0521
31183W        W46800  11.560  17.270   4.660 -0.1908 -0.1069  0.5261
31184W        W46801  10.001  17.422   0.673  0.2326 -0.1758  0.4585
31185W        W46802   5.928  18.243  12.033 -0.0368  0.1097 -0.1224
31186W        W46803   2.084   3.767  11.835 -0.1027 -0.1466 -0.0190
31187W        W46804  16.197   9.552  13.323  0.1760 -0.2025  0.2801
31188W        W46805  13.682   4.559  12.376 -0.0246 -0.1079 -0.1126
31189W        W46806  11.698   9.938  14.461 -0.0261  0.0382 -0.0513
31190W        W46807   9.163   4.920  13.975  0.1494  0.0239  0.1874
31191W        W46808   2.869  16.531  13.776  0.0340  0.2701 -0.3275
31192W        W46809  14.972   9.006  12.950 -0.0575 -0.0805  0.2284
31193W        W46810  10.299  12.390   4.442  0.2139  0.1629  0.0354
31194W        W46811  17.911  11.868  13.831 -0.5617  0.0437  0.1489
31195W        W46812  18.525  10.417   3.027  0.2303 -0.2093  0.2321
31196W        W46813   6.249   1.995  12.196  0.0511 -0.3312  0.1590
31197W        W46814   4.655   1.722  14.332  0.0793  0.2666 -0.0011
31198W        W46815  17.904   7.099   3.354  0.1295 -0.1890 -0.2000
31199W        W46816  17.350   6.581   1.674  0.1984  0.0692  0.1074
31200W        W46817  18.519  13.111   1.649  0.1486 -0.3979  0.1065
31201W        W46818   7.023  18.784   2.573 -0.3861 -0.0354  0.1048
31202W        W46819  10.958  13.940   0.672  0.0129  0.2609  0.2142
31203W        W46820   0.093  15.677   3.578  0.2065  0.2666  0.0738
31204W        W46821   0.935  14.367  11.231  0.1996 -0.1500 -0.2135
31205W        W46822   7.677   5.879   0.859  0.0157  0.1120 -0.0553
31206W        W46823  17.495   4.266   0.439 -0.3226 -0.1654 -0.1812
31207W        W46824   1.166  14.512   4.965 -0.0395 -0.0854 -0.0054
31208W        W46825  17.172   4.192  14.925 -0.0304 -0.0914 -0.3415
31209W        W46826  16.496   9.591  10.227  0.1698 -0.0376  0.2710
31210W        W46827   2.020  18.371   0.396 -0.0027  0.1126 -0.2337
31211W        W46828   3.377   4.873  11.664  0.0120  0.1119 -0.1581
31212W        W46829  13.195   2.183   1.586 -0.2834  0.2072  0.1934
31213W        W46830  16.933   1.189   3.615  0.0035  0.1012  0.2723
31214W        W46831   3.965  19.021  10.744  0.2302  0.0926  0.2049
31215W        W46832   9.570   4.461   9.720  0.0901 -0.0734  0.2516
31216W        W46833  12.316   8.347  10.278  0.3108 -0.0027  0.0006
31217W        W46834  10.385  16.453   1.237  0.3396 -0.0943  0.2925
31218W        W46835   2.421   1.807  11.891 -0.0867  0.1646 -0.1355
31219W        W46836   9.283  14.768  11.287 -0.0261 -0.0037  0.2100
31220W        W46837  18.500  16.317   4.046  0.0747  0.0014 -0.0033
31221W        W46838   9.150  16.980   0.986 -0.2990 -0.1137 -0.0698
31222W        W46839   4.058  16.452  10.762 -0.1769 -0.2686 -0.1076
31223W        W46840  16.416  11.264   1.587  0.1841  0.1116  0.0534
31224W        W46841  12.960  17.959   2.804 -0.1457  0.1193  0.3110
31225W        W46842   9.152  19.070   1.521 -0.0973 -0.1160 -0.2852
31226W        W46843   2.482   1.980  13.114 -0.3485  0.0142  0.0751
31227W        W46844  15.185   9.866  11.517  0.2131  0.1175 -0.1716
31228W        W46845   2.856   9.308   4.323  0.1755 -0.1259 -0.3363
31229W        W46846   4.919  10.861   4.785 -0.1538 -0.1103  0.0308
31230W        W46847   4.446  14.010  14.576 -0.0047 -0.1839  0.1025
31231W        W46848   4.423  17.230  10.086  0.1582  0.0298 -0.3821
31232W        W46849   9.760  16.278  14.991  0.2576 -0.2132  0.3154
31233W        W46850   7.821  14.151  11.407  0.1153 -0.1044  0.1904
31234W        W46851   4.645   8.315   0.442 -0.0259  0.2055  0.0854
31235W        W46852   1.135   4.970  14.222  0.3779  0.1848  0.0692
31236W        W46853   3.796   0.883  13.910  0.2155  0.3733 -0.1781
31237W        W46854   5.016  17.684   3.294  0.2668  0.2179 -0.4846
31238W        W46855   6.740  11.004  11.758 -0.1415  0.1043  0.1866
31239W        W46856   1.246   3.757   2.391  0.0574 -0.3088  0.0935
31240W        W46857  16.215   7.229   3.156  0.0757 -0.0015 -0.1328
31241W        W46858  17.472  10.612   1.046  0.0855  0.0834 -0.0946
31242W        W46859   9.338   2.713  11.090  0.5239 -0.1478 -0.3047
31243W        W46860   6.835   7.541   3.377  0.0307 -0.0044  0.5246
31244W        W46861   4.096   9.367   3.424 -0.5157 -0.2369  0.2644
31245W        W46862  11.286  12.623   4.991 -0.1280 -0.0499  0.3418
31246W        W46863   2.853   0.269   5.492 -0.4887  0.0603  0.1638
31247W        W46864   0.591   8.786   1.920  0.2515 -0.1013 -0.0141
31248W        W46865  15.298   1.064   4.908  0.1292  0.2654 -0.0178
31249W        W46866  14.204  14.548   1.433  0.0915  0.0430 -0.0314
31250W        W46867   8.315   9.233   1.300 -0.0493 -0.1524  0.2641
31251W        W46868   3.444  13.259  14.528  0.1564 -0.0403 -0.2264
31252W        W46869   3.360  16.139   1.337  0.0314 -0.0357 -0.0153
31253W        W46870   5.447  16.546   1.009 -0.0479  0.0086 -0.1593
31254W        W46871   3.719  17.426  14.487 -0.0531  0.2638  0.1320
31255W        W46872  17.782  13.649  10.822 -0.0191  0.1408  0.0012
31256W        W46873  14.988  16.554   5.718  0.4674  0.0180 -0.0507
31257W        W46874  14.993   0.930  14.029 -0.1913  0.0013  0.2899
31258W        W46875   6.070  17.909   3.648  0.1137 -0.3156 -0.0018
31259W        W46876  16.159   6.679   5.166 -0.0916  0.2938 -0.0619
31260W        W46877   9.965   4.838   3.085 -0.1964 -0.2769  0.0628
31261W        W46878   9.121  17.317   3.790  0.1598  0.0673  0.1413
31262W        W46879  14.131  15.837   2.179  0.0598 -0.1230  0.1153
31263W        W46880   5.935   0.904   5.582 -0.2459  0.0207 -0.2969
31264W        W46881   3.952  11.555  13.496  0.1752  0.2087  0.0226
31265W        W46882   6.081  14.265  11.685 -0.3782 -0.2003  0.0560
31266W        W46883  14.357  17.221  11.516 -0.1619 -0.2717  0.1380
31267W        W46884  17.222   5.465  11.820 -0.0340  0.0092 -0.4113
31268W        W46885   9.517  17.509  11.492  0.2952 -0.1803  0.5279
31269W        W46886  18.524  18.821   2.482  0.0541 -0.3008 -0.4055
31270W        W46887   1.331  11.506   3.641 -0.0723 -0.0127 -0.1007
31271W        W46888   2.664   6.608   0.222  0.0630 -0.3106 -0.2792
31272W        W46889  17.185  16.254   3.921 -0.1529  0.3924  0.1658
31273W        W46890  11.249   8.244   3.046 -0.3754  0.1563  0.0027
31274W        W46891  16.790  15.398  11.747  0.0721  0.1701 -0.1154
31275W        W46892  14.285  13.280  11.048 -0.0358 -0.1032  0.0826
31276W        W46893   8.633  15.133   5.200  0.0911  0.1957 -0.1191
31277W        W46894  10.642   5.537   0.150  0.0783  0.1431 -0.0443
31278W        W46895  12.804   5.184   4.969  0.2800  0.2194 -0.1231
31279W        W46896   7.492  13.796   3.828  0.1124  0.0070 -0.0634
31280W        W46897   8.735  11.894   2.387 -0.1559 -0.0353  0.0908
31281W        W46898   9.014  18.370  12.577  0.0849  0.0301  0.1599
31282W        W46899  18.532   6.043   2.080  0.0227 -0.1011 -0.3777
31283W        W46900  16.840   4.857   1.285  0.1548  0.0114  0.0718
31284W        W46901   4.671   1.693   0.514  0.1944  0.3179  0.3234
31285W        W46902   8.360   8.941   0.664  0.0390 -0.0603 -0.1965
31286W        W46903  12.650   9.069  10.625 -0.0958 -0.0785 -0.5057
31287W        W46904   3.097  11.913  11.992  0.2902 -0.0495 -0.1295
31288W        W46905  10.511  17.837  14.676  0.2539 -0.0136 -0.0825
31289W        W46906  14.514   2.477  12.513 -0.0797 -0.0554 -0.2283
31290W        W46907  18.505   8.917  14.199 -0.3058 -0.0916 -0.3622
31291W        W46908   3.869  10.996  11.401  0.0816  0.1651 -0.0843
31292W        W46909   8.648  15.749   0.209  0.0906  0.0175  0.3261
31293W        W46910   8.688   3.040  11.781  0.2289 -0.0524 -0.3731
31294W        W46911  15.478   3.003   1.785  0.1033  0.0290  0.3530
31295W        W46912   2.496  18.696  12.884 -0.1051  0.0574  0.2513
31296W        W46913  16.615   3.951   3.127  0.4331  0.1133 -0.0620
31297W        W46914  12.884  15.927  10.459  0.1189  0.0228 -0.3074
31298W        W46915  15.979  16.757  13.818 -0.1400  0.0721 -0.2178
31299W        W46916  16.368   5.958  11.921 -0.1074 -0.1483  0.0448
31300W        W46917   9.756  10.491  15.186 -0.1245  0.2005 -0.0393
31301W        W46918   1.496   2.816  12.511 -0.1537  0.3361  0.2607
31302W        W46919   8.773   8.558  12.364  0.1366 -0.1084  0.3418
31303W        W46920  10.903   1.130  13.491  0.0468 -0.0259  0.2056
31304W        W46921   1.329   6.857   5.079  0.0376 -0.0599 -0.0306
31305W        W46922   9.395  14.096   4.321  0.0291 -0.0285  0.4910
31306W        W46923  15.257   5.765  14.876  0.0571  0.0156 -0.2898
31307W        W46924   8.118  18.643  11.922  0.0442  0.0173  0.2298
31308W        W46925   0.148   1.652  12.202 -0.0180 -0.0981  0.2511
31309W        W46926   0.816  11.478  14.742 -0.0780 -0.1929 -0.3424
31310W        W46927   4.549   7.376   1.603 -0.1884  0.0537 -0.0465
31311W        W46928   4.009   2.206   2.503  0.2230  0.1459 -0.2457
31312W        W46929   7.811  12.102  11.163  0.3121 -0.0617  0.0139
31313W        W46930   5.279  15.342   3.914  0.1427  0.2163  0.2346
31314W        W46931  18.883   5.439  14.166 -0.4595 -0.1895  0.1992
31315W        W46932   8.386   4.159  13.986 -0.0353 -0.1488 -0.4045
31316W        W46933  13.101  12.745  11.624  0.0305  0.3290  0.2795
31317W        W46934  12.916   1.052   1.085  0.2218  0.0875  0.3032
31318W        W46935  17.238   5.588  11.066 -0.0069  0.0408  0.0025
31319W        W46936   8.222   3.712  10.729  0.1323 -0.0488  0.0337
31320W        W46937   7.712   8.038   0.122  0.0671  0.0950  0.1360
31321W        W46938   1.977   0.384   3.169  0.1152  0.1804  0.2441
31322W        W46939   5.870   6.012   1.306  0.1004 -0.0156 -0.1936
31323W        W46940  12.142   3.488   2.223  0.1408  0.0242 -0.0069
31324W        W46941  18.192  14.803   3.017 -0.3408 -0.5986  0.3195
31325W        W46942   1.408  13.694  14.019  0.1939 -0.2101  0.0760
31326W        W46943  14.927  13.545  12.715  0.4017 -0.1148  0.1781
31327W        W46944   1.701  17.964  11.553  0.2647 -0.0534  0.0596
31328W        W46945   5.979  16.231  11.433 -0.3332  0.1919 -0.0397
31329W        W46946  10.175   6.879  10.837  0.2293 -0.2475 -0.0357
31330W        W46947   3.777  12.264  14.118  0.4611 -0.0749  0.0144
31331W        W46948   2.982   0.838  15.155 -0.0214 -0.0650  0.1039
31332W        W46949  11.902   2.654   0.436  0.2716  0.0766  0.1670
31333W        W46950  10.363   7.781  10.862  0.1798 -0.0696  0.3003
31334W        W46951  17.112  14.601   1.911 -0.0968  0.1685 -0.0939
31335W        W46952   6.518  11.238  15.020  0.1356  0.2857  0.1837
31336W        W46953   1.396   3.976  13.087 -0.2881 -0.2136  0.2251
31337W        W46954  16.594   7.218  12.332  0.1479 -0.3195 -0.0937
31338W        W46955  16.937   1.144  13.143  0.2317  0.1969  0.1286
31339W        W46956   0.833  18.824   2.959  0.3122 -0.1084  0.3136
31340W        W46957   5.733   8.719  15.015  0.0783 -0.1760  0.1644
31341W        W46958   8.040   5.261  12.631 -0.0165 -0.0376  0.1148
31342W        W46959   4.441   3.531   0.687 -0.0160 -0.2072  0.0372
31343W        W46960   1.531   0.117  15.163 -0.3333  0.0253  0.0329
31344W        W46961   3.814   3.425   4.123 -0.0988 -0.0412  0.1922
31345W        W46962   2.875   3.128   2.815 -0.0552  0.2069 -0.1376
31346W        W46963  12.204   6.007  11.080  0.0899 -0.0874 -0.1202
31347W        W46964   6.067  13.519  13.817 -0.1534 -0.0321 -0.1798
31348W        W46965   2.734  10.832  14.088  0.0361  0.0941  0.0387
31349W        W46966   2.865  18.876   4.520  0.2934 -0.0935 -0.0482
31350W        W46967  17.194   2.717   0.373 -0.0683 -0.2339  0.3097
31351W        W46968   0.995   9.083  14.464 -0.1860  0.0918  0.0733
31352W        W46969   8.799  12.894   0.443  0.1282  0.0760  0.0918
31353W        W46970  13.417  10.395   3.212 -0.2497  0.0795  0.0509
31354W        W46971  16.305   9.349  13.752 -0.3276 -0.1056  0.0831
31355W        W46972   0.445  16.751  11.250 -0.0413  0.0056  0.1141
31356W        W46973  10.203  13.036  15.188  0.1205  0.1509 -0.3898
31357W        W46974  15.679   0.142   3.238  0.1711  0.1673 -0.3041
31358W        W46975   6.567   8.368   0.173  0.2902  0.1315  0.1984
31359W        W46976   5.764  14.690  11.801 -0.3237  0.0386 -0.1235
31360W        W46977   0.224   7.140   4.384  0.0886 -0.1522 -0.2512
31361W        W46978  14.744  18.849  13.943  0.4354 -0.1833 -0.0194
31362W        W46979  16.751  13.447  11.630  0.3872  0.2618  0.1318
31363W        W46980  14.631   3.088  14.499 -0.1105  0.1031 -0.4848
31364W        W46981  14.168  18.423   5.396  0.3151 -0.1707  0.1281
31365W        W46982   7.334   4.976   4.652 -0.0424  0.0055  0.0412
31366W        W46983   8.258  16.406  10.831  0.1772 -0.1526 -0.1290
31367W        W46984  11.575   4.625  14.151  0.0909 -0.4391 -0.2473
31368W        W46985   1.938   4.690  14.253  0.1037 -0.0486 -0.1787
31369W        W46986   5.998  11.773   0.789  0.1639  0.0997  0.0712
31370W        W46987   0.282   6.622   4.522  0.1419  0.0422  0.1734
31371W        W46988  12.604   7.792   2.441 -0.1970  0.1091  0.1608
31372W        W46989  18.664   5.790   2.661  0.2459 -0.2623 -0.1313
31373W        W46990  14.842  11.251   3.921 -0.0824  0.2510 -0.0917
31374W        W46991  13.392   7.640  14.931 -0.0049 -0.0037 -0.2195
31375W        W46992   4.266  16.228   3.165  0.1796 -0.2669 -0.0351
31376W        W46993  17.463  12.331   0.297  0.2879  0.2592 -0.2006
31377W        W46994   2.591   1.528   6.012  0.2432 -0.3117 -0.0762
31378W        W46995  13.164   6.111  11.358 -0.3017  0.1395 -0.1967
31379W        W46996   0.408  15.877  14.231 -0.2403  0.0859 -0.0836
31380W        W46997  13.245   7.845   2.427  0.3117  0.1014 -0.0943
31381W        W46998   5.997   5.793   3.691 -0.3072 -0.2113  0.1111
31382W        W46999   3.635  12.480   3.253  0.0557 -0.3293  0.0285
31383W        W47000   2.896  15.828   0.745  0.2391  0.0393  0.0578
31384W        W47001  14.735  13.051   1.405  0.0445  0.3353 -0.0373
31385W        W47002   2.378  16.645   4.196 -0.0410  0.0636 -0.1409
31386W        W47003   3.680  13.526   3.364 -0.2393 -0.3129 -0.2918
31387W        W47004   4.064  16.536   3.668 -0.3171 -0.1895  0.3251
31388W        W47005   6.282  17.161   1.988 -0.1333 -0.1002 -0.2374
31389W        W47006  12.852  15.409   3.196  0.4839  0.2582 -0.0845
31390W        W47007   2.253   9.165  13.707 -0.3022 -0.0233 -0.0454
31391W        W47008   0.448  16.151   0.218 -0.2423  0.0484  0.1857
31392W        W47009   7.902  10.163   2.221 -0.4702  0.0393  0.0726
31393W        W47010   4.290  10.441  14.534  0.2741  0.1290 -0.0418
31394W        W47011  14.926   2.534  10.423  0.0538 -0.0580 -0.0379
31395W        W47012   5.232  12.114  13.206 -0.0161 -0.1118  0.0723
31396W        W47013  15.586  16.732  14.566  0.2737 -0.0564  0.0299
31397W        W47014  14.509   7.764   4.066  0.0443  0.0569 -0.1396
31398W        W47015  10.038   2.653  12.379  0.1209 -0.0515 -0.0500
31399W        W47016  11.270  12.519   3.440  0.1734  0.0065 -0.1616
31400W        W47017   5.541   3.833   3.821 -0.1282 -0.2582 -0.2217
31401W        W47018   5.591  10.736   1.934 -0.1099 -0.0208  0.0041
31402W        W47019  16.571  16.297  11.613 -0.0848 -0.1412 -0.1351
31403W        W47020   1.617   5.650   5.293  0.1453  0.1845  0.1171
31404W        W47021  15.035  13.015   0.997 -0.3677  0.0870  0.4343
31405W        W47022  13.315   0.241   2.217  0.0441 -0.2076 -0.0926
31406W        W47023  11.718  13.227   2.743 -0.3016  0.1304 -0.1126
31407W        W47024  12.610   7.358   2.995  0.1769 -0.1137  0.2199
31408W        W47025  14.986   1.798   9.674 -0.0001 -0.0302 -0.1269
31409W        W47026   1.458  16.315  11.486 -0.0103  0.1616  0.0833
31410W        W47027  12.327   7.718  11.904  0.0102 -0.4458 -0.4891
31411W        W47028   7.222  16.638  12.328  0.0013  0.0328  0.0204
31412W        W47029   2.241   5.662   5.339 -0.0884  0.0182 -0.3351
31413W        W47030   1.856  18.346  11.106 -0.0625  0.1097 -0.0171
31414W        W47031  17.251   0.529  13.497 -0.2968 -0.0322  0.1135
31415W        W47032   4.606  13.101  14.929  0.3238 -0.1432  0.1620
31416W        W47033  16.371   3.968   1.954 -0.0385  0.0984  0.1620
31417W        W47034   9.294  11.390   1.155  0.2737  0.3777  0.1664
31418W        W47035  18.994  17.551   3.932 -0.1166 -0.1937  0.0683
31419W        W47036  17.125   3.706  12.096  0.2395 -0.3674  0.1983
31420W        W47037  15.932   1.785   4.885 -0.1011  0.1223  0.0633
31421W        W47038   7.145  17.673  13.863  0.0901  0.1656  0.0798
31422W        W47039   1.276   6.527   4.671 -0.3762  0.2624  0.1361
31423W        W47040   2.480  10.050   4.758  0.5108 -0.0838  0.2408
31424W        W47041  12.886  11.095  12.123 -0.0380  0.0182  0.2135
31425W        W47042  11.805  17.995  11.316 -0.1440  0.1813 -0.1310
31426W        W47043   8.753   7.255   4.640 -0.2663 -0.2390  0.1923
31427W        W47044   1.094   9.567   3.960  0.0872  0.0128 -0.1237
31428W        W47045  17.464  15.386  14.615  0.0654 -0.1473 -0.2633
31429W        W47046  12.056   3.268  13.282 -0.0159  0.0725  0.1048
31430W        W47047   9.511  12.819   3.280  0.1832 -0.2888  0.1926
31431W        W47048  17.074   4.672   5.270  0.1685  0.1418  0.2525
31432W        W47049  12.067  12.516  13.526  0.1032  0.0332 -0.2658
31433W        W47050   2.755   3.448  14.345 -0.0938  0.2792  0.0820
31434W        W47051   5.597   5.290   2.850 -0.1226 -0.1689  0.1146
31435W        W47052  17.746  15.895   3.119 -0.0234  0.1380  0.1115
31436W        W47053  14.597  12.905  15.137 -0.1312 -0.1982  0.1518
31437W        W47054   2.028   3.455  10.842 -0.1156  0.1875  0.0327
31438W        W47055   6.714   5.785   3.805 -0.0354  0.2625 -0.1095
31439W        W47056  12.816   2.666  13.488  0.0375  0.0891 -0.1076
31440W        W47057  15.653   5.406   4.460  0.3158 -0.0693 -0.0546
31441W        W47058  17.510   4.046   3.714 -0.2190 -0.0212  0.0819
31442W        W47059  15.573  11.094  13.479  0.1412  0.2091 -0.1371
31443W        W47060  11.789  15.495   5.238 -0.1928  0.2104  0.1797
31444W        W47061  14.041  10.509  11.443 -0.1496 -0.1057  0.2045
31445W        W47062  10.495  13.661   3.795 -0.1756 -0.1068 -0.1102
31446W        W47063  18.388   3.964   0.423  0.2211  0.0222  0.1031
31447W        W47064  10.918   3.329   9.296 -0.1218 -0.4359  0.0519
31448W        W47065   8.207   4.179  13.477  0.0506 -0.1423  0.4889
31449W        W47066   0.936  12.656   3.381 -0.0004 -0.0928 -0.2578
31450W        W47067  14.746  17.538   1.933 -0.1952 -0.0998  0.2338
31451W        W47068   0.603   5.653  14.418 -0.3225  0.0288 -0.0571
31452W        W47069   3.609   8.934  13.908 -0.5406 -0.0051 -0.0818
31453W        W47070  14.812  16.548  13.370  0.3652 -0.0431  0.0297
31454W        W47071  12.226   4.984  13.211  0.3513 -0.0231 -0.2891
31455W        W47072   5.981  18.596   5.079 -0.3030 -0.0409 -0.0096
31456W        W47073  10.013   4.114   0.881  0.0006 -0.0188  0.4412
31457W        W47074   1.793   3.504   9.611 -0.0444  0.3993  0.2313
31458W        W47075   6.976  11.876   0.286  0.2305  0.2232 -0.3119
31459W        W47076  12.395   5.579  14.946  0.1150  0.0064  0.0998
31460W        W47077  11.335   2.301  12.206 -0.0993 -0.1156 -0.3176
31461W        W47078  13.105  10.002   2.459 -0.0495 -0.2290 -0.2032
31462W        W47079  12.533   8.363   1.008  0.0598  0.0381 -0.2249
31463W        W47080   9.092   4.536  11.358  0.3947  0.1598 -0.0915
31464W        W47081   2.492  17.892  10.834 -0.0613 -0.2748  0.2671
31465W        W47082   2.385  11.604   4.210  0.0170 -0.0188 -0.0689
31466W        W47083   1.077  17.266  13.207  0.0739  0.2503  0.0598
31467W        W47084  13.413  11.817   3.791  0.1024  0.3089 -0.1772
31468W        W47085  12.112   6.895   0.151 -0.0451  0.2539 -0.2214
31469W        W47086   1.824   5.584  10.507  0.1164  0.1468  0.1868
31470W        W47087  18.692  17.492   1.436  0.0926 -0.4988 -0.1358
31471W        W47088   9.210  17.094  11.570 -0.0475 -0.0194  0.1192
31472W        W47089   0.149  15.658   1.650 -0.0518 -0.0914 -0.0837
31473W        W47090   0.067   9.067  13.756 -0.1912 -0.0326 -0.0560
31474W        W47091  12.092  12.409  11.700  0.2382  0.0574 -0.3111
31475W        W47092  17.432   2.098  12.627  0.2206 -0.0375  0.0555
31476W        W47093  15.495  17.051   2.069  0.1095 -0.2197  0.2418
31477W        W47094   7.346  12.004   2.992  0.1640 -0.0419 -0.0635
31478W        W47095  13.846  12.024   3.256  0.1084 -0.0780  0.0315
31479W        W47096   0.013   6.844  15.281  0.1039  0.2641 -0.2069
31480W        W47097   7.155  15.892  11.990 -0.1187  0.0210  0.1543
31481W        W47098   5.493  14.921  12.726 -0.1778  0.3130 -0.1048
31482W        W47099  13.439   1.170  14.367  0.3364 -0.2100 -0.0108
31483W        W47100   3.429   3.389  15.111  0.2084  0.0320 -0.1280
31484W        W47101  13.177  15.802  11.170  0.1414  0.0083  0.5547
31485W        W47102   5.882   9.334  10.770 -0.0862  0.4312  0.0041
31486W        W47103   7.005   6.576   3.180 -0.1064 -0.1897  0.1426
31487W        W47104  10.524  17.724   4.808 -0.1424  0.0766  0.0026
31488W        W47105   6.471   8.314  11.185 -0.1245  0.1856 -0.1418
31489W        W47106   3.282  12.253   0.188  0.2954 -0.0865  0.2337
31490W        W47107  10.165   6.141   9.489 -0.2677 -0.0665 -0.1004
31491W        W47108  16.511  13.916   5.293  0.3093 -0.0786  0.0732
31492W        W47109  16.938   0.730  11.661  0.1451  0.2422  0.2307
31493W        W47110  17.253  10.763   4.892 -0.2109  0.0304  0.0981
31494W        W47111   0.114   1.443   0.770  0.4206  0.2361  0.1557
31495W        W47112   6.335   4.565   3.541  0.2121  0.1661  0.1756
31496W        W47113  18.405  14.887  13.246 -0.1023 -0.0247 -0.1070
31497W        W47114  11.419   6.049  10.730 -0.1251  0.0554 -0.0552
31498W        W47115  10.478  10.517   2.526  0.1636 -0.0536  0.0257
31499W        W47116   2.838   7.732  13.488 -0.1061  0.0545 -0.0288
31500W        W47117  17.965   2.457  14.516  0.0099 -0.2605  0.1475
31501W        W47118   8.727   3.992  13.579  0.1357 -0.1065 -0.0257
31502W        W47119  17.719  12.353  13.846  0.2520  0.0249  0.0801
31503W        W47120  13.280   0.327  11.228  0.0659 -0.0210 -0.1685
31504W        W47121   7.131  11.461   0.994  0.1278  0.0773 -0.0595
31505W        W47122  18.330   5.647   1.550  0.3248 -0.0398  0.0967
31506W        W47123   6.431  12.355   4.145 -0.1419 -0.1143  0.1509
31507W        W47124   1.813  10.785   4.804  0.1378  0.2118  0.0381
31508W        W47125   4.441   3.020   4.457  0.2789 -0.1412  0.1979
31509W        W47126  13.580   8.792  13.327  0.5336  0.0280 -0.4875
31510W        W47127   3.235   8.378   0.453 -0.0180 -0.1493 -0.2269
31511W        W47128  12.236   2.574   2.422  0.1676  0.0334  0.0527
31512W        W47129   4.126  17.931  12.317 -0.0889  0.1795  0.1893
31513W        W47130   9.280   6.402  12.944  0.3913 -0.2084  0.2330
31514W        W47131   5.035  12.079  11.834 -0.1210  0.2493  0.0850
31515W        W47132   2.963  15.402   4.686 -0.3640  0.1718 -0.1360
31516W        W47133   4.001   3.608  13.632 -0.1656  0.2880 -0.1208
31517W        W47134  17.609  14.842  14.206  0.0053 -0.1481  0.2998
31518W        W47135  16.359  13.332   0.117  0.0336 -0.0290 -0.0648
31519W        W47136   0.684   2.654   6.004 -0.2463  0.0906  0.0203
31520W        W47137  17.453  12.956   2.079  0.0369 -0.2068  0.3343
31521W        W47138  11.726   5.450   1.980  0.1249  0.0920 -0.1455
31522W        W47139  16.388  10.442   0.367  0.0796  0.2612 -0.2061
31523W        W47140   4.484   8.770  13.802 -0.1820  0.3299 -0.0634
31524W        W47141   3.145   7.361  12.817  0.0571  0.3491  0.1749
31525W        W47142   0.288   7.913   4.970  0.0915 -0.1188  0.0899
31526W        W47143   8.122  16.793   3.836 -0.1389 -0.0216  0.0738
31527W        W47144   5.201   9.868   2.836 -0.2581 -0.1821 -0.1878
31528W        W47145   5.785   3.951   1.822  0.1459 -0.2026 -0.3001
31529W        W47146  13.162  11.759   1.386  0.4519  0.2089 -0.1638
31530W        W47147  10.000  12.768   3.049 -0.1625  0.1361 -0.2375
31531W        W47148  15.481  13.679  12.618  0.0204  0.0094 -0.1708
31532W        W47149  13.378   2.052   4.513  0.1809 -0.0909  0.0915
31533W        W47150   1.714  13.796  14.356  0.1540 -0.1768  0.2694
31534W        W47151  16.756  12.039  14.984 -0.0249  0.1959  0.0001
31535W        W47152   3.090  18.803   1.260 -0.2849 -0.1351 -0.1367
31536W        W47153   6.140  18.113  11.129 -0.2281  0.1019 -0.0561
31537W        W47154   3.861  15.760  10.848 -0.0126 -0.0263  0.2367
31538W        W47155  15.433   9.946   2.823  0.2234  0.0161 -0.1527
31539W        W47156  18.290  13.937   2.364 -0.1803  0.1586  0.1479
31540W        W47157  15.867  13.410   0.061 -0.0073 -0.1322 -0.1117
31541W        W47158   4.414   5.251  13.727 -0.3591 -0.2534 -0.3903
31542W        W47159  16.796  10.773   0.647 -0.0850  0.2301 -0.1157
31543W        W47160   3.123   5.219  11.452  0.0171  0.1764  0.1255
31544W        W47161   6.430  13.591  12.308  0.1361 -0.1284 -0.0267
31545W        W47162   6.820   1.158   5.518  0.5090  0.0290  0.0882
31546W        W47163  13.712   7.708  11.997  0.1811 -0.3353  0.0566
31547W        W47164  18.697  17.385   0.636 -0.1440 -0.0141 -0.1727
31548W        W47165  12.072  11.238   4.611  0.2603  0.0138  0.2566
31549W        W47166  16.772  14.849  14.974 -0.1813 -0.1227 -0.1239
31550W        W47167  17.164   7.798  13.424 -0.0209  0.0531 -0.1098
31551W        W47168  17.042  14.074   3.923 -0.0045  0.0235  0.1203
31552W        W47169  10.003   2.521   0.579  0.2362 -0.3064 -0.3298
31553W        W47170   4.049   0.799   5.191  0.0150 -0.2698  0.1152
31554W        W47171   1.952  17.485  11.746  0.3214 -0.0164 -0.1434
31555W        W47172  17.659   5.924   2.389 -0.2487 -0.2074 -0.1182
31556W        W47173  18.172  15.358  12.451 -0.0302  0.2266  0.1068
31557W        W47174   5.837  14.948   3.090 -0.0861  0.2804 -0.0184
31558W        W47175  15.409   2.547  14.994  0.2975 -0.0975  0.1633
31559W        W47176   5.136   2.896  14.005 -0.4539 -0.1539 -0.0090
31560W        W47177  16.268  11.979  13.716  0.1249 -0.0537  0.0711
31561W        W47178  16.648  10.480   1.574  0.2340 -0.1025  0.3119
31562W        W47179  10.223   6.642   0.965  0.2358  0.6607 -0.1151
31563W        W47180  12.323   7.934  10.548 -0.3871  0.1852  0.1345
31564W        W47181  11.085  11.067  12.875  0.4763  0.0967  0.1501
31565W        W47182   8.892   2.544  14.184 -0.1288  0.2216 -0.1601
31566W        W47183   0.224  12.295  14.514 -0.0634 -0.0953 -0.1072
31567W        W47184  12.765  15.989  11.429  0.1633 -0.2822 -0.2530
31568W        W47185  17.546  11.208  10.259 -0.0013 -0.0478 -0.3995
31569W        W47186   8.581   6.953   4.295  0.0124 -0.0817  0.4051
31570W        W47187   1.617  13.741   2.351  0.4440  0.2801 -0.2385
31571W        W47188   2.953  15.925  11.408  0.2984  0.0387 -0.1652
31572W        W47189  18.022   1.042  13.372  0.0960  0.0686  0.1024
31573W        W47190  10.843  14.250  15.273  0.2145  0.1571 -0.2026
31574W        W47191   9.520   1.698   2.341  0.2470  0.3380 -0.2281
31575W        W47192   9.151   4.206   3.118 -0.1421 -0.1840 -0.0737
31576W        W47193   0.205   2.572   1.369  0.3140  0.2567 -0.1071
31577W        W47194   8.879   5.910  10.595 -0.1156  0.0410 -0.3400
31578W        W47195  18.383  11.849   4.290 -0.0057  0.2162 -0.0022
31579W        W47196   8.873   9.615  14.107  0.1363  0.0891 -0.3379
31580W        W47197  17.358   8.754   1.710  0.1381  0.0012 -0.0167
31581W        W47198   1.189   6.436   3.268 -0.2154  0.7304  0.2690
31582W        W47199  13.757   9.363  12.647  0.2783  0.0547 -0.1876
31583W        W47200   4.786   1.896  11.615  0.3363  0.4120  0.0364
31584W        W47201   7.225   2.800  11.834  0.4295  0.0634 -0.0129
31585W        W47202  17.726   6.734   2.975 -0.0303 -0.0718  0.0413
31586W        W47203  17.906  10.745  14.605  0.1016 -0.4209 -0.0256
31587W        W47204  10.939  14.865   4.610  0.4152  0.0681 -0.1448
31588W        W47205  15.739   9.876   3.619  0.3098  0.0100  0.1580
31589W        W47206   0.620   2.464   0.752  0.5355  0.2587 -0.1680
31590W        W47207   0.592   9.684  10.455 -0.3761  0.4976 -0.0562
31591W        W47208   6.891   6.188   3.971  0.0046 -0.0831  0.1010
31592W        W47209  16.780   4.138   4.414  0.1452  0.0638  0.2117
31593W        W47210  16.413  12.943   0.400 -0.0973 -0.1779 -0.0058
31594W        W47211   9.761  14.763   2.395  0.1277  0.1324 -0.0390
31595W        W47212   8.668  16.976  10.829 -0.0675  0.0877 -0.0227
31596W        W47213   0.190  10.795  10.483  0.1397 -0.1757 -0.0287
31597W        W47214   1.295   9.136   2.655 -0.1507 -0.1853 -0.0152
31598W        W47215   2.580   7.434   2.169  0.0707 -0.3304  0.2089
31599W        W47216   0.526  12.963   2.525 -0.0846 -0.1285  0.1659
31600W        W47217   9.725   0.197  12.937  0.1757  0.1873  0.0648
31601W        W47218  13.038   4.375   9.832  0.1473 -0.0310  0.0675
31602W        W47219  17.142   8.238  14.713 -0.1008 -0.5046 -0.2851
31603W        W47220  18.348  14.869  12.478  0.0465 -0.1084  0.1827
31604W        W47221  10.480   7.616   3.056  0.1080 -0.2527  0.0344
31605W        W47222  16.316  18.625   4.557  0.0635  0.0520  0.2820
31606W        W47223  14.102  14.339  14.421  0.1563  0.0949  0.2578
31607W        W47224   1.745   2.314   5.301 -0.0518 -0.1207 -0.2070
31608W        W47225  12.733   8.766   4.353 -0.0123  0.1525  0.0468
31609W        W47226  10.158  12.346   2.752 -0.0671 -0.1830  0.0745
31610W        W47227  11.581  10.467   3.738 -0.2240 -0.5030 -0.1463
31611W        W47228  15.963   4.933   2.507 -0.0678 -0.0218  0.0159
31612W        W47229   2.330   1.482   2.468 -0.1470 -0.3397 -0.1609
31613W        W47230  15.579  16.618   1.789  0.1427  0.1974  0.0255
31614W        W47231  11.679   3.576   3.390 -0.1040 -0.0317  0.1133
31615W        W47232   8.730  15.213  14.164  0.1175  0.1528 -0.1463
31616W        W47233  14.011   9.709  10.099 -0.0261  0.0002  0.0559
31617W        W47234  15.981  15.800  12.062  0.0568 -0.1447 -0.1198
31618W        W47235   5.323   9.502  14.756 -0.0474  0.0157 -0.0796
31619W        W47236   8.454   7.855   2.418 -0.1214 -0.4180  0.1760
31620W        W47237   4.646   7.623  13.518  0.1800 -0.0064 -0.1164
31621W        W47238   8.587  18.807   3.508  0.2859  0.1088 -0.0594
31622W        W47239  16.554   8.175   0.469 -0.2917  0.1937 -0.2271
31623W        W47240   8.803   5.493  10.303  0.2381 -0.4938 -0.1383
31624W        W47241   6.579   4.254  13.012  0.2053  0.0219 -0.2238
31625W        W47242   7.888  16.345   2.605 -0.0098  0.1970  0.0474
31626W        W47243   8.067  14.326   0.008  0.2016 -0.0687 -0.2303
31627W        W47244  18.219  15.205  14.937  0.1139 -0.1108 -0.0487
31628W        W47245   9.790  17.894  11.012  0.1146  0.0929 -0.0033
31629W        W47246  14.299  10.262  14.003 -0.0149 -0.1506  0.0938
31630W        W47247   6.600   1.769   5.741  0.1857  0.2827 -0.2457
31631W        W47248  18.049  16.473   2.399 -0.1711 -0.1791  0.1127
31632W        W47249   6.214  16.162   4.950  0.3385 -0.3895 -0.3061
31633W        W47250   1.029  12.507  11.537  0.0767  0.1861  0.2064
31634W        W47251   8.187   0.490  12.658 -0.4844 -0.1169 -0.1264
31635W        W47252  16.247  15.086  14.333 -0.0884  0.0699  0.2908
31636W        W47253  13.245  13.742   5.569 -0.4365 -0.2057  0.1445
31637W        W47254   8.189   5.901   1.815  0.1385 -0.1199 -0.0966
31638W        W47255  10.149   6.512   2.625  0.1948 -0.1520  0.2220
31639W        W47256  18.052  15.006  13.992  0.3002  0.1278  0.2822
31640W        W47257   5.780   0.146   2.532 -0.3034 -0.0766  0.1001
31641W        W47258   7.231  10.415   1.787  0.0688 -0.0737  0.0243
31642W        W47259   7.436   3.188  11.421  0.0779 -0.1810  0.1936
31643W        W47260   0.022  12.124   0.301  0.2719  0.0086 -0.2133
31644W        W47261   9.753   8.682   3.059  0.0764 -0.0468  0.1063
31645W        W47262  13.619  11.783  14.366  0.4880  0.2009 -0.0555
31646W        W47263   7.182   1.159   5.250  0.0129  0.1781  0.2021
31647W        W47264   5.097  17.879   4.093  0.2074 -0.3473 -0.0856
31648W        W47265   6.983  10.092   0.398  0.1456  0.0030  0.0648
31649W        W47266   6.780   7.610   4.609  0.2265 -0.1347 -0.0567
31650W        W47267  16.261   4.271  11.656 -0.2400  0.1773 -0.4174
31651W        W47268  18.928  18.845   1.302  0.0335  0.0828  0.0856
31652W        W47269   9.719   9.605  15.010 -0.0091 -0.4187  0.0341
31653W        W47270   4.499   7.273  10.710  0.1066  0.0583  0.0410
31654W        W47271  14.063   7.627   2.326  0.2544  0.1417  0.1102
31655W        W47272   7.433   4.735   2.270 -0.1675 -0.2530 -0.1161
31656W        W47273  19.029   9.345   4.343 -0.0462  0.1724 -0.0930
31657W        W47274  10.193  12.227   3.750 -0.1001  0.1612  0.6267
31658W        W47275   2.840  15.661  12.274 -0.1143  0.1140  0.2624
31659W        W47276  17.505  13.634   4.650 -0.0079  0.0938  0.1036
31660W        W47277  12.499  10.816   3.302  0.2163  0.0552 -0.0091
31661W        W47278   1.390   0.886   0.416 -0.0127 -0.2591 -0.1882
31662W        W47279   2.570  18.523   3.164  0.1030  0.1100  0.1228
31663W        W47280   3.699  10.366   0.651  0.0665  0.2580  0.0412
31664W        W47281   4.281   4.889  11.598 -0.1519  0.2424 -0.0384
31665W        W47282  17.274  17.649  10.993 -0.0218  0.0146  0.0359
31666W        W47283  10.201   6.800  10.192  0.1069  0.0504  0.1161
31667W        W47284  11.048  14.458  11.838 -0.2903 -0.2155  0.2651
31668W        W47285  10.150  15.944   1.464 -0.1547  0.3010  0.0089
31669W        W47286   4.512   1.914  12.180  0.1084 -0.1139  0.1289
31670W        W47287   3.447   2.735  11.714  0.0858  0.0488  0.1082
31671W        W47288  11.317  17.830  10.474  0.4853 -0.1731  0.1956
31672W        W47289   5.229   4.411  12.739 -0.1693 -0.0318 -0.1213
31673W        W47290   0.693   8.310   9.847 -0.3034  0.1235 -0.1723
31674W        W47291   8.465  10.945  12.807  0.3301  0.3279  0.0007
31675W        W47292   6.368   7.010   5.038  0.0020  0.2515  0.1121
31676W        W47293   3.506   3.198   0.349 -0.1506 -0.2642 -0.0931
31677W        W47294   2.088  16.454  13.450 -0.1287  0.1304 -0.4395
31678W        W47295   6.582  13.948  11.688  0.1605  0.0032  0.1743
31679W        W47296  10.990   0.614   0.874 -0.1273  0.1712  0.2225
31680W        W47297  15.279   3.232   5.147  0.1688  0.0012  0.2435
31681W        W47298   9.687  17.179   2.065 -0.2499  0.0362  0.2469
31682W        W47299   6.746  15.017   5.067 -0.1816 -0.0746  0.1322
31683W        W47300  15.594  11.848   0.014 -0.0071  0.2351 -0.4189
31684W        W47301   2.424  16.978   3.762  0.1543  0.0872  0.0836
31685W        W47302   9.235   4.324   0.546  0.1418 -0.0321  0.2351
31686W        W47303  17.395  16.461   0.487  0.0780  0.3610 -0.0905
31687W        W47304   3.425  10.058   3.274  0.1580 -0.1799  0.0580
31688W        W47305  14.308   5.717  12.407  0.1962 -0.2394  0.6452
31689W        W47306  11.680  14.172   0.228 -0.4469 -0.2141 -0.1209
31690W        W47307   8.116   5.422  11.926  0.1110 -0.2610 -0.1511
31691W        W47308   9.905   3.401  11.124  0.1091 -0.1523  0.0650
31692W        W47309   4.301   6.592   4.841 -0.1240  0.1416 -0.2313
31693W        W47310  18.735   3.215   0.627  0.3367 -0.1369 -0.1356
31694W        W47311   7.684  13.887   0.737  0.1036  0.1465  0.0488
31695W        W47312  17.280  17.697   4.663 -0.0776 -0.0293 -0.1053
31696W        W47313   7.792  12.567   0.218 -0.1432 -0.0078 -0.4886
31697W        W47314  14.513  16.651   1.107  0.0039  0.0708 -0.2582
31698W        W47315   8.997  14.750   2.108  0.0640 -0.2454 -0.1927
31699W        W47316  15.291   2.809  12.406  0.1014 -0.2408  0.2832
31700W        W47317  11.446   5.974   4.617  0.1425  0.0398 -0.3227
31701W        W47318   7.772   5.459  13.278  0.3967 -0.4995  0.3639
31702W        W47319  15.139   5.980  11.400  0.1372  0.1118 -0.0807
31703W        W47320  10.693   1.723   3.015  0.0884  0.0572  0.2931
31704W        W47321   2.228   2.955   5.628  0.0662  0.0862 -0.3492
31705W        W47322  18.432  11.717  13.965 -0.3028 -0.1872  0.0156
31706W        W47323  19.002   5.182   0.676 -0.2339  0.1086 -0.2668
31707W        W47324  17.492   3.798  12.575 -0.0572 -0.0680  0.0424
31708W        W47325  18.351  18.455  11.917 -0.0430  0.2851 -0.0889
31709W        W47326  17.294   2.712   4.172 -0.3006  0.0282  0.2254
31710W        W47327   6.966  12.816   0.831 -0.0514 -0.2255 -0.0477
31711W        W47328   9.837   3.222   4.248  0.3106  0.0036 -0.0924
31712W        W47329  18.517   2.945  14.313 -0.0527  0.2293  0.2744
31713W        W47330  18.234  18.012  11.015  0.2245 -0.1960  0.1333
31714W        W47331  16.644   7.626   0.503 -0.0635 -0.2097  0.2772
31715W        W47332   4.345  13.188   9.857  0.1250  0.3630 -0.0057
31716W        W47333   7.655   8.131  12.158  0.0484 -0.2428  0.0565
31717W        W47334  10.173  11.873  11.711  0.2747 -0.1503 -0.1344
31718W        W47335   4.978   9.414  12.024 -0.4326  0.2041 -0.2337
31719W        W47336   2.395   2.336  14.066  0.0646  0.1336 -0.0157
31720W        W47337   2.389   0.512   9.992 -0.0572  0.2136 -0.1335
31721W        W47338  17.643  11.108  12.677 -0.2658  0.2089 -0.0258
31722W        W47339   7.883   9.436   1.441 -0.2303 -0.1992 -0.0283
31723W        W47340  10.547   5.483  14.612 -0.1426 -0.3154 -0.0746
31724W        W47341   4.993  16.641   4.281  0.0238 -0.3461  0.4602
31725W        W47342  17.327   6.547  14.771  0.0171  0.2415 -0.3022
31726W        W47343   8.321   2.222  14.205  0.0604  0.0453  0.0698
31727W        W47344  13.708  13.866   1.084  0.2007 -0.1599  0.2957
31728W        W47345  10.032  18.776  13.906 -0.0557  0.5106 -0.0044
31729W        W47346  12.735   8.202   0.172  0.0377 -0.4075  0.0084
31730W        W47347   7.326  10.280   1.274 -0.0819  0.1027 -0.0016
31731W        W47348  17.590   7.532  13.549  0.2281  0.2035 -0.2387
31732W        W47349   5.682   7.339  10.321  0.1358  0.1039  0.1916
31733W        W47350  13.810  14.018   4.792  0.2350 -0.1443  0.0808
31734W        W47351  15.555   7.483   1.220 -0.2980  0.0102  0.2520
31735W        W47352  13.222  18.729  13.049  0.3725 -0.0192 -0.0481
31736W        W47353   9.092  15.373  15.223  0.0115  0.3254  0.0067
31737W        W47354   6.264  18.927   3.836 -0.2382 -0.2455  0.3671
31738W        W47355   4.921  18.875  11.867 -0.0761 -0.0801 -0.1357
31739W        W47356   2.476  11.116  13.152  0.0487 -0.0472  0.2176
31740W        W47357   6.025  17.169  14.517 -0.3835 -0.0219  0.0385
31741W        W47358   8.597   2.115   0.344 -0.0044 -0.0198 -0.1784
31742W        W47359   3.029  15.900   2.218 -0.1966 -0.1225  0.0775
31743W        W47360  15.949   8.235  13.111  0.1500  0.3210 -0.2230
31744W        W47361   6.993  14.352   4.513  0.0969  0.1785 -0.0304
31745W        W47362   6.778  17.148  11.061  0.2288 -0.1879 -0.0673
31746W        W47363  13.654   4.742  12.874  0.3004 -0.0706 -0.2192
31747W        W47364  18.682  13.581   0.548  0.1227  0.2824 -0.2386
31748W        W47365   3.944  16.445  15.194 -0.0658  0.2513  0.0192
31749W        W47366   1.909   5.860  12.400 -0.0541 -0.5630  0.3054
31750W        W47367   7.658   9.706  12.466  0.1150  0.4297  0.1373
31751W        W47368   7.025   1.847  12.011 -0.1973  0.2196  0.3014
31752W        W47369  18.850   2.709  13.394  0.1041  0.2426 -0.0522
31753W        W47370  11.683  14.664   1.154  0.0285  0.3450 -0.0399
31754W        W47371  15.972   9.549  14.216 -0.1000 -0.0457  0.0245
31755W        W47372   3.633   7.365   5.325  0.0289 -0.0132 -0.0149
31756W        W47373   6.537  15.727   4.230 -0.0489 -0.1170 -0.0411
31757W        W47374  11.552  11.319   3.852 -0.2526  0.1302  0.1861
31758W        W47375   1.502  16.761   0.814 -0.0633  0.0757  0.2168
31759W        W47376   8.664  12.501   2.552 -0.0716 -0.2196  0.2185
31760W        W47377   1.417   9.489  13.305  0.0724 -0.1587  0.1031
31761W        W47378   1.538   7.916   2.514 -0.0011 -0.5597  0.4153
31762W        W47379   5.972  12.392   5.909 -0.1346  0.2481  0.2080
31763W        W47380   5.782  13.097   2.205  0.2169  0.0578 -0.0007
31764W        W47381  15.491  16.647   1.117  0.2621 -0.2583 -0.0464
31765W        W47382  12.927  12.079  12.492 -0.2210  0.0935 -0.2599
31766W        W47383   2.500   8.248  10.482  0.0652 -0.5195  0.0691
31767W        W47384  17.495   8.833   2.773 -0.0534 -0.1532 -0.1898
31768W        W47385  10.885   2.898  11.961  0.0795  0.1829 -0.2102
31769W        W47386  14.089  13.172   1.754  0.1523 -0.0713 -0.0006
31770W        W47387   8.694   2.328   3.250  0.1440 -0.1419 -0.0423
31771W        W47388  18.691  15.555   3.222  0.0217 -0.0004 -0.2349
31772W        W47389   8.731  18.410  12.084  0.1635 -0.3205 -0.4538
31773W        W47390   5.411  10.296   2.602 -0.1850 -0.1041  0.2445
31774W        W47391   0.903   7.984   1.824  0.0801  0.0441 -0.0176
31775W        W47392   8.226   9.646  10.040 -0.0669  0.3593  0.0902
31776W        W47393   2.151  16.168   1.098 -0.2225 -0.0420  0.2748
31777W        W47394  17.007  15.924   4.708  0.2291 -0.2223 -0.0479
31778W        W47395   5.884  11.685   2.421  0.0039  0.1163  0.1887
31779W        W47396  10.197   1.046  14.006  0.5325 -0.1316 -0.3196
31780W        W47397   0.017   3.901  13.527  0.2289 -0.1667 -0.4925
31781W        W47398   6.711  15.522   2.271 -0.0751 -0.0464  0.0073
31782W        W47399   3.481  10.251   2.091 -0.2354  0.0383  0.3764
31783W        W47400  10.544   2.175   1.105 -0.2406  0.2177  0.0773
31784W        W47401   1.614   2.516  12.909 -0.0439  0.0451 -0.0067
31785W        W47402  12.425  15.029   6.027 -0.1958  0.0491  0.0742
31786W        W47403  17.299   9.621   1.381  0.1999  0.2187  0.1363
31787W        W47404  17.047  16.402  11.942 -0.3565 -0.1322 -0.2771
31788W        W47405   6.286  10.593   3.227  0.0607  0.2132 -0.0569
31789W        W47406   8.200   9.664  12.634  0.0684 -0.0068 -0.3507
31790W        W47407   2.305   5.399   4.914 -0.1506  0.0406  0.0167
31791W        W47408   1.759   0.496  14.490 -0.0183 -0.0908  0.3888
31792W        W47409   5.071  13.463   0.663  0.0790 -0.3204  0.1514
31793W        W47410   5.021  10.400  14.033  0.1715 -0.2605  0.0276
31794W        W47411   0.744  12.855   5.020  0.1884 -0.1045 -0.2394
31795W        W47412  18.475   1.036  10.176 -0.0988 -0.0823 -0.2387
31796W        W47413  14.670   9.376  13.103  0.1435 -0.1426  0.3861
31797W        W47414   4.078   7.510   1.937 -0.1846  0.0272 -0.1193
31798W        W47415   7.113   0.029   0.384  0.1613 -0.1827 -0.1999
31799W        W47416  11.968  13.609   1.379 -0.3757  0.3657  0.2491
31800W        W47417   1.454   3.960   4.836 -0.3299 -0.2367  0.0730
31801W        W47418  10.450  15.831   0.404  0.0422 -0.1034 -0.0766
31802W        W47419  16.778   9.546  14.751  0.2194 -0.2282  0.2199
31803W        W47420  10.771  18.457  14.371  0.2106  0.2084 -0.0244
31804W        W47421   2.044  15.334   1.518  0.0617 -0.2367  0.1734
31805W        W47422   5.859   1.155  15.126 -0.1308  0.1261 -0.2287
31806W        W47423  11.459  15.199  11.698 -0.2297 -0.0593 -0.0676
31807W        W47424  17.260  15.784   4.212 -0.1725 -0.3727 -0.0074
31808W        W47425  17.074   0.692   3.362  0.0849  0.0971  0.2740
31809W        W47426   6.620  14.984  14.298 -0.4200 -0.0177  0.3447
31810W        W47427  13.452  10.167   1.358  0.2242  0.0873  0.1169
31811W        W47428   7.235   1.735   3.112 -0.1284  0.0021 -0.3001
31812W        W47429   5.573  13.874   0.648  0.5758  0.2040 -0.1196
31813W        W47430  12.103  18.425  10.785  0.1739 -0.0473 -0.1098
31814W        W47431   7.580   1.324   0.447 -0.1709  0.2819 -0.1502
31815W        W47432  12.196   1.055  15.112 -0.0071 -0.2447  0.1636
31816W        W47433  18.640   7.020  12.897 -0.0015 -0.1300 -0.0427
31817W        W47434   0.626  16.801   1.929 -0.2088 -0.3204  0.3077
31818W        W47435  12.647  10.874   1.220  0.0472 -0.2681  0.1169
31819W        W47436  12.278  13.768   0.980 -0.0454 -0.2982 -0.0325
31820W        W47437  19.005   6.412  14.334 -0.1773  0.0411 -0.0951
31821W        W47438   5.247   2.125  10.593  0.0107  0.0869  0.3314
31822W        W47439   4.263  17.674  12.751 -0.0960  0.2045  0.2278
31823W        W47440  16.306   3.497  11.567 -0.0495  0.0387 -0.0977
31824W        W47441  16.396   8.229  15.194 -0.0322 -0.6635  0.2664
31825W        W47442  15.061  18.636   0.594 -0.1815  0.0515  0.3341
31826W        W47443   4.601  15.831   0.280 -0.3930  0.0174  0.2039
31827W        W47444   4.436   7.882  13.106  0.1084 -0.0401  0.0117
31828W        W47445  14.878  12.267  14.211  0.0424  0.4936  0.2032
31829W        W47446   0.933   8.618  14.752 -0.1140  0.1376 -0.1281
31830W        W47447  12.372   4.496   3.399  0.2012 -0.0177  0.0044
31831W        W47448   4.384   7.764  11.898  0.2596 -0.0718 -0.1548
31832W        W47449  13.217   9.044  13.999 -0.1751 -0.1873 -0.0761
31833W        W47450   7.319  15.540  12.297 -0.0217  0.0209  0.0044
31834W        W47451  14.512  12.493   3.603  0.1112 -0.0318 -0.2106
31835W        W47452   5.343   1.189   2.314  0.2411 -0.1640  0.0925
31836W        W47453   0.540   9.671  12.946 -0.1166 -0.0050 -0.3453
31837W        W47454  17.894   9.708   2.689 -0.1356 -0.2097 -0.0035
31838W        W47455  16.093  15.916  14.437  0.0384 -0.1607  0.2162
31839W        W47456   3.815  11.367  11.861 -0.0969  0.2382  0.0579
31840W        W47457  16.357  18.500  13.456 -0.0717  0.0630  0.2160
31841W        W47458   2.167  18.994   4.016  0.4034  0.1197 -0.3895
31842W        W47459  13.634   1.474  14.019  0.0256 -0.7965 -0.1362
31843W        W47460   7.380   5.940   1.308  0.3878  0.1185 -0.1032
31844W        W47461  10.534  11.186   0.460 -0.0349 -0.0961 -0.2165
31845W        W47462  12.654   5.923  10.832  0.1504  0.1240  0.1854
31846W        W47463  10.949  11.738   5.857 -0.1329 -0.1650  0.1826
31847W        W47464  14.309   7.630  14.422  0.1062 -0.1892 -0.1184
31848W        W47465   2.829   7.988  15.160  0.1331 -0.0353  0.1716
31849W        W47466  12.342   0.342   4.456  0.0243 -0.1849 -0.1724
31850W        W47467   6.801   0.295   0.032  0.0433  0.1908 -0.0852
31851W        W47468  11.809  14.492   1.626 -0.0611 -0.1638 -0.0652
31852W        W47469   8.900   0.598  10.726 -0.0963 -0.2694 -0.0217
31853W        W47470   9.213   3.940   1.286  0.1521 -0.0286  0.0454
31854W        W47471  10.367  14.636  15.185 -0.0258 -0.0104 -0.1733
31855W        W47472  12.967   0.683  13.368 -0.0760 -0.1430  0.0012
31856W        W47473   8.052   9.572   1.012 -0.1309  0.0504  0.3300
31857W        W47474   8.954   3.406  14.908  0.0767 -0.1288  0.1033
31858W        W47475   8.112  11.151   0.599  0.0579 -0.3264 -0.2490
31859W        W47476  15.860  11.270  12.357  0.4464 -0.0880 -0.1535
31860W        W47477   3.839   3.460   1.769  0.2844  0.3913 -0.3773
31861W        W47478  14.872  12.041   1.771  0.1885 -0.3129 -0.2008
31862W        W47479  12.188  11.151  13.813  0.1758 -0.0806 -0.0087
31863W        W47480  18.987   4.956   5.309  0.3322 -0.1940  0.2839
31864W        W47481  13.510   2.189  15.096  0.3434 -0.1168 -0.4179
31865W        W47482  13.009  12.873   2.859 -0.2404 -0.2839 -0.0915
31866W        W47483  14.556   3.485   4.414  0.0735  0.5768  0.1175
31867W        W47484   2.555   5.059   3.171  0.0369  0.0979 -0.0182
31868W        W47485   5.427  14.894   3.758  0.0366  0.2927  0.0052
31869W        W47486  15.770   1.356   0.406  0.0730 -0.0162 -0.0050
31870W        W47487  12.426  13.189   0.114 -0.0018  0.0588  0.1649
31871W        W47488   1.900   4.145  12.915 -0.1213 -0.0086  0.4077
31872W        W47489  18.839   4.077  11.186  0.0241 -0.1838  0.0651
31873W        W47490   3.767  15.170  15.184 -0.3280 -0.0291  0.1453
31874W        W47491   9.294   3.273   4.390  0.0832  0.0373  0.1772
31875W        W47492   3.302  18.545   0.814  0.2392 -0.4315 -0.1135
31876W        W47493   4.765   6.169   1.200  0.0280  0.1091  0.0899
31877W        W47494   3.429  13.469   1.729  0.0380 -0.3438 -0.1356
31878W        W47495  16.702   0.227  13.963 -0.1292 -0.2049 -0.3585
31879W        W47496   3.573   7.823   3.829 -0.1220  0.0720  0.0396
31880W        W47497   3.083  11.483  15.276 -0.0467 -0.1530 -0.0272
31881W        W47498   4.444  13.828   4.439  0.1667 -0.0211 -0.3663
31882W        W47499  15.913   7.261   2.759 -0.1584  0.1993  0.1350
31883W        W47500   5.664   5.315   1.780  0.3641  0.1281 -0.2961
31884W        W47501   6.819  13.598   3.133  0.0334  0.0061  0.1881
31885W        W47502   0.193  13.933  14.848  0.3517 -0.0653 -0.1518
31886W        W47503  12.205  13.299  14.034  0.2308  0.0692 -0.3107
31887W        W47504  15.069   5.490  11.471  0.1611  0.1287 -0.2839
31888W        W47505  16.700   4.635  12.147 -0.1098  0.2869  0.0562
31889W        W47506  17.783   7.097   0.743  0.4150  0.0085  0.0427
31890W        W47507  14.408  10.833   2.223 -0.2679 -0.0946  0.2294
31891W        W47508   6.924   5.783  13.604 -0.1225 -0.4533 -0.3120
31892W        W47509  16.914  16.006  12.816 -0.1617  0.3426  0.2224
31893W        W47510   3.129   6.143  15.037  0.2312  0.2018  0.1977
31894W        W47511   2.140   9.312   0.865  0.3779 -0.1690  0.0809
31895W        W47512  11.503   1.968   1.558 -0.1276  0.1726  0.1110
31896W        W47513  12.670  18.326   0.754  0.3984 -0.0040  0.1311
31897W        W47514   3.530   4.645  13.964 -0.0560 -0.2154 -0.3903
31898W        W47515   3.579   3.935   3.628 -0.3195  0.1334 -0.0346
31899W        W47516  15.906  10.100   2.486  0.3444  0.0719  0.0341
31900W        W47517   9.509   8.569   2.236  0.2070 -0.1530 -0.1856
31901W        W47518   2.202   4.591   1.924 -0.2796 -0.3033  0.2363
31902W        W47519  11.953   3.344   1.163 -0.1336 -0.3064 -0.0126
31903W        W47520  12.370   9.328   3.797  0.1135  0.0035  0.2856
31904W        W47521  14.299   3.685  12.277 -0.0067  0.2895 -0.0683
31905W        W47522  10.666   1.329   1.635  0.3971 -0.1078 -0.0192
31906W        W47523  10.843  17.811   1.340 -0.0591 -0.2620 -0.1510
31907W        W47524   5.216   6.287   5.121 -0.0643  0.2451  0.1012
31908W        W47525  17.329   1.231   3.964 -0.1289 -0.2055  0.1019
31909W        W47526   4.701   1.673   1.950 -0.1769 -0.0680  0.0158
31910W        W47527   4.590   5.683   4.227  0.0153  0.1415  0.2708
31911W        W47528   4.496  13.397   0.034 -0.0672  0.0236 -0.1048
31912W        W47529   3.008  13.454  11.023  0.1487  0.2013  0.0071
31913W        W47530   7.616   0.340  12.443 -0.3971 -0.1368 -0.1711
31914W        W47531   3.467  14.683   3.635  0.1296  0.5247  0.0340
31915W        W47532  15.019  10.597   5.035  0.1624  0.0319  0.2678
31916W        W47533  18.485   1.383  11.664 -0.0950 -0.1680 -0.1730
31917W        W47534  17.320   9.672   2.505 -0.1849 -0.0708 -0.1350
31918W        W47535  15.729  16.628  15.101 -0.0792 -0.1203  0.5458
31919W        W47536   0.088  19.080  13.422  0.0760  0.1972 -0.0323
31920W        W47537   5.778  10.350  14.964 -0.0569 -0.0030  0.0104
31921W        W47538   7.483   2.122   5.709  0.0392 -0.0407  0.1408
31922W        W47539  12.304   3.955   2.024  0.0389 -0.2807  0.0832
31923W        W47540   5.804  18.923   4.699  0.4989  0.0718 -0.2612
31924W        W47541  18.107  17.853   3.127 -0.0908 -0.1931 -0.2750
31925W        W47542  11.781  15.127   2.437  0.0804  0.1935  0.2038
31926W        W47543   5.152  16.125   2.008  0.0833 -0.0430 -0.0737
31927W        W47544   2.944   5.624  12.708  0.0621 -0.1227 -0.4474
31928W        W47545  10.487  12.446  15.157 -0.2409  0.0483 -0.0619
31929W        W47546  11.129   1.900   2.152  0.1712  0.0389  0.5370
31930W        W47547  14.272   0.711  13.905 -0.1621 -0.1092  0.4354
31931W        W47548   9.988   9.096   0.884  0.1265 -0.1217 -0.2085
31932W        W47549  12.890  13.873  14.388 -0.2760 -0.2054 -0.0684
31933W        W47550   9.916   4.436  14.647 -0.3337 -0.1509  0.1628
31934W        W47551   9.730   0.721  15.227 -0.0470  0.0163  0.2138
31935W        W47552   6.481  16.310  14.866 -0.1468 -0.0859  0.2018
31936W        W47553  15.402   1.731   4.145 -0.3272  0.0902 -0.0470
31937W        W47554  15.469  17.938  13.797 -0.2927 -0.0518 -0.2772
31938W        W47555   8.553  10.303   4.677 -0.0912 -0.0455 -0.1637
31939W        W47556   8.104   8.576  11.594  0.0950  0.0704  0.2083
31940W        W47557   8.180   2.579   3.795 -0.0832  0.2946 -0.1240
31941W        W47558  12.565  12.688   2.770 -0.1064 -0.1373  0.3049
31942W        W47559   3.138  16.923   1.463 -0.1632 -0.2138  0.0170
31943W        W47560  16.010   8.567   4.955  0.1705 -0.1128  0.2099
31944W        W47561   1.563   7.406   4.955 -0.0574  0.2722 -0.1037
31945W        W47562   8.832  11.448  13.193 -0.0827  0.0007 -0.4369
31946W        W47563   9.107  12.190  13.204  0.1668  0.1085 -0.4121
31947W        W47564   3.831   0.155  12.630 -0.0821  0.0375 -0.0454
31948W        W47565   3.531   3.093   2.301 -0.1881 -0.0459 -0.3008
31949W        W47566   7.808  17.365   4.278  0.2176 -0.0201  0.0489
31950W        W47567   5.743  17.189   3.349 -0.0583  0.1169  0.2802
31951W        W47568  13.957  12.647   2.634 -0.1590 -0.0452 -0.0789
31952W        W47569   0.114   8.088  10.423  0.1748 -0.1227 -0.0610
31953W        W47570   6.821   7.278  14.147 -0.2346 -0.1673  0.0108
31954W        W47571  13.717   7.793   2.615  0.1829 -0.3031  0.2388
31955W        W47572   5.991  15.612  12.829  0.1626  0.2753 -0.1972
31956W        W47573  13.105   4.305  13.249  0.3574  0.2691  0.0274
31957W        W47574   3.269   8.382  10.980  0.0689  0.0256  0.0772
31958W        W47575   9.849   5.542   1.715  0.1023 -0.2254  0.1022
31959W        W47576  16.656  11.694   2.098  0.3735  0.0647 -0.4694
31960W        W47577   0.378  15.633   5.320  0.1317 -0.2795  0.3262
31961W        W47578  12.543  14.067  14.764 -0.0267 -0.1921  0.1038
31962W        W47579  13.048   1.846   2.965  0.1942 -0.1626  0.4030
31963W        W47580  17.688  10.982   1.293  0.2703 -0.0538 -0.0007
31964W        W47581  18.082  11.907  10.501 -0.0184 -0.1440 -0.0982
31965W        W47582   0.099   7.840  11.957 -0.2317 -0.2162  0.3315
31966W        W47583   1.817  13.342   1.156  0.0432  0.4322  0.0933
31967W        W47584  11.252   5.127  11.588  0.0411 -0.2888 -0.2423
31968W        W47585  10.269  11.776  12.226 -0.0873  0.1828  0.0062
31969W        W47586   7.871   3.873   5.096 -0.0228  0.2059  0.0518
31970W        W47587  10.423  10.161  10.518 -0.3832 -0.1225 -0.1280
31971W        W47588  13.400   2.812   0.381 -0.3616  0.1887 -0.2508
31972W        W47589  13.590  10.015   4.271  0.5706  0.2538  0.0908
31973W        W47590   9.502  11.150   2.485 -0.0335 -0.0281 -0.3135
31974W        W47591  13.971   0.040  13.666 -0.2032 -0.2666 -0.1842
31975W        W47592  16.125  10.520   2.573 -0.2925 -0.1290 -0.1202
31976W        W47593  16.751   5.236  12.828  0.3538 -0.3029 -0.2900
31977W        W47594  18.149   5.103   1.714  0.1047  0.1977  0.0134
31978W        W47595   1.154   6.247  13.456 -0.2290  0.1223  0.1457
31979W        W47596  17.041  11.529   0.854 -0.3758 -0.0332  0.0590
31980W        W47597  17.726   2.084  14.349  0.1814 -0.3096  0.3173
31981W        W47598  17.757   2.404  10.390 -0.2221 -0.0782  0.0487
31982W        W47599  17.166   8.844  11.862  0.0852 -0.2180 -0.0670
31983W        W47600   9.979   3.413  12.184 -0.1253  0.1366 -0.1826
31984W        W47601   4.389   8.431  13.354 -0.2730  0.2409  0.0911
31985W        W47602   8.087   9.643  11.652 -0.0244  0.1160  0.0689
31986W        W47603  10.409  10.853  10.315 -0.1152  0.0315  0.1946
31987W        W47604   9.461  12.395   0.730 -0.0874 -0.2308 -0.0849
31988W        W47605   5.789  17.577   4.619  0.3146  0.2961  0.0830
31989W        W47606   8.928   5.413   5.177 -0.1457 -0.1396  0.3176
31990W        W47607   5.520   0.735   4.784  0.2143  0.1026 -0.1236
31991W        W47608   1.539   3.152   9.902 -0.1071  0.0616 -0.2685
31992W        W47609  13.100  14.142   2.153 -0.2524 -0.1837  0.1400
31993W        W47610  17.910   6.076   3.306 -0.2695  0.0999 -0.0254
31994W        W47611  12.432   1.468  14.395 -0.1892 -0.0994  0.5339
31995W        W47612  15.022   3.125  12.656 -0.0303  0.0653 -0.0697
31996W        W47613   4.187   2.054  14.047 -0.3394  0.3434 -0.2749
31997W        W47614   4.525   2.326   4.194 -0.1957  0.0051 -0.1179
31998W        W47615  12.941  13.685   1.850  0.1673 -0.2332 -0.1047
31999W        W47616  17.558   4.165   1.122 -0.2901  0.1989 -0.2511
32000W        W47617   0.869   6.601  14.337  0.3767  0.1751  0.0150
32001W        W47618   8.041  16.754   2.221  0.0252  0.0935 -0.0754
32002W        W47619  18.090  15.698   1.842  0.1385 -0.1364  0.0791
32003W        W47620  14.452   3.354   2.469  0.0498  0.0795 -0.2041
32004W        W47621   3.555   2.017   5.978 -0.3796 -0.4072  0.0344
32005W        W47622  13.515  14.707   0.390 -0.0911 -0.0439 -0.0234
32006W        W47623  17.062  13.631   3.644 -0.0800  0.2488  0.1066
32007W        W47624  14.086   0.681   1.206 -0.2529  0.3067  0.1049
32008W        W47625   0.493   0.725   3.748  0.0261  0.1660  0.1166
32009W        W47626  10.301   5.053  12.947  0.0095 -0.2479 -0.1438
32010W        W47627   4.730   8.836   2.805 -0.2231 -0.0329  0.1358
32011W        W47628  11.506  15.735   1.108  0.4089 -0.1874 -0.1360
32012W        W47629   3.824   6.784   2.548 -0.2117 -0.0152 -0.0594
32013W        W47630   2.093   9.442   4.961 -0.1777  0.0864  0.0797
32014W        W47631  18.617   7.780  11.869 -0.0568 -0.1963 -0.0386
32015W        W47632  16.239  17.217   3.399  0.2831  0.0195  0.0216
32016W        W47633   8.474  12.803   5.752 -0.2516 -0.0036 -0.2101
32017W        W47634   6.527   8.030   2.243 -0.3320  0.0963  0.2549
32018W        W47635  14.997   7.543  13.849  0.1292 -0.3944  0.2720
32019W        W47636  16.200   9.157  14.520  0.3279  0.2425 -0.0683
32020W        W47637   3.151   0.601  13.610 -0.5396 -0.2056 -0.0731
32021W        W47638  13.510  14.138   3.012  0.0205  0.3142 -0.0677
32022W        W47639  15.654   6.043   4.436  0.0361  0.2119 -0.0424
32023W        W47640  12.344   6.915   4.251  0.0292 -0.4048 -0.2873
32024W        W47641   0.103   8.789  11.601 -0.2880 -0.0207  0.2141
32025W        W47642  18.314  13.660  12.821 -0.0653  0.0550 -0.3879
32026W        W47643  14.119   3.008  14.453 -0.0741  0.2556  0.1198
32027W        W47644  14.782   8.941   3.718  0.0699 -0.3230  0.0018
32028W        W47645  11.335  15.355   5.200 -0.1924 -0.1811 -0.0652
32029W        W47646  14.194   4.165  15.202  0.2308 -0.2056  0.0062
32030W        W47647   5.436   2.578  12.001 -0.2501  0.1178 -0.3115
32031W        W47648  16.932  15.192  11.277 -0.0392 -0.1810 -0.0023
32032W        W47649   3.064  16.698  14.999  0.0393  0.3135 -0.2761
32033W        W47650  16.547  16.545  11.009  0.2856  0.1123  0.2080
32034W        W47651  10.054   0.303  13.726 -0.1981 -0.0725 -0.1217
32035W        W47652   9.680  11.183   4.770  0.4398 -0.1135 -0.0625
32036W        W47653  10.019  18.057   3.802  0.2442 -0.2787  0.2155
32037W        W47654  15.479  15.640   0.853  0.1714  0.0577  0.0083
32038W        W47655   0.383  12.331   9.522  0.2202  0.0821  0.1882
32039W        W47656   5.409  15.790  14.470  0.3501 -0.1143 -0.2092
32040W        W47657   1.280  11.491  12.997 -0.4316 -0.0063 -0.0056
32041W        W47658  18.179   7.130  10.848  0.2266 -0.0618  0.1209
32042W        W47659  13.447  12.097  13.286  0.2577 -0.0367  0.0680
32043W        W47660   8.222   8.703  14.355 -0.4732  0.0034 -0.2328
32044W        W47661  10.721   3.885   3.384 -0.0743  0.1243  0.0511
32045W        W47662  15.803  17.994  13.410  0.2215 -0.1478 -0.0114
32046W        W47663   9.155  16.302  12.695  0.0204 -0.2414 -0.1084
32047W        W47664  11.595  12.320  12.771  0.0949  0.1440  0.0652
32048W        W47665  10.446  17.171   4.854 -0.0891 -0.2310  0.0533
32049W        W47666  12.373   2.938   4.444  0.1767 -0.2621 -0.0554
32050W        W47667   8.513  17.899   3.693  0.1286 -0.1200 -0.0460
32051W        W47668   4.348  11.304  12.624 -0.2412 -0.2710  0.0547
32052W        W47669  13.871   4.967   4.315 -0.3231  0.2225 -0.5294
32053W        W47670   4.003  16.290   5.975  0.0825 -0.0572 -0.0165
32054W        W47671   8.929   0.282   4.268  0.1524 -0.1442  0.4204
32055W        W47672   9.127   5.771   1.290 -0.1108 -0.1525 -0.2576
32056W        W47673   4.213   8.543   4.916  0.4179  0.1819  0.0013
32057W        W47674   2.148   9.623   1.517  0.2885  0.0220 -0.1183
32058W        W47675   8.002  17.260   1.630 -0.0003 -0.0547 -0.3504
32059W        W47676   4.253  15.015  10.810 -0.1760  0.0131  0.1036
32060W        W47677   6.507   9.319  14.261 -0.3863  0.0405  0.6188
32061W        W47678  11.759  16.029   5.116 -0.0484 -0.0938  0.0276
32062W        W47679  16.376   1.133   1.984 -0.1904 -0.1803 -0.0122
32063W        W47680  14.859   2.154  12.908  0.1376 -0.1693  0.0940
32064W        W47681  12.773   6.228  11.854  0.2153  0.4133 -0.2305
32065W        W47682  16.588   7.647   4.161  0.2068 -0.0340  0.0804
32066W        W47683  17.342  17.555  13.892 -0.1800 -0.0969  0.0589
32067W        W47684   7.368   5.206   2.037 -0.3028 -0.0693 -0.1545
32068W        W47685   3.852  12.788   1.358  0.4361  0.1433 -0.0533
32069W        W47686   9.404   3.922   3.846  0.2384  0.0704  0.1066
32070W        W47687   2.334   5.392  12.941  0.2319  0.1598 -0.0467
32071W        W47688   3.595  14.019  14.111  0.1506  0.0122  0.1081
32072W        W47689  12.475   5.676   1.224  0.0529 -0.1115 -0.0079
32073W        W47690  15.412   5.200  12.942  0.3358  0.2245  0.1451
32074W        W47691   8.788   3.044  10.390 -0.5572  0.0221 -0.2626
32075W        W47692   3.899   2.033   4.298  0.0699  0.2060  0.2865
32076W        W47693  17.960  18.205   4.263 -0.1827 -0.0259 -0.0153
32077W        W47694  10.416   5.418  13.754 -0.1698 -0.4236  0.3727
32078W        W47695   4.931   8.059  10.580 -0.3977  0.0322  0.0325
32079W        W47696  18.831  16.110  13.627  0.1817  0.0995 -0.1662
32080W        W47697  18.867  11.130   3.199 -0.1352  0.1588 -0.1123
32081W        W47698  10.557   1.777  12.768  0.2994  0.0343  0.1193
32082W        W47699   7.301  10.515   0.734 -0.1831 -0.0704  0.0457
32083W        W47700   9.059   2.518   2.289 -0.2452 -0.1857 -0.2138
32084W        W47701   0.815   3.569   6.014  0.5017  0.1318 -0.2621
32085W        W47702   3.699   9.342   4.319  0.2382 -0.2654  0.0095
32086W        W47703   1.216   6.989  11.488  0.0682  0.2797 -0.3950
32087W        W47704  13.434   6.763  11.891 -0.2273  0.0178  0.0753
32088W        W47705   6.380   9.437   2.080 -0.0037 -0.1827 -0.1126
32089W        W47706   3.751   7.390   3.534 -0.1854 -0.2136 -0.0833
32090W        W47707  10.825  14.123  12.153 -0.2285 -0.3516  0.0712
32091W        W47708   3.723  14.031   5.892  0.0006 -0.0124 -0.1041
32092W        W47709   1.877  16.705   1.508 -0.1900 -0.2340 -0.1947
32093W        W47710   1.982   0.616  10.849  0.0939  0.2224 -0.1739
32094W        W47711   4.882   8.393   1.464  0.0036  0.0914 -0.1106
32095W        W47712  15.016   6.434  10.651 -0.0260  0.4495 -0.1930
32096W        W47713   6.002  15.510   5.720  0.0303  0.3062  0.4465
32097W        W47714   8.376  16.463   2.444  0.0630  0.1493  0.2630
32098W        W47715   4.447   7.077  12.134 -0.0987 -0.3444 -0.0626
32099W        W47716   4.849  17.591   5.702 -0.2083  0.1873 -0.6055
32100W        W47717  10.951   5.284  11.010  0.0094  0.0919  0.1028
32101W        W47718   7.476   6.532   2.873 -0.2583  0.1648 -0.2256
32102W        W47719   5.323   5.501  13.885 -0.0424  0.1206  0.1605
32103W        W47720  10.267  16.474  11.093 -0.1471  0.2580  0.0957
32104W        W47721  13.768  11.513   5.055  0.2090  0.0531  0.0977
32105W        W47722  10.489   2.629  10.391  0.3540  0.3304 -0.0500
32106W        W47723  12.954   4.871   3.649  0.0172  0.1512  0.1262
32107W        W47724  15.712  18.722   0.132 -0.2478 -0.3030 -0.2470
32108W        W47725  10.747  15.429   0.510 -0.1900 -0.1949  0.0262
32109W        W47726   1.371  18.555   4.743  0.1174 -0.2235 -0.1236
32110W        W47727   8.934   5.838  11.814 -0.1668 -0.1642 -0.1125
32111W        W47728  11.567  17.698  10.897 -0.6512 -0.1862 -0.0050
32112W        W47729  15.330   2.825  13.288  0.0629  0.3827 -0.2170
32113W        W47730  18.506   2.897  11.133 -0.2045 -0.0946 -0.1846
32114W        W47731  17.785   6.625  10.193  0.3706 -0.1133  0.1178
32115W        W47732   4.181   7.313   3.074  0.1310  0.0752  0.2288
32116W        W47733   4.230  16.365  13.750  0.4997 -0.2093  0.2081
32117W        W47734   8.163  16.925  12.022  0.2360  0.0058  0.3722
32118W        W47735  10.976   4.106  14.593  0.0223  0.1205  0.0192
32119W        W47736  15.389  11.251  14.898  0.0714 -0.3023  0.2374
32120W        W47737  12.240  11.185   2.121  0.0156 -0.0711  0.0445
32121W        W47738  17.117  14.529  15.076 -0.1639 -0.0506  0.1013
32122W        W47739  13.697  10.602  13.148 -0.0392  0.0830  0.1739
32123W        W47740  10.071   5.370   3.371  0.0502 -0.0140  0.3338
32124W        W47741  16.036  11.569  10.954  0.0399 -0.1228 -0.0504
32125W        W47742   6.400   8.332  12.056 -0.3064 -0.3952  0.0240
32126W        W47743   4.092   7.492   1.334  0.1527  0.1909 -0.0688
32127W        W47744  18.593   2.519  13.024  0.0342 -0.1348  0.0238
32128W        W47745  11.408   7.112  14.960 -0.0586  0.4674 -0.2905
32129W        W47746  17.979  15.022  11.208 -0.0337  0.5457  0.0081
32130W        W47747  11.127  11.181   9.794  0.0347 -0.0789 -0.1828
32131W        W47748   5.230  17.906  11.526 -0.0792  0.0852 -0.2054
32132W        W47749  16.899   3.194   1.483  0.0128 -0.0409  0.1099
32133W        W47750  13.712  11.994   0.016 -0.3178 -0.2090  0.0835
32134W        W47751   0.707   4.549   1.842 -0.0014 -0.0610  0.1922
32135W        W47752  15.970  11.874   4.845  0.2480 -0.0978 -0.0920
32136W        W47753   7.188   3.354   5.254  0.1163 -0.0924 -0.1500
32137W        W47754  16.742   3.583   3.626  0.0725  0.1327 -0.3389
32138W        W47755   8.914   8.663  10.307 -0.4510  0.1065  0.2073
32139W        W47756  13.367  16.705   2.267  0.3369  0.2667 -0.3111
32140W        W47757   6.242  18.461  13.260  0.0726 -0.2110  0.0101
32141W        W47758   9.236  14.754   1.651  0.1686  0.2421 -0.4139
32142W        W47759  17.641  15.144  11.763  0.0344  0.0557 -0.1344
32143W        W47760  12.291   2.501  14.729  0.1648  0.1529  0.1058
32144W        W47761   4.276  13.118   3.866  0.0459  0.0433  0.1434
32145W        W47762   1.283   5.635   1.728  0.0747 -0.1690 -0.0451
32146W        W47763   9.753  14.689   1.805  0.2734 -0.0749  0.0025
32147W        W47764   9.071   1.589   1.098 -0.1968 -0.1959 -0.1404
32148W        W47765  17.119   2.630  14.782 -0.3045  0.2219 -0.1880
32149W        W47766  18.537   1.196   1.478 -0.0048  0.2004  0.1605
32150W        W47767  17.201   6.480   2.598  0.0509  0.5662 -0.0996
32151W        W47768   2.042  18.877   3.128  0.7788 -0.0585 -0.2078
32152W        W47769   0.877   3.495  13.771 -0.2396  0.2603  0.2741
32153W        W47770   3.389  18.327  12.285 -0.1371  0.2826 -0.1254
32154W        W47771   7.885   9.186   4.715 -0.1507  0.0703  0.3140
32155W        W47772   4.848   4.886   3.451 -0.0053 -0.0661  0.3244
32156W        W47773   4.685  15.986   4.887 -0.0877  0.1729  0.1591
32157W        W47774  14.535  11.226  15.003 -0.1628 -0.4720  0.1201
32158W        W47775  17.117   8.172   5.523  0.2773  0.1470  0.1386
32159W        W47776   7.369  12.206   4.592  0.0772  0.2982  0.2392
32160W        W47777  18.674   8.832  10.412 -0.0420  0.2692  0.1778
32161W        W47778   0.220   7.619  12.980  0.0918  0.1060 -0.0625
32162W        W47779   6.734   3.602   3.379  0.2238 -0.0715  0.0818
32163W        W47780   6.659   5.921   2.538 -0.2594 -0.1955  0.2221
32164W        W47781  11.247  17.983  11.291 -0.2289 -0.1142 -0.1262
32165W        W47782   4.474  17.841   1.584 -0.0419  0.1029 -0.2413
32166W        W47783   3.402   7.327   4.018  0.2070  0.1689  0.0895
32167W        W47784   9.367  14.939  10.760  0.0550  0.0385 -0.1047
32168W        W47785   3.869   3.074  10.369 -0.4853  0.1132  0.0418
32169W        W47786   6.624   8.448  13.785  0.1751  0.2980  0.1664
32170W        W47787   9.711   8.178   4.916 -0.0208 -0.1282  0.1381
32171W        W47788  16.185   8.959   3.281  0.0274  0.0588 -0.1402
32172W        W47789   1.031  13.515   4.041  0.1853 -0.2493 -0.4258
32173W        W47790  16.414  17.678   3.705  0.5125 -0.1255  0.1071
32174W        W47791   5.825  15.184  12.990  0.2441 -0.0438  0.0212
32175W        W47792  17.464   2.174  13.902 -0.0973 -0.1369 -0.0188
32176W        W47793   0.475  17.337  14.306 -0.1059  0.1762  0.1514
32177W        W47794   3.000   5.125   1.296  0.3098  0.0741  0.0648
32178W        W47795   5.782   1.543   1.249 -0.0270 -0.0241 -0.0014
32179W        W47796  11.077   8.177   1.187  0.0514 -0.2048  0.6244
32180W        W47797   8.278  16.324   2.954 -0.0384 -0.1518  0.1132
32181W        W47798  13.647  10.352  11.035  0.0515  0.1039 -0.0066
32182W        W47799  17.316   3.919  11.645 -0.1070  0.2256 -0.2727
32183W        W47800   9.216   0.098  12.660  0.1654 -0.1198 -0.0952
32184W        W47801  14.424  13.238  13.105  0.1349  0.1529 -0.4985
32185W        W47802   1.553  15.766   1.721  0.1378 -0.3644  0.0659
32186W        W47803  15.592  15.035   2.120 -0.1404 -0.0771  0.0501
32187W        W47804  17.859  11.041   1.810 -0.2333 -0.0275  0.1249
32188W        W47805  16.487   1.979   0.760  0.4156  0.0214 -0.1926
32189W        W47806   1.907   2.287   3.302  0.1192  0.2804  0.0028
32190W        W47807  14.379  14.086   4.958 -0.1830 -0.0782 -0.4660
32191W        W47808  10.331  17.843   2.128 -0.0074  0.1046 -0.1196
32192W        W47809   6.717   2.768  11.998  0.0187 -0.1787  0.1894
32193W        W47810  13.888  13.139  14.765 -0.1655 -0.2859  0.1733
32194W        W47811  16.700   0.360   9.304  0.0625  0.0568 -0.1630
32195W        W47812  11.490   5.157   3.193  0.2442 -0.1888 -0.1104
32196W        W47813  13.744   1.329  15.284  0.3580 -0.1753 -0.0639
32197W        W47814   5.864  18.633   3.804 -0.0287 -0.1471  0.1279
32198W        W47815   0.977   4.926  10.640 -0.2422  0.1393 -0.0367
32199W        W47816   8.274   1.454   2.304  0.0533 -0.1084 -0.2257
32200W        W47817   7.369  12.662   0.559 -0.1152 -0.2353  0.3837
32201W        W47818   4.523   5.278   1.227 -0.1842 -0.0018  0.2072
32202W        W47819   4.503   9.561  12.341  0.0084 -0.1123  0.1113
32203W        W47820   6.127   5.185  12.868  0.0416 -0.0739 -0.2688
32204W        W47821   4.807  10.658  10.525  0.0260  0.0632  0.0231
32205W        W47822   1.006   3.146   9.857 -0.1073 -0.3649 -0.2156
32206W        W47823  13.694   7.703  10.248 -0.0854 -0.0423 -0.0733
32207W        W47824  14.422   6.600  11.027 -0.3027 -0.2828  0.2452
32208W        W47825  12.856  19.039   1.072  0.1934  0.1607 -0.0490
32209W        W47826   8.196  12.618   4.920  0.0442 -0.3342 -0.1738
32210W        W47827  12.931  17.456  11.530 -0.1149 -0.0743 -0.1892
32211W        W47828   7.117  13.618   5.178 -0.0332 -0.1574 -0.1842
32212W        W47829  17.442   6.297   3.790  0.2349 -0.1244  0.1439
32213W        W47830  11.633   9.019   1.764  0.1826 -0.1803 -0.2218
32214W        W47831  10.947   1.366   1.264 -0.1740 -0.0629  0.2652
32215W        W47832  12.837  13.479  14.050 -0.1187 -0.2296 -0.1259
32216W        W47833  16.803  13.615   1.983  0.0293  0.3066  0.3522
32217W        W47834  15.150  12.677   2.381 -0.0229  0.1010  0.4383
32218W        W47835  18.916   0.706   4.541  0.2385 -0.1939 -0.0924
32219W        W47836   2.576  14.669  11.923 -0.1507  0.0332 -0.0867
32220W        W47837   6.892   6.623   1.355 -0.1411  0.2984 -0.0378
32221W        W47838   6.740   9.887  15.121 -0.1993 -0.3825  0.1084
32222W        W47839  13.908  16.942   3.084 -0.0353 -0.3700  0.0706
32223W        W47840  16.934  16.471   4.784  0.0472 -0.1604 -0.0254
32224W        W47841  12.485   5.692  11.886 -0.0275  0.1657  0.0629
32225W        W47842  11.830   7.465  12.845 -0.2797  0.0559 -0.1804
32226W        W47843  11.142   9.685   2.666  0.0828 -0.1971  0.1025
32227W        W47844   6.221   6.209   4.507  0.0094 -0.2845  0.0380
32228W        W47845   0.685  11.560  13.543 -0.3281 -0.0070  0.2780
32229W        W47846   8.102   2.170   1.228 -0.0666  0.0049 -0.0116
32230W        W47847   9.136   9.057   3.902 -0.0247 -0.0461 -0.1131
32231W        W47848  11.942  10.045   4.520 -0.0284  0.1928 -0.3414
32232W        W47849  12.932   3.040   5.083 -0.0298  0.3992  0.0314
32233W        W47850   5.320   3.186   1.481  0.0311  0.1066 -0.1610
32234W        W47851   1.984  10.123   0.150 -0.0727 -0.1371  0.0513
32235W        W47852  18.379   1.035  10.734  0.0637  0.0900  0.2070
32236W        W47853   1.110  16.231   5.001 -0.0887 -0.4092 -0.3141
32237W        W47854   2.556   5.164  13.645  0.2169 -0.0585  0.0973
32238W        W47855  14.952   0.258  12.507 -0.0394  0.1764 -0.0628
32239W        W47856  16.057   9.365  10.339 -0.2257 -0.1016  0.0206
32240W        W47857   8.855   4.581   0.355 -0.4828  0.0811 -0.0235
32241W        W47858   4.049   3.100   4.756 -0.1329 -0.0822 -0.2906
32242W        W47859   0.937   4.925  14.656  0.2893  0.4200 -0.1744
32243W        W47860  15.331   2.298  14.571 -0.2118 -0.1068 -0.0358
32244W        W47861   1.617   1.002  15.287 -0.2719  0.0142  0.2777
32245W        W47862   2.247  14.708   4.455  0.1890 -0.2409  0.0291
32246W        W47863  13.946  14.247   3.261 -0.1749 -0.0991  0.2382
32247W        W47864   4.798   5.782  12.611  0.3497 -0.3036 -0.2309
32248W        W47865   3.382   8.124  12.234  0.2182  0.1600  0.0048
32249W        W47866  15.644   9.938   0.138  0.0830 -0.2648  0.0077
32250W        W47867   7.819   0.259   4.027  0.0925  0.0063  0.0528
32251W        W47868  13.263  13.948   0.906 -0.0983  0.2883 -0.1696
32252W        W47869   3.787   2.405   1.327 -0.2531  0.0485  0.2239
32253W        W47870  13.779   1.826   5.234  0.2348 -0.1282  0.2637
32254W        W47871   0.021   5.531   9.987  0.1652 -0.1053 -0.0279
32255W        W47872  10.572   5.681   5.829 -0.2353  0.2323 -0.0590
32256W        W47873  17.530  17.685  14.561 -0.0758  0.1433 -0.1058
32257W        W47874  16.876  12.890  14.778 -0.1223  0.0300 -0.2009
32258W        W47875   2.921  11.421  14.329  0.0909  0.1634 -0.0027
32259W        W47876  16.244  18.761  14.658  0.1435  0.6191  0.0931
32260W        W47877  11.846   9.049  11.572 -0.1160  0.0352 -0.1177
32261W        W47878   0.823   9.609   4.360 -0.3192  0.0428 -0.0463
32262W        W47879   8.970  18.222   4.502  0.0865 -0.0478  0.1905
32263W        W47880   5.770  16.254  14.316  0.0193 -0.0724 -0.0795
32264W        W47881   1.707   6.610   0.275 -0.2056  0.0001  0.0077
32265W        W47882   2.217   9.321  12.748  0.0094 -0.0723 -0.0238
32266W        W47883  11.941   9.692   1.228 -0.2896 -0.1548 -0.0278
32267W        W47884  10.099  13.793   2.809 -0.0528 -0.1766  0.0845
32268W        W47885   0.803   5.553   4.111  0.1582  0.2729 -0.0419
32269W        W47886  14.315   7.846   4.980  0.1907 -0.2198  0.1372
32270W        W47887  18.022   9.159   2.077  0.0590 -0.1282 -0.2229
32271W        W47888   4.141  13.529   5.065  0.1767 -0.1713  0.1668
32272W        W47889  10.959   8.875   3.558 -0.2974 -0.3001 -0.2685
32273W        W47890  17.130   3.658  14.397  0.2031 -0.0287 -0.1535
32274W        W47891   0.234  14.326   4.724  0.0842 -0.4942  0.1847
32275W        W47892  11.625  12.184  13.284 -0.1791  0.2566 -0.2694
32276W        W47893   2.565   7.126   0.143  0.2492 -0.3504  0.4182
32277W        W47894  15.579  13.237   2.057 -0.0458  0.2523 -0.0610
32278W        W47895   1.884   4.979   3.606  0.1287  0.0895 -0.0529
32279W        W47896  13.916   2.428  13.814  0.1117  0.1455 -0.2042
32280W        W47897   6.652   8.833   5.457  0.0151  0.2465  0.0613
32281W        W47898   7.346  15.612   0.394  0.1805  0.1180 -0.1191
32282W        W47899  19.047  16.611   2.413  0.3244 -0.1853  0.0920
32283W        W47900  15.838  14.487  14.685 -0.1350 -0.3879 -0.0181
32284W        W47901   4.287   4.965   0.867 -0.2148 -0.0121  0.0562
32285W        W47902  10.135  12.967   2.157  0.3571  0.1460 -0.3531
32286W        W47903   2.098   9.906   1.942  0.0149 -0.1675 -0.0146
32287W        W47904  13.300   5.998   5.808  0.2007  0.0804 -0.0700
32288W        W47905  18.285  11.381   0.078  0.0162 -0.0336 -0.0146
32289W        W47906  17.923  14.813  10.650  0.2065 -0.0458  0.0887
32290W        W47907  16.285  13.264   4.275 -0.0339  0.0952  0.0282
32291W        W47908   2.463  15.049  14.833 -0.1013 -0.1731  0.0305
32292W        W47909  18.614  18.804   0.350  0.0456  0.2455 -0.1117
32293W        W47910   6.459  15.590   4.852 -0.0286  0.2522  0.1154
32294W        W47911  11.256   7.479   4.815  0.0734 -0.1185  0.0001
32295W        W47912  15.586  17.584   4.159  0.0374  0.2495  0.1712
32296W        W47913   6.223  15.245   2.094 -0.1757 -0.1608 -0.1864
32297W        W47914   9.982  17.324   4.874  0.1397 -0.3916 -0.3774
32298W        W47915  12.801  12.585  13.872  0.1195  0.4435  0.0819
32299W        W47916  16.368  17.047  13.203  0.0141 -0.0209 -0.1796
32300W        W47917  13.260  10.443   4.228  0.0935  0.3796 -0.0084
32301W        W47918   0.731  13.341   2.792 -0.0802  0.0074 -0.1309
32302W        W47919   8.949  17.153   1.623  0.3420  0.1548  0.0628
32303W        W47920  13.883   8.531  13.955 -0.0072 -0.5036  0.4584
32304W        W47921  14.694  14.913  10.688 -0.0419 -0.3640 -0.0596
32305W        W47922  14.328   0.583  12.015  0.1081  0.1917  0.0090
32306W        W47923  16.761  17.428  12.551 -0.1265 -0.0765  0.0355
32307W        W47924  10.995  14.940  13.441  0.3089  0.2923 -0.1402
32308W        W47925   0.931  16.311   4.079  0.5576 -0.3901 -0.1415
32309W        W47926   2.445  15.535  14.522  0.2861  0.1721  0.0433
32310W        W47927  13.251  14.028  11.243  0.1029 -0.0851 -0.4463
32311W        W47928   6.131   0.437   5.580  0.2946 -0.1493  0.0652
32312W        W47929  13.977   8.055  10.611 -0.3982 -0.1174  0.2472
32313W        W47930  18.880  12.485  13.643 -0.1881  0.1242 -0.1171
32314W        W47931  15.940   9.847  10.570  0.1502  0.2045  0.0933
32315W        W47932  12.749  15.940   0.406 -0.1487 -0.3341  0.2330
32316W        W47933   4.740  13.177  13.987  0.3269 -0.1098 -0.1524
32317W        W47934   3.898   4.792   2.526  0.0887 -0.0730  0.3596
32318W        W47935  14.822  17.482   0.312 -0.2345 -0.0412 -0.0161
32319W        W47936   4.760   3.113  11.319  0.1330 -0.0614 -0.3654
32320W        W47937   0.739   2.774  10.827  0.1081  0.0057 -0.0427
32321W        W47938   2.469  17.241  13.676  0.2428 -0.1964 -0.1501
32322W        W47939   6.237  12.412   3.337  0.0287 -0.0035 -0.1635
32323W        W47940  15.005  12.114   1.270 -0.0689 -0.0165  0.2255
32324W        W47941   2.001  11.266  13.533 -0.0310  0.0281  0.0531
32325W        W47942  12.421  13.890  13.513 -0.0037 -0.2993  0.1504
32326W        W47943   8.403   4.205  10.736  0.1511 -0.1300 -0.2489
32327W        W47944   4.161   7.562  13.335 -0.0175  0.1240  0.2276
32328W        W47945  11.947   3.125   5.186  0.1613 -0.0738 -0.1227
32329W        W47946  11.043   0.968   2.409  0.0920 -0.0190  0.1349
32330W        W47947   9.803  13.826   0.151  0.0234  0.1477  0.2092
32331W        W47948  17.078  17.129  11.159 -0.1509  0.0894 -0.3393
32332W        W47949  10.901   8.705   2.545  0.2278  0.1060 -0.0272
32333W        W47950   9.197  13.571   5.020  0.1592  0.3071 -0.1433
32334W        W47951   0.289  16.009  13.712  0.1555 -0.2711 -0.1488
32335W        W47952   8.734  16.621   5.000 -0.0929  0.3357  0.3220
32336W        W47953   7.119   6.281   4.450 -0.1317 -0.1408 -0.0861
32337W        W47954   8.034  17.587  10.480 -0.0866  0.0036  0.2063
32338W        W47955   6.015  18.795   3.298  0.0847  0.0854  0.0565
32339W        W47956   9.017   6.650   4.147  0.2542  0.0669 -0.2463
32340W        W47957  16.937  15.489  10.341 -0.1176 -0.0515  0.1468
32341W        W47958  12.471   5.173   0.935  0.4161 -0.0240 -0.1154
32342W        W47959  17.667   9.352  12.824  0.0109  0.0297  0.1164
32343W        W47960  11.864  10.077   3.590 -0.3870 -0.0575  0.3518
32344W        W47961  14.877  11.875   2.916 -0.1828  0.2614  0.1453
32345W        W47962   4.834  18.503  11.237 -0.2332  0.0115 -0.1321
32346W        W47963  10.745  18.954   3.596  0.1062  0.2806 -0.1885
32347W        W47964   8.812  14.483  12.288  0.0860  0.3886  0.3685
32348W        W47965  11.997  11.454   3.523  0.2306 -0.2854  0.1537
32349W        W47966   2.129  10.371  10.977  0.1150 -0.0764 -0.0394
32350W        W47967  18.960   2.647  15.083  0.0052  0.0630 -0.1196
32351W        W47968  10.954  13.489  10.795  0.1382 -0.1578  0.1862
32352W        W47969   6.903   1.299  13.893  0.1938 -0.2633  0.0824
32353W        W47970  13.250   9.505  13.586 -0.3224  0.1320  0.1404
32354W        W47971  17.378  15.779  10.669 -0.0959  0.3415  0.0385
32355W        W47972  17.127   5.918   0.102  0.0372  0.2405  0.1443
32356W        W47973  17.287   8.438   5.039 -0.2922 -0.3514 -0.1226
32357W        W47974   4.431  14.110   5.694 -0.0428 -0.0482 -0.0919
32358W        W47975  11.408   2.178   1.011  0.1990 -0.1045 -0.1154
32359W        W47976  16.647   6.678   3.742  0.1224 -0.0953 -0.1866
32360W        W47977   2.160   8.090   0.318 -0.0106 -0.0511 -0.0542
32361W        W47978  17.988  17.958   3.783  0.0118 -0.0518  0.0397
32362W        W47979  18.872  14.141   3.272  0.1524 -0.0999  0.3534
32363W        W47980   4.844  10.563  13.191  0.1259 -0.0318  0.1396
32364W        W47981   8.708  12.292   2.088 -0.0075  0.0627 -0.1991
32365W        W47982  15.733  10.939  14.445  0.0504  0.1478  0.3903
32366W        W47983  18.944   7.198   2.419 -0.2738  0.1217 -0.0918
32367W        W47984   6.833   1.365  12.250  0.0294  0.1869  0.2128
32368W        W47985  16.879   0.800  10.640  0.3196  0.1183  0.1014
32369W        W47986   8.867  18.403   5.288  0.0166 -0.0103  0.3182
32370W        W47987  14.813  13.077  12.002 -0.3683  0.1136  0.1738
32371W        W47988  18.179  16.561  10.655 -0.4051 -0.0480  0.0821
32372W        W47989  17.921   7.546  10.649 -0.0875 -0.1264 -0.0679
32373W        W47990  15.423  13.817  14.490  0.1954 -0.4009 -0.3822
32374W        W47991   9.544  10.254   2.175 -0.1595  0.0166  0.0233
32375W        W47992  13.491  12.544   0.742 -0.2426 -0.3865  0.1531
32376W        W47993   4.653  14.105  11.989 -0.1364  0.0869 -0.0802
32377W        W47994   7.055  18.659   0.582  0.3964  0.1696  0.5741
32378W        W47995   4.772   0.481  14.084  0.0260  0.1343  0.4614
32379W        W47996  13.585   6.726   5.165  0.2608 -0.0026  0.1501
32380W        W47997   4.287   3.731  14.592  0.0556 -0.2749 -0.2243
32381W        W47998   4.653  13.030   1.918 -0.2779  0.1407  0.1020
32382W        W47999  18.954  10.306  13.006 -0.1702 -0.2327  0.0900
32383W        W48000  14.474   4.676   1.924 -0.1918 -0.1974 -0.0324
32384W        W48001  12.850  18.484   0.080 -0.1972  0.3104  0.0032
32385W        W48002  13.867  16.894  12.809  0.3008  0.0862  0.2853
32386W        W48003   4.264   4.765  12.117  0.1057 -0.4841 -0.0081
32387W        W48004  16.028   3.631   1.689  0.0528  0.2143  0.1434
32388W        W48005  17.965   7.767  12.205 -0.3424 -0.2384 -0.3443
32389W        W48006  13.619   4.272   1.087 -0.1976  0.0943 -0.2164
32390W        W48007   2.896   3.187  12.046 -0.1421 -0.0560 -0.0952
32391W        W48008  16.795   9.145  11.777  0.2447 -0.4155 -0.1855
32392W        W48009  10.183   6.142   1.778 -0.1870 -0.1092 -0.0165
32393W        W48010  16.304   0.607  12.627  0.3381  0.0154 -0.2776
32394W        W48011  10.311  18.466   0.974 -0.0929  0.2006 -0.1420
32395W        W48012   2.905   0.783  11.140 -0.1141  0.0644 -0.3707
32396W        W48013   7.149   6.581  10.457  0.2297  0.3069 -0.2652
32397W        W48014   4.896  10.825   3.689 -0.0008  0.4070 -0.2923
32398W        W48015   6.559  14.371   4.235 -0.1975  0.0866 -0.0879
32399W        W48016   5.833   9.474   0.299 -0.1046  0.1254  0.1505
32400W        W48017  15.333   3.358   0.637 -0.4451 -0.0108 -0.1065
32401W        W48018  11.972  18.266   1.382 -0.0212 -0.5553 -0.0212
32402W        W48019  16.757  13.553   1.478  0.1844  0.0556 -0.3255
32403W        W48020   3.824   2.546   2.170 -0.4032 -0.0900  0.3548
32404W        W48021  12.132  11.480   1.696 -0.0041  0.2764  0.1537
32405W        W48022   5.170   0.474   3.968 -0.2193  0.1375 -0.0845
32406W        W48023  11.454   5.045  15.182 -0.2412  0.0225 -0.0279
32407W        W48024   2.215  12.911   4.524 -0.1173 -0.2446 -0.0720
32408W        W48025   2.098  13.993  12.562  0.1704  0.1123 -0.1283
32409W        W48026  11.236   3.446   2.700  0.0903  0.0828 -0.2075
32410W        W48027  15.794   7.123  12.272 -0.1372 -0.3271  0.1667
32411W        W48028  18.568   5.012   2.334  0.1031  0.1852 -0.1212
32412W        W48029   5.621   7.976   2.567 -0.0228  0.0178 -0.0810
32413W        W48030  13.043   5.246  11.528  0.1290 -0.0128 -0.0141
32414W        W48031   5.008   3.414   3.757 -0.1023 -0.1216  0.4281
32415W        W48032   9.773   7.708  13.034  0.1261  0.1600  0.1776
32416W        W48033  17.706   2.404   4.047  0.0062  0.1054  0.0424
32417W        W48034   2.841  12.343   2.673 -0.0363 -0.3136  0.0373
32418W        W48035   8.137   1.280   0.511  0.2039  0.1980 -0.2071
32419W        W48036   8.288   8.866   5.535  0.1454  0.1304  0.1741
32420W        W48037  17.469  16.826  10.320 -0.0807  0.0601  0.1398
32421W        W48038   8.437   5.501  12.922 -0.0461  0.1757 -0.2523
32422W        W48039  10.075   6.998  12.007  0.2960 -0.4588  0.3922
32423W        W48040   2.985   9.527  12.079  0.2078 -0.3436 -0.2596
32424W        W48041   3.039  17.856  13.098  0.0585  0.1368 -0.0748
32425W        W48042   5.246  17.205   3.364 -0.0144  0.0336 -0.2770
32426W        W48043  14.216  14.364  13.784 -0.1315  0.1854 -0.3365
32427W        W48044   7.860   9.769  14.166  0.3168  0.1676  0.2013
32428W        W48045   8.766   4.958  13.698 -0.0973 -0.0266  0.0386
32429W        W48046   0.427   9.604  11.455  0.0422 -0.0131 -0.0454
32430W        W48047  12.609   4.299  15.067 -0.1610 -0.1312 -0.2313
32431W        W48048  10.908   8.713   1.090  0.2112 -0.2974 -0.1457
32432W        W48049   7.081  13.008  10.174  0.0146  0.1405  0.0306
32433W        W48050   1.278  17.665  13.461 -0.1529  0.3056 -0.3336
32434W        W48051  10.669   3.817  12.362 -0.0301 -0.0673  0.1852
32435W        W48052   6.066  15.852   1.579  0.0607  0.0163 -0.2034
32436W        W48053   7.025   6.884   2.694 -0.0521 -0.4145  0.0028
32437W        W48054  14.011  16.834   1.077 -0.1168 -0.1067 -0.3126
32438W        W48055  14.455  11.640   1.864  0.0600  0.1316  0.1424
32439W        W48056   3.136  19.027  10.917  0.1555 -0.0036  0.1106
32440W        W48057  12.551   6.165   1.151  0.3259  0.2380  0.0475
32441W        W48058  17.292   4.821   4.703  0.0502 -0.2156 -0.1943
32442W        W48059  12.517  18.162   2.735 -0.1265  0.3166  0.0914
32443W        W48060   4.654  13.372  11.635  0.3500  0.0397  0.3246
32444W        W48061  12.253  14.741   1.765 -0.1653  0.0406  0.0620
32445W        W48062   6.067  10.778   4.250  0.0657  0.0144  0.3590
32446W        W48063  13.705  12.290   1.141 -0.0236  0.1329 -0.1000
32447W        W48064  16.183   8.887  15.211 -0.4296  0.3948  0.0699
32448W        W48065   9.228  11.156   5.105 -0.1195 -0.2258 -0.1528
32449W        W48066   7.409   9.798   3.963 -0.1241  0.0675  0.0888
32450W        W48067  16.837   5.542  11.359  0.1406  0.0448  0.1892
32451W        W48068   6.730   1.553   1.125 -0.0192 -0.2767  0.0494
32452W        W48069  14.039  11.081  14.938  0.1455 -0.1875  0.2067
32453W        W48070  15.133  16.432  11.183 -0.3306  0.1703 -0.0322
32454W        W48071   9.145  13.100  10.660 -0.1556  0.2257  0.0873
32455W        W48072   8.334   7.348  11.313  0.0867  0.0354 -0.0133
32456W        W48073  12.483  18.535   3.934 -0.0995 -0.0727  0.1181
32457W        W48074  16.039   1.066   0.826  0.1017 -0.0501 -0.1162
32458W        W48075   2.739   6.088   2.538 -0.2795  0.1056  0.0112
32459W        W48076  17.393   5.521   4.685 -0.2755  0.2895  0.2573
32460W        W48077  11.435  13.202   4.311 -0.3353  0.1332 -0.1792
32461W        W48078   8.104   0.760  14.128  0.2072 -0.0226 -0.1521
32462W        W48079   3.721  17.093   2.435  0.1512  0.1829 -0.4283
32463W        W48080   1.842   7.140   2.784 -0.0225  0.3183  0.1758
32464W        W48081  11.652  18.686  14.522  0.1737 -0.0447 -0.1065
32465W        W48082  11.320  15.981   3.316  0.1819 -0.1647 -0.0161
32466W        W48083   6.001  16.407  15.040  0.2231  0.1043 -0.0620
32467W        W48084  17.453   2.305   3.093  0.1431 -0.0657 -0.1987
32468W        W48085   9.381  17.077  14.704 -0.1167  0.2111 -0.0518
32469W        W48086   4.307   7.672   4.333  0.0316  0.0506  0.2280
32470W        W48087   1.666  14.326  15.005 -0.0340 -0.2084 -0.1572
32471W        W48088  15.997   8.594  11.100  0.0969 -0.2465 -0.2205
32472W        W48089   6.286   3.284  12.534 -0.0773  0.1618  0.2936
32473W        W48090   9.946  13.313   2.585  0.0770 -0.1544  0.1105
32474ION     NA48091  17.812   0.696   5.569 -0.3144  0.0512  0.1154
32475ION     NA48092  10.288  10.942  14.067 -0.1919 -0.0537 -0.0902
32476ION     NA48093  16.351  10.734   3.010 -0.3871  0.3226 -0.1292
32477ION     NA48094   9.473   9.126   9.622  0.0691  0.0367 -0.1629
32478ION     NA48095  15.978   1.673   9.840  0.1091  0.1598 -0.1736
32479ION     NA48096  18.782  17.955   1.622  0.0146 -0.0344  0.1219
32480ION     NA48097   7.002  10.298  13.523 -0.0632 -0.0053 -0.0896
32481ION     NA48098   1.549  17.322  14.588 -0.0717  0.1135 -0.0113
32482ION     NA48099  10.602   7.760   5.651  0.0852  0.0594  0.1226
32483ION     NA48100   7.861  15.522  11.606 -0.0653 -0.1441 -0.3189
32484ION     NA48101   1.168  12.568   2.937  0.0162  0.2200 -0.1934
32485ION     NA48102   6.339   0.627   5.136  0.2220 -0.2371 -0.0279
32486ION     NA48103   9.542   8.009   3.235 -0.0448 -0.1195  0.0107
32487ION     NA48104  18.115  11.826   3.224  0.1935  0.0904  0.1842
32488ION     NA48105  15.323   1.411  12.120 -0.0415  0.1155 -0.0590
32489ION     NA48106   9.795   6.429   0.843  0.0189 -0.0387 -0.0276
32490ION     NA48107   1.156   1.879  10.217 -0.2918 -0.1804 -0.0169
32491ION     NA48108   5.531  16.139   9.701  0.1324  0.2830 -0.2453
32492ION     NA48109   2.374   4.454  10.953  0.0393  0.1461 -0.1798
32493ION     NA48110   7.479  14.509  10.161  0.1131 -0.2008  0.1387
32494ION     NA48111   7.196   3.054   4.291 -0.3232  0.1316  0.2369
32495ION     NA48112  13.858   1.359   5.133  0.1213  0.1672  0.2359
32496ION     NA48113  15.556  17.996   9.821  0.1262  0.1726 -0.1349
32497ION     NA48114  14.029   1.828   9.721  0.3711  0.0635 -0.4183
32498ION     NA48115   7.820  18.801   9.377 -0.1805 -0.0345 -0.0450
32499ION     NA48116   3.730   5.560   1.710 -0.0193 -0.1817  0.0018
32500ION     NA48117  18.935  17.772   5.194  0.0842 -0.1385  0.3307
32501ION     NA48118  13.837   4.029   2.478  0.1266 -0.1423  0.5051
32502ION     NA48119  13.731   6.032  13.659 -0.1270 -0.3347  0.0781
32503ION     NA48120  12.881  11.649   3.476 -0.1871  0.3185 -0.0384
32504ION     NA48121  16.119   2.511   9.681 -0.2622  0.3653  0.0178
32505ION     NA48122  15.795  15.091   9.559  0.1886  0.1401 -0.2585
32506ION     NA48123   9.388   4.963  11.714 -0.2217  0.2421  0.1971
32507ION     NA48124   5.606  17.818   9.529  0.2159 -0.0282 -0.2836
32508ION     NA48125   5.263  11.548   9.814  0.0564 -0.2604  0.0330
32509ION     NA48126  14.311  12.518   9.838 -0.5394  0.4469 -0.2413
32510ION     NA48127  15.179  15.714   9.804  0.3239 -0.0685  0.0107
32511ION     NA48128  16.857  12.007   0.975 -0.2612  0.3013  0.0939
32512ION     NA48129  11.847   8.318  12.971 -0.2077 -0.1695 -0.0962
32513ION     NA48130  18.673  16.985  12.653  0.1073 -0.0286  0.2191
32514ION     NA48131  10.070   4.584   9.543 -0.2616 -0.2763 -0.0594
32515ION     NA48132  13.472   0.841   9.593 -0.1523 -0.1098  0.1184
32516ION     NA48133   3.020  15.805  15.192 -0.0388  0.3837  0.1196
32517ION     NA48134   6.138  15.754   2.089  0.1170  0.2092 -0.0120
32518ION     NA48135   7.015   9.126  13.965  0.2972  0.0286 -0.2004
32519ION     NA48136   4.165  16.643   5.084 -0.2391 -0.0819 -0.0920
32520ION     NA48137   4.841   2.126  10.257  0.1456  0.1632 -0.0681
32521ION     NA48138  12.916  14.495  12.935  0.0294 -0.1443  0.0300
32522ION     NA48139   2.816  10.658   9.936 -0.1900 -0.1932  0.0270
32523ION     NA48140   4.356   0.475   9.970 -0.0707 -0.0139 -0.0197
32524ION     NA48141   6.740   6.284   9.791  0.1382 -0.2498 -0.1139
32525ION     NA48142  18.848   1.124   3.327 -0.5211  0.0622  0.3541
32526ION     NA48143   4.495  11.178   9.717  0.0716  0.2081 -0.1339
32527ION     NA48144   8.136  18.273   9.680 -0.1279  0.0275 -0.0391
32528ION     NA48145  14.594   1.682  12.879  0.3854  0.2698  0.0033
32529ION     NA48146   7.094  12.361  14.849  0.1461 -0.3651  0.1190
32530ION     NA48147   1.001   9.157  12.470  0.3314  0.1185 -0.0454
32531ION     NA48148  18.351   7.327   9.774 -0.2204  0.4333 -0.0724
32532ION     NA48149   8.910   1.184   0.314 -0.2162 -0.2086  0.0209
32533ION     NA48150   8.221  16.080   9.966  0.0407  0.0859 -0.0531
32534ION     NA48151   8.859  10.256   5.455 -0.1365  0.0820 -0.0578
32535ION     NA48152   4.885   7.880  10.066  0.1568 -0.4184  0.0441
32536ION     NA48153  10.933  15.619   9.855  0.0250  0.0210 -0.0093
32537ION     NA48154   0.223  18.227   3.401 -0.0565 -0.1322 -0.0341
32538ION     NA48155   6.333  13.671   0.199 -0.1539  0.0452 -0.0042
32539ION     NA48156   4.623  12.705  10.039 -0.3009  0.2575  0.0690
32540ION     NA48157  16.045  15.223   1.996 -0.2832  0.1908 -0.0481
32541ION     NA48158  10.923  14.626   9.895 -0.1366 -0.0494  0.1097
32542ION     NA48159  13.636   6.000   5.372 -0.2228  0.1472  0.0319
32543ION     NA48160  17.570  10.675   9.885  0.0853 -0.0920  0.0862
32544ION     NA48161   0.907   1.417   5.784 -0.4158 -0.3318 -0.0108
32545ION     NA48162   2.897   9.648   9.817 -0.3624  0.2843 -0.1148
32546ION     NA48163  12.262   7.133   9.642  0.3027  0.1445 -0.1160
32547ION     NA48164  17.225   7.016   9.847  0.0012 -0.0327  0.0061
32548ION     NA48165  13.116   8.357   9.490 -0.0344  0.0168 -0.4200
32549ION     NA48166  10.891   5.358   4.610 -0.0715  0.1375 -0.1233
32550ION     NA48167  16.203  12.087   9.444 -0.3226 -0.0644 -0.0800
32551ION     NA48168   9.471  18.083   5.495  0.3066  0.0001 -0.1893
32552ION     NA48169  18.584   3.264   9.609 -0.4401  0.0388  0.2806
32553ION     NA48170  12.152   0.941  13.126 -0.4754 -0.2958 -0.0281
32554ION     NA48171  17.735   1.204   9.637  0.0492  0.1057  0.2722
32555ION     NA48172   8.431   8.834  15.068 -0.0535 -0.0205 -0.0572
32556ION     NA48173   8.418   1.057   9.537 -0.3633  0.0623  0.1953
32557ION     NA48174  11.086  16.655   9.997 -0.2540 -0.2812  0.1940
32558ION     NA48175  12.767  13.587  12.592  0.0478 -0.2752 -0.0326
32559ION     NA48176  15.779   8.363   3.993 -0.0006 -0.0397  0.0325
32560ION     NA48177   3.406   2.989  13.114  0.0225 -0.3327 -0.1279
32561ION     NA48178   6.488  13.403   5.633 -0.1143 -0.0701 -0.3657
32562ION     NA48179   0.064  13.471   9.920 -0.2503  0.0313  0.0041
32563ION     NA48180  17.494   6.816   5.710  0.2080  0.1264  0.1734
32564ION     NA48181   2.101  11.235   9.691 -0.1762 -0.0524 -0.4231
32565ION     NA48182   8.982  18.948   5.492 -0.1624  0.2749 -0.0036
32566ION     NA48183  12.403   9.566   0.342 -0.1140  0.1409  0.0254
32567ION     NA48184   8.774  14.736   3.413  0.0783  0.3434 -0.1416
32568ION     NA48185   0.381  18.203  10.187  0.1587 -0.0927 -0.1151
32569ION     NA48186   2.570   8.934   0.099  0.1273 -0.1165  0.0464
32570ION     NA48187   3.780  12.917   9.712 -0.1033 -0.0324  0.1225
32571ION     NA48188   8.233   9.421   9.562  0.1094 -0.0637 -0.1050
32572ION     NA48189  11.538  10.940  12.212 -0.0636  0.1696  0.2840
32573ION     NA48190  15.495   4.243   9.937  0.0964 -0.2242  0.3625
32574ION     NA48191   9.592   2.455   9.747  0.2748  0.1062 -0.4072
32575ION     NA48192   7.156   3.646  12.027 -0.0816  0.0205  0.0736
32576ION     NA48193   5.536  10.598   9.662  0.1499  0.1701  0.1450
32577ION     NA48194   7.044   4.026   3.270  0.1161 -0.1154 -0.0087
32578ION     NA48195   4.964   4.487  13.677  0.0178 -0.6209 -0.0757
32579ION     NA48196   2.164  13.730   5.315 -0.3896  0.2648  0.1594
32580ION     NA48197  13.232  18.041  10.438 -0.2166 -0.1172 -0.1834
32581ION     NA48198   2.666   2.578   5.877 -0.0169  0.2763  0.2764
32582ION     NA48199   4.895  18.310  13.882  0.0173 -0.2793  0.0188
32583ION     NA48200   6.306  14.402   5.728  0.0753  0.1965 -0.2714
32584ION     NA48201  12.823   9.624   9.936 -0.0464  0.0125 -0.0105
32585ION     NA48202   0.041   4.912  14.113  0.0477  0.2202 -0.3433
32586ION     NA48203  11.761   9.290   9.606 -0.2079  0.4013  0.2376
32587ION     NA48204  10.053  11.528  15.061 -0.3197  0.1879 -0.0665
32588ION     NA48205   3.519   3.299  10.047  0.1686  0.3122  0.1201
32589ION     NA48206  12.069  16.328   9.979  0.0191 -0.0007 -0.3067
32590ION     NA48207  13.876   6.930   9.360 -0.2129 -0.1956 -0.1219
32591ION     NA48208   2.513   6.999   9.800 -0.0297  0.1003  0.1209
32592ION     NA48209  16.425  17.212   9.998 -0.0702 -0.3716 -0.2024
32593ION     NA48210  17.493   0.129  10.438 -0.1062  0.2957 -0.0324
32594ION     NA48211  12.816  17.004   5.438  0.0885 -0.0063  0.0408
32595ION     NA48212   3.699  18.289   9.791  0.2199 -0.0693 -0.0291
32596ION     NA48213   8.117  10.444   3.751  0.2579 -0.2778 -0.1615
32597ION     NA48214  18.372  10.179   9.611 -0.1435  0.1759 -0.0024
32598ION     NA48215   9.436  16.223   9.721 -0.0241  0.1056 -0.0695
32599ION     NA48216  14.702   4.017   4.392 -0.0883  0.2867  0.0312
32600ION     NA48217   7.862  17.045   3.252 -0.0595  0.2880 -0.0836
32601ION     NA48218  14.164   5.116   9.694  0.2659  0.0167 -0.2901
32602ION     NA48219   0.889   6.070   3.986  0.0799  0.4742 -0.0289
32603ION     NA48220  17.730   8.777   9.560  0.0862 -0.1974 -0.0943
32604ION     NA48221   5.795   0.233  10.026  0.1654 -0.0049 -0.2177
32605ION     NA48222  15.084   3.955   5.507 -0.2446 -0.2549 -0.1140
32606ION     NA48223  17.003  12.355   9.589  0.0102 -0.0731  0.1135
32607ION     NA48224   9.001  17.144  10.002 -0.0610  0.1512  0.2323
32608ION     NA48225   9.509   5.499   9.448  0.1123  0.2557  0.0027
32609ION     NA48226  18.227   7.920   9.575  0.1850  0.0315  0.1046
32610ION     NA48227   6.988  12.701   3.552 -0.1459  0.1504  0.1373
32611ION     NA48228   2.162   5.374   5.879 -0.1440  0.0176 -0.0265
32612ION     NA48229   7.580  11.286  10.780 -0.3577 -0.1099  0.0747
32613ION     NA48230  18.022  18.782   9.544 -0.4179  0.1709  0.1609
32614ION     NA48231  17.275  18.292   9.626 -0.0988  0.2074 -0.0901
32615ION     NA48232   0.122  14.467   9.488 -0.0326  0.0254 -0.2203
32616ION     NA48233  17.656   7.539   5.097  0.3920  0.1324  0.1002
32617ION     NA48234  11.044  12.849  13.896 -0.3230 -0.2304 -0.1984
32618ION     NA48235   5.668   2.363  10.341  0.1405 -0.3187 -0.1206
32619ION     NA48236   3.275   1.704  11.928  0.1068 -0.2381 -0.1892
32620ION     NA48237  14.812   6.552   9.570 -0.2195 -0.3481  0.0734
32621ION     NA48238   3.307   7.994  13.470  0.1207  0.1573  0.0040
32622ION     NA48239  14.429  15.777  11.840 -0.2444 -0.2461  0.0293
32623ION     NA48240   9.244   5.180   5.516  0.3460 -0.0040  0.0433
32624ION     NA48241   5.256   9.139   9.955 -0.0894  0.0956  0.5515
32625ION     NA48242   3.539   7.861   9.837  0.1605 -0.1198 -0.2976
32626ION     NA48243   2.367   6.936  12.518 -0.0284 -0.0797 -0.2896
32627ION     NA48244   4.246   2.906  10.084  0.1489  0.3826  0.1787
32628ION     NA48245   1.357  11.579  10.517 -0.1933  0.3274 -0.1471
32629ION     NA48246  11.137  13.724   9.692 -0.5821 -0.2882  0.1951
32630ION     NA48247   7.590   6.592  10.694  0.0273 -0.1355  0.1193
32631ION     NA48248   9.715  11.447   9.949  0.1931  0.1481 -0.1204
32632ION     NA48249  12.297   5.626   9.831  0.1382 -0.1961  0.0840
32633ION     NA48250  13.192   3.100   9.977 -0.0279 -0.2287  0.0293
32634ION     NA48251  16.019   6.335   3.115  0.1077 -0.0331 -0.0559
32635ION     NA48252  15.487  14.884   5.382 -0.4489 -0.0441  0.0279
32636ION     NA48253  11.047   0.663  10.340 -0.0661  0.0884  0.1886
32637ION     NA48254   2.139  18.690   9.967 -0.1219  0.0445 -0.1428
32638ION     NA48255   9.250   6.148   9.399 -0.0517  0.3143 -0.0671
32639ION     NA48256  10.213  16.755   4.923 -0.4823 -0.1763 -0.5035
32640ION     NA48257   1.475   1.580  11.190 -0.2106 -0.3067  0.2484
32641ION     NA48258  11.673   2.131   9.824  0.0753 -0.1836  0.4316
32642ION     NA48259   1.509   7.706  10.040  0.1608  0.0247 -0.1383
32643ION     NA48260   7.733   2.217  14.974  0.1485 -0.1820  0.1975
32644ION     NA48261  17.316   2.032   1.342  0.2935  0.2287  0.1134
32645ION     NA48262  13.168   5.367   9.603  0.2785  0.0478 -0.1676
32646ION     NA48263   3.301   4.736   6.121 -0.0471  0.2263 -0.2941
32647ION     NA48264  17.982  12.349  11.432 -0.2228  0.1281  0.0666
32648ION     NA48265   6.809  17.789   5.479 -0.1705  0.0992 -0.2555
32649ION     NA48266  18.558  12.772   9.595  0.2810 -0.1903 -0.4984
32650ION     NA48267  13.284   6.363   9.611 -0.1898  0.0236 -0.3915
32651ION     NA48268  13.098   0.652   3.987  0.0165 -0.1584  0.1841
32652ION     NA48269   0.684   2.113  10.113  0.0930  0.0816  0.0511
32653ION     NA48270  15.532   0.396   9.520 -0.0931 -0.1054  0.1837
32654ION     NA48271  17.807   5.154   5.497  0.2561 -0.0026 -0.0532
32655ION     NA48272  15.651  15.751   4.382 -0.5124 -0.0303 -0.1376
32656ION     NA48273   6.819  11.939   5.448  0.3752 -0.1228  0.2128
32657ION     NA48274  11.910   0.969   5.747  0.1244 -0.0430 -0.0427
32658ION     NA48275  10.142   9.842   5.125  0.0637 -0.2059  0.1370
32659ION     NA48276  12.613   4.662   9.778 -0.1751  0.0664  0.3215
32660ION     NA48277  11.530  13.123   3.388 -0.0446 -0.0070 -0.1243
32661ION     NA48278  14.943  13.316  10.162  0.0156  0.0662  0.0071
32662ION     NA48279   5.039  15.605   0.312  0.2914  0.0281 -0.0729
32663ION     NA48280   0.143   7.798   9.519 -0.0008  0.0140  0.1390
32664ION     NA48281  15.138  18.952   9.839  0.0862  0.2553  0.0366
32665ION     NA48282   4.490   5.871  10.465  0.1730 -0.0407  0.3780
32666ION     NA48283   3.330  12.789  11.654 -0.1298  0.3776  0.2041
32667ION     NA48284  18.765   3.768   4.601 -0.3146  0.0545  0.1533
32668ION     NA48285  14.425   7.878   1.484 -0.0497  0.4064 -0.1213
32669ION     NA48286  16.445   3.406   9.805  0.2542 -0.0324 -0.1795
32670ION     NA48287   1.160  15.378  11.057  0.0808  0.2280 -0.0066
32671ION     NA48288  13.057   1.696   9.628 -0.4470 -0.5939 -0.2856
32672ION     NA48289  17.048   7.203  12.061 -0.1599  0.0033  0.3623
32673ION     NA48290   4.083   4.761  10.175 -0.1863  0.3261  0.2779
32674ION     NA48291   7.516   2.388  13.639 -0.2438  0.2035  0.2367
32675ION     NA48292  10.910  16.274   2.454  0.2028  0.0879  0.0253
32676ION     NA48293  16.063   4.903   9.646  0.3429 -0.3649  0.0391
32677ION     NA48294   1.927   8.612  10.033 -0.1532 -0.2030  0.4233
32678ION     NA48295  12.162   1.274   9.474 -0.2462  0.0304  0.2897
32679ION     NA48296  17.596  10.616   5.635  0.4049  0.3130 -0.4427
32680ION     NA48297  17.187   7.927   9.493 -0.0398 -0.0103 -0.1380
32681ION     NA48298  16.943  18.618   0.055  0.4238  0.0029 -0.0061
32682ION     NA48299  11.634   7.800   9.725  0.2190 -0.0377  0.0009
32683ION     NA48300  14.279  16.622   9.767 -0.2094 -0.2221  0.0066
32684ION     NA48301  15.377   7.630  13.509 -0.2035  0.0992  0.2331
32685ION     NA48302   4.387   4.981   2.930 -0.0040  0.1111  0.1024
32686ION     NA48303   7.066  12.105   9.967  0.0165 -0.0508 -0.1038
32687ION     NA48304  16.407  17.024  13.741 -0.1509  0.5623  0.1917
32688ION     NA48305  18.576  10.726   3.392 -0.1128  0.1151  0.3058
32689ION     NA48306   9.829   0.015   9.973  0.1856 -0.0500  0.1367
32690ION     NA48307   4.554  17.049   9.642 -0.2353 -0.1189  0.1124
32691ION     NA48308  17.128  15.409  15.039  0.2254 -0.1304 -0.0819
32692ION     NA48309   2.586  15.105   9.538 -0.1627 -0.0668  0.0683
32693ION     NA48310   6.931  18.035   9.746  0.0394 -0.0710 -0.1921
32694ION     NA48311   6.516  12.980  10.873  0.0660 -0.4418  0.1550
32695ION     NA48312   8.973  13.726  10.065  0.0774 -0.1635 -0.2727
32696ION     NA48313   3.078  13.614   9.488  0.0580 -0.0331  0.1045
32697ION     NA48314  14.849  17.472   9.826 -0.5108 -0.3886 -0.1114
32698ION     NA48315  12.513   7.746   9.570  0.1568 -0.1264  0.3671
32699ION     NA48316   5.393   4.160   5.411  0.0049 -0.2880  0.1765
32700ION     NA48317   2.840  11.186   5.334 -0.1243  0.1462 -0.3029
32701ION     NA48318  12.895  15.994   9.965  0.3643 -0.1535 -0.3427
32702ION     NA48319   1.738  10.438  14.080 -0.0766  0.0834  0.1747
32703ION     NA48320   4.815  17.130  13.221  0.1490 -0.1437 -0.4720
32704ION     NA48321  14.443  17.500  10.197  0.3497  0.4870 -0.0294
32705ION     NA48322  10.258  16.379  10.032  0.1890  0.0029 -0.2008
32706ION     NA48323   5.951  12.057  10.132  0.1323 -0.2664 -0.0831
32707ION     NA48324   2.150   1.871  10.259  0.0105  0.1989 -0.0773
32708ION     NA48325  13.469  15.922  10.134  0.1261 -0.1875  0.0964
32709ION     NA48326   0.765  10.705  14.104 -0.4053 -0.3306  0.4726
32710ION     NA48327  16.250   1.309  13.913 -0.1603 -0.2617  0.2684
32711ION     NA48328   7.818  10.255  13.837 -0.1189  0.0506 -0.0436
32712ION     NA48329  14.206  15.314   2.850  0.1853 -0.0893  0.1414
32713ION     NA48330  11.549   9.961   9.378  0.0721  0.1996  0.0041
32714ION     NA48331   3.159   8.695   9.875  0.1470  0.0797  0.0939
32715ION     NA48332   5.054  15.478   9.995 -0.1291  0.3071  0.0723
32716ION     NA48333   8.233   0.238   5.409  0.1256  0.1595  0.0316
32717ION     NA48334  11.404   1.802   5.469 -0.2009 -0.1353 -0.1521
32718ION     NA48335  13.007  12.196  14.781  0.2088 -0.1933  0.0862
32719ION     NA48336  12.341  10.505   9.725 -0.1581 -0.1596 -0.0199
32720ION     NA48337  15.149  10.989   9.536  0.1231 -0.2116 -0.0274
32721ION     NA48338  17.553  14.988   9.879 -0.0851  0.1215  0.1726
32722ION     NA48339  10.351   8.096   3.209  0.1785 -0.2939  0.1926
32723ION     NA48340  18.249   1.991  14.412 -0.1209  0.2466 -0.0791
32724ION     NA48341  17.405   9.956   0.905  0.1264  0.1739 -0.0025
32725ION     NA48342   0.161   8.630   9.642 -0.2757 -0.1773 -0.1063
32726ION     NA48343  10.580   2.939   4.041  0.0680 -0.1062  0.0740
32727ION     NA48344   8.475  12.304   5.261  0.0469  0.1404  0.2527
32728ION     NA48345  18.847  13.869   9.641 -0.1773  0.3967 -0.0762
32729ION     NA48346   8.410  13.263  14.129 -0.1450 -0.1105  0.0328
32730ION     NA48347   3.367  10.646  10.019 -0.0905  0.0042  0.2528
32731ION     NA48348   1.406   0.718  10.027  0.2050  0.5425  0.2912
32732ION     NA48349   2.878  17.107   1.040 -0.3156 -0.1023 -0.0889
32733ION     NA48350  14.222   8.795   5.013  0.0506 -0.0724  0.1662
32734ION     NA48351   3.432   0.529  10.252  0.0547  0.1577 -0.0145
32735ION     NA48352  14.587  12.112  11.472 -0.0083  0.0525 -0.0687
32736ION     NA48353   3.359   4.165  10.079  0.1291 -0.1374 -0.0098
32737ION     NA48354  16.117   9.507   9.525  0.0739 -0.2818 -0.3122
32738ION     NA48355  18.068   5.915  10.140 -0.0224 -0.0358  0.1557
32739ION     NA48356  15.414   9.288   2.849  0.2811  0.0195  0.5208
32740ION     NA48357   4.245  14.395   1.027 -0.1942 -0.1169  0.4673
32741ION     NA48358   3.036  18.168   5.416 -0.0180  0.0664 -0.2410
32742ION     NA48359   9.104  15.462  12.573  0.1349 -0.0453 -0.3058
32743ION     NA48360  12.336  14.828  10.183  0.2916 -0.4072 -0.0149
32744ION     NA48361  12.504  13.016   9.829 -0.1349  0.1360 -0.4564
32745ION     NA48362   2.840  14.346   9.884 -0.0890 -0.2547 -0.0117
32746ION     NA48363   6.814  10.401   9.799 -0.1058 -0.0819  0.1402
32747ION     NA48364  16.521  10.804   9.499  0.1297  0.1317 -0.2394
32748ION     NA48365   8.704  16.165   0.430  0.2159  0.2381  0.0064
32749ION     NA48366  10.315  16.022   5.283 -0.1718  0.2186  0.3039
32750ION     NA48367  18.738  11.941   3.921  0.0827 -0.0183  0.3344
32751ION     NA48368   7.334   6.325  12.992 -0.1985  0.0276 -0.1788
32752ION     NA48369   1.260  11.905   9.336 -0.0343  0.0445 -0.1634
32753ION     NA48370   9.737   7.769   9.578 -0.1479  0.0427  0.1098
32754ION     NA48371   8.916  11.935  10.197  0.0113 -0.3273  0.1349
32755ION     NA48372  14.678  17.116   1.469  0.1583  0.1351  0.0017
32756ION     NA48373   1.676  15.083   3.823  0.0433 -0.2213  0.0781
32757ION     NA48374   3.329  11.557   5.375  0.0131  0.4320 -0.0797
32758ION     NA48375   6.827   3.278   9.971 -0.3421 -0.0654  0.1315
32759ION     NA48376   1.416  17.653   1.560 -0.0920  0.2000 -0.1954
32760ION     NA48377   2.436   0.554  11.127  0.0175 -0.2039 -0.1336
32761ION     NA48378   2.989   4.326   2.106  0.0214  0.0738  0.3225
32762ION     NA48379   0.358   7.389   9.870 -0.0738  0.0099  0.2724
32763ION     NA48380  12.320   1.729   4.071  0.0525 -0.0149 -0.1078
32764ION     NA48381  13.482   7.370   9.428 -0.0881 -0.0366 -0.1037
32765ION     NA48382   8.838  11.858  14.008  0.2476 -0.0166  0.0632
32766ION     NA48383  15.628  13.390  11.589 -0.0498 -0.1876  0.1221
32767ION     NA48384  17.778   0.494  10.141 -0.0849 -0.2303  0.0688
32768ION     NA48385   1.874   2.789  10.161  0.3798  0.1049 -0.0741
32769ION     NA48386  18.377  15.949   9.334  0.2277 -0.3873 -0.2785
32770ION     NA48387  10.164   8.653  12.195 -0.0704 -0.4055 -0.0619
32771ION     NA48388  14.025   4.017   9.762  0.0888 -0.2088  0.1169
32772ION     NA48389   7.539  11.167   9.943 -0.1159 -0.1931 -0.2575
32773ION     NA48390   9.294  12.493  15.144  0.0022 -0.2430  0.0832
32774ION     NA48391  14.989   6.389  12.051  0.2248  0.4670 -0.3825
32775ION     NA48392  13.951   2.137   5.599  0.0794  0.2362  0.3316
32776ION     NA48393   1.532  13.954   9.435  0.1336  0.1198  0.2955
32777ION     NA48394  16.506   4.316   9.664  0.3228 -0.0967 -0.0565
32778ION     NA48395   0.284   9.464  13.427 -0.1761  0.1583  0.3025
32779ION     NA48396  14.869   2.451  11.444  0.1419  0.1100  0.0792
32780ION     NA48397   0.750   1.324   4.780  0.1667 -0.1615 -0.0873
32781ION     NA48398   4.129   8.392  10.039  0.2173  0.0692 -0.1059
32782ION     NA48399   4.709   1.379  11.415  0.0689  0.0845 -0.1414
32783ION     NA48400   3.477   1.585  14.545 -0.0361 -0.0151 -0.0179
32784ION     NA48401  16.782   1.449   4.061 -0.2291 -0.2172  0.3265
32785ION     NA48402   4.489  14.179  10.171  0.0424  0.1877  0.2813
32786ION     NA48403   4.320   7.405   9.864  0.0009  0.0765  0.0835
32787ION     NA48404  10.538   3.178   0.180 -0.1747 -0.2171 -0.3133
32788ION     NA48405   2.061  14.422   9.475  0.1718  0.0031  0.4608
32789ION     NA48406   2.465   7.646   4.126 -0.1407 -0.0579 -0.2630
32790ION     NA48407  17.055   9.475   9.602 -0.2301  0.0451  0.1641
32791ION     NA48408  15.699  11.783   9.363 -0.0789  0.0796  0.1101
32792ION     NA48409  17.749   7.973  10.279  0.1550  0.3752 -0.1900
32793ION     NA48410  10.166   9.200   5.604  0.1611 -0.2031  0.0217
32794ION     NA48411   3.422  14.956   5.466  0.1945  0.0589  0.0449
32795ION     NA48412  16.899  12.840   9.508  0.1109 -0.1105  0.1270
32796ION     NA48413   2.854   2.527   0.756 -0.2297 -0.1522 -0.0586
32797ION     NA48414   4.349  15.001   9.754  0.1666  0.1665 -0.2026
32798ION     NA48415  16.619  16.885  12.718 -0.1794  0.2549 -0.0309
32799ION     NA48416   7.335  15.648  10.334  0.2418 -0.1552  0.2274
32800ION     NA48417  14.334  11.516   9.628  0.2111 -0.2049 -0.0906
32801ION     NA48418  12.759   0.154   9.692  0.3522 -0.0850  0.1691
32802ION     NA48419   2.178  15.100  14.370  0.1559 -0.1662 -0.1592
32803ION     NA48420  14.199  10.698   9.599 -0.0994  0.0118 -0.0043
32804ION     NA48421   8.635   7.911   9.518  0.1551  0.0754  0.0923
32805ION     NA48422   5.909   8.177  14.983 -0.1116 -0.0829 -0.1568
32806ION     NA48423   4.604  13.733   5.456 -0.4517  0.0645 -0.0774
32807ION     NA48424  14.548   1.742   4.612 -0.0778 -0.0823 -0.2365
32808ION     NA48425  16.811   1.699   9.730 -0.1928  0.2110 -0.4039
32809ION     NA48426   3.162   5.587   3.243 -0.0329 -0.2414 -0.1407
32810ION     NA48427   3.877  11.540  11.280  0.1496 -0.1568 -0.0662
32811ION     NA48428   9.796  10.137   9.716 -0.2647  0.0227  0.1617
32812ION     NA48429   0.892   0.007   5.383 -0.2072  0.3151 -0.0879
32813ION     NA48430   9.237   0.391  11.047 -0.1243  0.0496  0.0886
32814ION     NA48431   3.189   2.321  15.139 -0.1113 -0.1004  0.1029
32815ION     NA48432   3.563  11.482   9.779  0.0030  0.4472 -0.3463
32816ION     NA48433   8.284   7.136   5.332 -0.0005  0.2271 -0.0485
32817ION     NA48434  15.157   9.528   9.485  0.0527 -0.1041 -0.2419
32818ION     NA48435  12.415   3.578   9.399  0.0393  0.1160  0.0498
32819ION     NA48436   3.780  18.357   3.620 -0.0822  0.1555  0.1826
32820ION     NA48437  10.013   3.216   9.823  0.1080  0.2398 -0.3166
32821ION     NA48438   6.119  11.197   5.277 -0.0818  0.0915  0.1523
32822ION     NA48439   1.911   4.185   5.220  0.1367 -0.2359 -0.3376
32823ION     NA48440   9.957  14.482   5.336 -0.1937  0.0971 -0.4048
32824ION     NA48441   8.968   8.691  15.114  0.3212 -0.2096 -0.2492
32825ION     NA48442   6.204   5.648  10.868 -0.0168  0.0649  0.1074
32826ION     NA48443   4.227  19.064   1.035 -0.0392  0.2710 -0.2060
32827ION     NA48444   0.106   0.399   9.778 -0.4011  0.2431 -0.0333
32828ION     NA48445   1.839  16.313  10.167 -0.2119  0.0535  0.1806
32829ION     NA48446  15.178  19.019   3.352  0.2939 -0.1067  0.1667
32830ION     NA48447  18.236   2.408   9.543  0.2553  0.1445 -0.0211
32831ION     NA48448  14.290   1.206   9.684  0.0227 -0.1838 -0.1030
32832ION     NA48449  11.070   8.594   3.948 -0.0487 -0.2790 -0.1026
32833ION     NA48450  17.824  18.943   5.634  0.0978 -0.0251 -0.1528
32834ION     NA48451  13.762  13.789   9.837 -0.0524 -0.0815 -0.0575
32835ION     NA48452   7.561   7.240   1.193  0.2710  0.2561 -0.1730
32836ION     NA48453  12.541   2.842  11.735  0.2310  0.0694  0.0403
32837ION     NA48454   8.515   3.675  12.334 -0.1856  0.0012  0.3923
32838ION     NA48455  11.297   8.624   9.893 -0.0470  0.1098 -0.2849
32839ION     NA48456  14.799   0.862   4.848 -0.1663 -0.0220 -0.0489
32840ION     NA48457   4.727   3.608  11.842  0.2374  0.3491  0.2302
32841ION     NA48458   4.972  10.901   5.300  0.1554 -0.3351 -0.4391
32842ION     NA48459  19.071  11.214   9.433  0.1890  0.1013  0.1190
32843ION     NA48460   6.499  17.156  11.912 -0.0194  0.0755  0.1005
32844ION     NA48461   8.138  13.342   3.388  0.0689 -0.2765 -0.0276
32845ION     NA48462  13.408  16.761  10.002  0.3553 -0.1167 -0.0607
32846ION     NA48463  15.091   9.069   5.199 -0.1201 -0.3033 -0.2278
32847ION     NA48464   2.234  18.200   5.176  0.0981  0.4254 -0.2003
32848ION     NA48465   8.399  13.834   9.963 -0.0874  0.2315 -0.1427
32849ION     NA48466  12.640  17.875   9.627  0.4303 -0.1125 -0.0719
32850ION     NA48467  14.679  17.726   5.654 -0.2005 -0.0277 -0.3014
32851ION     NA48468   4.484  12.122   9.904 -0.1171  0.0236 -0.0278
32852ION     NA48469   0.276   1.585  10.973 -0.0855 -0.0639 -0.1702
32853ION     NA48470  11.001   9.740  11.679 -0.2232 -0.0149  0.1287
32854ION     NA48471   7.748   5.159   9.689  0.0753  0.3138  0.2550
32855ION     NA48472  12.549   8.381  12.372 -0.1271  0.2899  0.0763
32856ION     NA48473  16.085  12.761   9.451  0.2030  0.1598 -0.1867
32857ION     NA48474  18.148  13.018   4.685 -0.0169 -0.0764 -0.1227
32858ION     NA48475   1.238   5.322   4.352 -0.1659  0.2542 -0.1473
32859ION     NA48476  16.827   9.086  11.287 -0.1287  0.2776 -0.2422
32860ION     NA48477   5.661  13.391   5.668 -0.0978 -0.3129 -0.1094
32861ION     NA48478  15.644   4.775   3.827  0.0328 -0.1598 -0.3600
32862ION     NA48479  16.624   5.297   9.712  0.2009 -0.0198  0.0209
32863ION     NA48480   1.188   9.821   9.563 -0.1191  0.2629  0.2655
32864ION     NA48481  13.244   7.678   5.284  0.0565  0.0813 -0.0126
32865ION     NA48482   6.206   9.534   9.674 -0.3013 -0.0156 -0.0444
32866ION     NA48483  10.345  13.946   9.881 -0.0076  0.0267 -0.1486
32867ION     NA48484  13.034   5.153  10.273  0.1899 -0.2662  0.0851
32868ION     NA48485   4.712   3.007   5.225  0.0327  0.1344  0.0873
32869ION     NA48486   8.419   5.740   9.359 -0.1244 -0.0484 -0.0395
32870ION     NA48487   2.584   8.543   5.793 -0.2270  0.1088  0.0074
32871ION     NA48488  15.410  11.733   3.867  0.4970  0.0574 -0.2629
32872ION     NA48489  11.827   4.410   9.351 -0.2654 -0.0548  0.0095
32873ION     NA48490   9.349  18.067   9.811  0.0842  0.0422 -0.3077
32874ION     NA48491   1.833  17.891   9.554  0.1533  0.0934  0.1954
32875ION     NA48492   2.561   4.984  10.078  0.0109 -0.1735 -0.0320
32876ION     NA48493  16.440   0.350   9.783 -0.2984  0.1228  0.0284
32877ION     NA48494  11.802  11.524  10.050 -0.3108  0.5159 -0.0326
32878ION     NA48495  18.736  15.345   9.313 -0.1625  0.3810 -0.1072
32879ION     NA48496  10.661  11.143   9.951 -0.0827  0.2453  0.1029
32880ION     NA48497   1.092  16.360   9.120 -0.0855  0.1549 -0.1677
32881ION     NA48498  17.107  14.271   9.638 -0.2357  0.1212 -0.1510
32882ION     NA48499  14.400  18.378   9.989  0.1433  0.3718  0.0850
32883ION     NA48500   4.837  10.149   9.715 -0.1052 -0.0246 -0.1025
32884ION     NA48501  12.061  13.828  10.086  0.5195 -0.2245 -0.3418
32885ION     NA48502  10.104   1.389  13.166 -0.4092  0.3433 -0.2128
32886ION     NA48503  10.000  16.176   5.787  0.0183 -0.4214  0.1826
32887ION     NA48504  15.938  16.231   9.625  0.2317  0.1495 -0.0822
32888ION     NA48505  16.061  13.720  13.669  0.2010  0.0788 -0.6565
32889ION     NA48506  11.922   5.327   5.173 -0.0984  0.1741 -0.1055
32890ION     NA48507   8.380   3.855   9.526  0.0879  0.1965 -0.1513
32891ION     NA48508   6.432  13.800  10.437  0.2736 -0.0280  0.0747
32892ION     NA48509  18.331   6.688   5.610  0.2582  0.0630 -0.0099
32893ION     NA48510   1.838  12.135   4.050 -0.2956 -0.2395 -0.2301
32894ION     NA48511   4.886   9.031   5.436 -0.1722  0.0589 -0.3014
32895ION     NA48512  14.024   6.195   2.398 -0.2277  0.0912  0.3701
32896ION     NA48513  10.253   8.472   9.839 -0.1344  0.1972 -0.0119
32897ION     NA48514   7.456   0.373   9.793  0.0499 -0.1573  0.0819
32898ION     NA48515  14.130  12.771   5.288  0.1715 -0.3566  0.0836
32899ION     NA48516   7.753   4.097   5.684 -0.4136  0.1596  0.0711
32900ION     NA48517  14.622   2.861  13.282 -0.1591  0.1284 -0.2029
32901ION     NA48518  12.469  11.346  10.234 -0.0012 -0.0575  0.1646
32902ION     NA48519  16.295   3.017   3.006  0.1873 -0.0057 -0.0658
32903ION     NA48520  11.103   8.915  11.167  0.0182  0.2058 -0.0164
32904ION     NA48521  10.738   5.909  12.021 -0.1759 -0.1438  0.4472
32905ION     NA48522  10.765   9.890   9.594 -0.0622 -0.0400 -0.2248
32906ION     NA48523   2.419   1.553  10.998  0.0763  0.1366  0.2342
32907ION     NA48524   8.728  15.345  10.170 -0.0981  0.2221 -0.1087
32908ION     NA48525   9.191  17.706   5.651  0.0308 -0.0820 -0.1844
32909ION     NA48526   0.553  11.970   5.248  0.0611  0.4519  0.1009
32910ION     NA48527   2.522  18.957   5.678 -0.1632 -0.0215  0.1534
32911ION     NA48528  18.015  13.019   0.862 -0.1314  0.2258 -0.0243
32912ION     NA48529  17.385  16.955   5.125  0.1931 -0.3752  0.0259
32913ION     NA48530  12.148   5.933  11.553 -0.0344  0.1087 -0.0440
32914ION     NA48531  12.368   9.179   4.701 -0.1549  0.0984  0.3145
32915ION     NA48532   2.415   8.004  10.070 -0.0020 -0.1485 -0.0429
32916ION     NA48533   1.236   4.080  10.054 -0.1346  0.0719  0.0173
32917ION     NA48534   4.516  10.299  14.102  0.1819 -0.1195  0.1028
32918ION     NA48535  15.866  18.691   9.602  0.0378  0.2166 -0.1257
32919ION     NA48536  13.583  11.769   2.273  0.2352  0.2679 -0.1871
32920ION     NA48537   5.676   9.930   9.754  0.1148 -0.0592  0.1994
32921ION     NA48538   2.711  16.631  11.032  0.0783 -0.5223  0.2528
32922ION     NA48539   7.800   9.472   9.794  0.1083 -0.2805 -0.0148
32923ION     NA48540  14.185   3.030   9.703  0.1161  0.1859  0.1479
32924ION     NA48541   4.725  16.912  10.315  0.0083  0.2723 -0.5306
32925ION     NA48542  14.156   8.996  10.766  0.3122  0.3132 -0.0770
32926ION     NA48543  16.368   6.624  10.199  0.0763  0.1669 -0.2238
32927ION     NA48544   6.922   5.107   9.674  0.0380 -0.1071  0.1769
32928ION     NA48545   9.006   8.840  11.327  0.2258  0.1990  0.2746
32929ION     NA48546  15.739   5.638   9.339 -0.0481  0.1546 -0.0001
32930ION     NA48547   8.075   8.362   1.464 -0.2248 -0.2052  0.0838
32931ION     NA48548  13.474   3.807  10.594 -0.0474  0.1567 -0.1254
32932ION     NA48549  11.892   0.445  10.026  0.0626  0.0244 -0.3411
32933ION     NA48550  12.388  16.870   1.026 -0.2694  0.2328  0.1925
32934ION     NA48551  16.358   8.179   9.505  0.2888 -0.1527  0.3467
32935ION     NA48552   5.013   3.086   1.909 -0.3214  0.2579  0.1036
32936ION     NA48553   5.047  13.396   9.746 -0.1843 -0.1008 -0.4168
32937ION     NA48554  11.141   6.928   2.180 -0.1195  0.2059  0.0120
32938ION     NA48555  10.073  12.561  13.373  0.0618  0.1296 -0.0094
32939ION     NA48556   9.791   5.308   5.076 -0.1942 -0.1423  0.0852
32940ION     NA48557   3.470   1.382   5.974  0.0876  0.1654 -0.1467
32941ION     NA48558  11.655  15.165   9.778 -0.0101  0.2959 -0.2379
32942ION     NA48559   1.471  12.397   0.804 -0.1950 -0.1300 -0.1099
32943ION     NA48560   1.989  16.783   9.452 -0.2408  0.3230  0.0194
32944ION     NA48561   9.948  14.139   5.805 -0.0098  0.0801 -0.0978
32945ION     NA48562  15.299  12.459   9.697 -0.0737 -0.0717 -0.3038
32946ION     NA48563  15.532   4.374   9.419  0.0943  0.1689  0.3318
32947ION     NA48564  15.228   1.328   9.518 -0.0233  0.1543  0.0874
32948ION     NA48565   3.085  15.780   9.706  0.1846  0.1755  0.1073
32949ION     NA48566   8.613   4.322  13.166  0.1068  0.3088  0.1099
32950ION     NA48567  10.333   1.035  10.850 -0.0302 -0.2742  0.0979
32951ION     NA48568   4.735   3.928  10.475  0.1268 -0.2066  0.3393
32952ION     NA48569  12.677   1.017   0.117 -0.1571 -0.1160  0.1652
32953ION     NA48570   6.273   9.656   5.475  0.0998  0.0498  0.1116
32954ION     NA48571  12.257  13.143   1.535 -0.3892 -0.1903  0.0435
32955ION     NA48572  18.353  16.342  12.893 -0.2917  0.2084 -0.0758
32956ION     NA48573   0.084   6.982   4.876  0.0470 -0.2479  0.0337
32957ION     NA48574  18.726  17.371  14.321  0.0876 -0.2273 -0.2070
32958ION     NA48575   4.596   7.806  14.563 -0.0875  0.1760 -0.3390
32959ION     NA48576  14.750  14.005  10.031 -0.1141 -0.1059 -0.2462
32960ION     NA48577  16.441   5.818   9.631 -0.2769  0.3336  0.1570
32961ION     NA48578   8.072  12.284  10.299  0.2032 -0.3719  0.1463
32962ION     NA48579   4.930   1.281  10.102 -0.1392  0.1256 -0.0019
32963ION     NA48580  13.104   3.942   3.241  0.2248  0.1168  0.3458
32964ION     NA48581   8.075   4.838   9.456 -0.0244  0.2461 -0.1113
32965ION     NA48582  14.277  15.566   9.922 -0.0690 -0.2127 -0.0913
32966ION     NA48583  11.510   0.987   0.179 -0.0077 -0.2259  0.0164
32967ION     NA48584  11.291  13.621   5.745 -0.0202  0.0497 -0.0427
32968ION     NA48585   8.310   5.902   9.903  0.1718  0.4815 -0.0701
32969ION     NA48586   8.012   2.334  10.832  0.3985  0.1689  0.1082
32970ION     NA48587  11.543  12.475  14.933  0.3138  0.2696 -0.1061
32971ION     NA48588   5.026   4.998  10.226 -0.1351  0.0618  0.1555
32972ION     NA48589   6.046  11.192  14.837 -0.1047 -0.1770  0.1049
32973ION     NA48590  17.397  15.783   9.518  0.2130 -0.2644  0.0730
32974ION     NA48591   4.792  17.588   9.650  0.3461 -0.0753  0.3689
32975ION     NA48592   0.713  15.625   9.301  0.1295  0.2722  0.0302
32976ION     NA48593   8.165   1.887  10.573  0.1703 -0.1409  0.2502
32977ION     NA48594   3.113  16.392   5.436  0.0712  0.1897 -0.2301
32978ION     NA48595  13.277  11.855   9.967  0.3071  0.0082  0.1886
32979ION     NA48596   3.992  10.215   9.544 -0.0175  0.2434 -0.1601
32980ION     NA48597   2.684   4.552   2.916 -0.1157 -0.3689 -0.1060
32981ION     NA48598   4.776   3.145  10.169  0.2749  0.0612  0.2197
32982ION     NA48599   0.227   9.998   9.670  0.3373 -0.0095 -0.0472
32983ION     NA48600   0.702   4.812  10.199 -0.3814 -0.2016 -0.1095
32984ION     NA48601   1.246  10.736   9.507 -0.3691  0.1711 -0.1600
32985ION     NA48602  14.595   7.305  10.438 -0.1670 -0.1215  0.1310
32986ION     NA48603  14.019  18.067  13.709  0.0355 -0.2789  0.3338
32987ION     NA48604  18.233  16.782   9.435 -0.1461 -0.1493  0.0378
32988ION     NA48605  18.058   9.244  14.492  0.0135 -0.0172  0.1185
32989ION     NA48606   4.092   1.426  10.024 -0.2969 -0.0570  0.0410
32990ION     NA48607   8.334  14.367   4.295  0.4031  0.3437 -0.1910
32991ION     NA48608   6.044  11.179   9.815 -0.1367  0.1129 -0.0991
32992ION     NA48609  10.132   9.000   2.757 -0.1019  0.1111 -0.2350
32993ION     NA48610   5.161   0.980   0.764  0.1423  0.0650  0.1725
32994ION     NA48611   1.266  13.035   9.691 -0.0337  0.1146 -0.0441
32995ION     NA48612   2.062   7.209   9.678  0.1047 -0.0498  0.4520
32996ION     NA48613   0.046   1.463   9.584 -0.0969  0.2118  0.0888
32997ION     NA48614  11.283   1.652   3.985 -0.1916 -0.5009  0.1461
32998ION     NA48615   3.866   6.489   9.906  0.4205  0.3456  0.3501
32999ION     NA48616   9.245   0.509   9.731  0.1581  0.0777  0.1911
33000ION     NA48617   6.696  10.332   2.321  0.0488  0.5964 -0.0408
33001ION     NA48618  15.763   7.993   9.803  0.1613  0.1036  0.1473
33002ION     NA48619   9.261   1.392   9.724  0.0801 -0.0671  0.0580
33003ION     NA48620   7.697   6.946   9.853  0.4296 -0.0723 -0.0716
33004ION     NA48621  13.513  11.044  13.287  0.3487  0.0504 -0.1485
33005ION     NA48622  11.010   9.922   0.272 -0.2743 -0.1541  0.2210
33006ION     NA48623   8.125  17.285  10.058  0.0127 -0.1435 -0.2292
33007ION     NA48624   6.225   5.691   9.838 -0.0759  0.1272  0.1407
33008ION     NA48625  12.093  17.890   0.361  0.0382 -0.0862  0.0485
33009ION     NA48626  15.382  14.743  10.037  0.0624 -0.1537  0.2432
33010ION     NA48627   3.209  18.533  10.695 -0.3811 -0.0556 -0.0905
33011ION     NA48628   2.413  16.047   9.620 -0.0734 -0.4850  0.0131
33012ION     NA48629  17.401   2.467   9.599  0.2312  0.4509 -0.0828
33013ION     NA48630  16.197   6.479   9.473 -0.0962 -0.1121 -0.0166
33014ION     NA48631  11.927  15.584   9.656 -0.3163 -0.1361  0.0669
33015ION     NA48632   5.636  18.404  10.219 -0.2212 -0.3892 -0.0030
33016ION     NA48633   6.532   0.736  10.115 -0.2064  0.1200 -0.4997
33017ION     NA48634   6.987   9.525   9.544 -0.0395  0.2536 -0.2059
33018ION     NA48635  18.384   4.058  10.032  0.1115 -0.0274 -0.0568
33019ION     NA48636  13.930   7.165   0.233  0.1713 -0.3202 -0.2602
33020ION     NA48637   1.265   1.348   0.194 -0.2736  0.1275 -0.0147
33021ION     NA48638  10.749   2.676   2.622 -0.0431  0.2205  0.2609
33022ION     NA48639  17.255   4.745  10.149 -0.0001  0.2741 -0.2127
33023ION     NA48640   9.601   0.309   4.998 -0.1866 -0.0869  0.1157
33024ION     NA48641   9.862   1.037  10.077  0.0632  0.1937 -0.3644
33025ION     NA48642  10.625   4.784   9.405  0.3300  0.2254 -0.2294
33026ION     NA48643   1.446   5.688  10.223 -0.2970 -0.2749 -0.2571
33027ION     NA48644   9.949   9.210   9.930 -0.2763 -0.1918 -0.1748
33028ION     NA48645   9.547  17.213   9.862  0.2144  0.0129 -0.2759
33029ION     NA48646  14.347   9.760   9.743 -0.4094  0.1359  0.2630
33030ION     NA48647  13.539  18.621   9.678  0.1753 -0.3575  0.0099
33031ION     NA48648   9.008  11.259   9.660 -0.2155 -0.3162 -0.0603
33032ION     NA48649  14.635   8.872   9.812 -0.0787  0.1093 -0.1322
33033ION     NA48650   3.540  14.460  11.204  0.4352  0.3214  0.2410
33034ION     NA48651   4.170  16.837   4.099  0.1731 -0.0328 -0.0950
33035ION     NA48652  15.300   6.571  10.071  0.1042 -0.0618 -0.0395
33036ION     NA48653  17.915   9.410   9.916 -0.0283 -0.1518  0.0861
33037ION     NA48654  14.910   7.400   4.197  0.1809 -0.1713 -0.3220
33038ION     NA48655  10.985   0.967   5.566  0.3091  0.0988  0.0066
33039ION     NA48656   4.697   6.639  10.160  0.0200  0.2896 -0.1082
33040ION     NA48657  11.195   1.233   9.740 -0.0401 -0.0310  0.0019
33041ION     NA48658   5.944   8.560   9.862 -0.3123  0.0500 -0.0550
33042ION     NA48659   3.276   2.047   2.768  0.1741  0.0232  0.1586
33043ION     NA48660   8.350  10.186   9.990 -0.0712 -0.0312 -0.2470
33044ION     NA48661   8.253  11.390   5.475 -0.1916  0.0991 -0.1226
33045ION     NA48662   0.228   4.241   9.834  0.0974  0.2205 -0.2931
33046ION     NA48663  18.054  14.451   9.415  0.0409  0.1022 -0.1204
33047ION     NA48664   2.438   6.967   5.767 -0.0831  0.1838  0.0547
33048ION     NA48665   6.408  15.358  10.136  0.3167 -0.3969 -0.2365
33049ION     NA48666   5.965  18.576  11.165 -0.1110 -0.1260  0.0966
33050ION     NA48667   1.165  13.068   0.331  0.0464  0.0607  0.1848
33051ION     NA48668  17.781   1.730   9.706  0.0420 -0.1172 -0.0771
33052ION     NA48669   3.408   7.161   9.584  0.1471  0.0244  0.1079
33053ION     NA48670  10.341  10.638  10.852 -0.0519 -0.3781 -0.1619
33054ION     NA48671   5.646  15.365   2.726  0.3175 -0.0623  0.0174
33055ION     NA48672   9.123  13.237  10.176  0.0229  0.1584 -0.0935
33056ION     NA48673  13.247  10.904   9.877  0.3431 -0.1295 -0.0330
33057ION     NA48674   4.756   5.545   5.808  0.1755  0.2334 -0.2100
33058ION     NA48675   8.516  13.399  13.049  0.3194  0.1496  0.0400
33059ION     NA48676   4.210   8.217   4.406 -0.2571 -0.2495  0.0612
33060ION     NA48677  12.603  17.328  12.901  0.1798  0.2911 -0.0599
33061ION     NA48678   2.746  14.643   4.455 -0.0367 -0.1162  0.5373
33062ION     NA48679  12.364  17.353  10.231  0.0412  0.1201  0.0340
33063ION     NA48680  11.796   0.036  10.335  0.2543 -0.0180  0.2444
33064ION     NA48681   8.539   5.935   3.467 -0.0232  0.2641 -0.0957
33065ION     NA48682   5.492  17.005   9.746  0.0273 -0.1531 -0.2698
33066ION     NA48683  14.769   5.499   9.298 -0.1245  0.0296 -0.1168
33067ION     NA48684  11.797   5.222   4.640 -0.1064 -0.1577  0.1748
33068ION     NA48685   0.589  14.207   9.634  0.1210 -0.0874 -0.4028
33069ION     NA48686   2.950  17.948   0.162 -0.0620 -0.1551  0.2442
33070ION     NA48687   2.222  13.421   9.534  0.2303 -0.2316  0.1392
33071ION     NA48688   3.997  18.708  10.262  0.1636  0.0587 -0.1771
33072ION     NA48689  10.666  18.040   9.882  0.1297 -0.0216 -0.0328
33073ION     NA48690  15.692   9.714  14.982 -0.0312 -0.1725 -0.1901
33074ION     NA48691  16.189   7.234   5.178  0.0357  0.4406 -0.0678
33075ION     NA48692  16.969  17.499   9.519  0.1277  0.0314 -0.1632
33076ION     NA48693   9.424   8.710  10.281 -0.0992  0.2630 -0.0422
33077ION     NA48694  13.024  14.148  10.012 -0.1648 -0.2277 -0.0033
33078ION     NA48695  18.352  17.532   5.225 -0.1113  0.0475  0.1324
33079ION     NA48696  10.510   8.275  13.157 -0.1273  0.0608 -0.1775
33080ION     NA48697  10.723  12.430  10.026  0.2890  0.2968  0.1834
33081ION     NA48698  10.662   6.766   4.943  0.1438 -0.0965 -0.0955
33082ION     NA48699  16.454   7.391   9.656  0.2360  0.1836  0.0301
33083ION     NA48700  13.510   6.586  12.451  0.0702  0.1128  0.1365
33084ION     NA48701  17.032   1.069   9.634  0.1059  0.5199  0.0352
33085ION     NA48702  15.858  17.721   9.524  0.1253  0.1492 -0.0468
33086ION     NA48703   0.210  17.406   2.905 -0.0594  0.4239  0.0672
33087ION     NA48704  14.588   4.669   9.697  0.1663  0.1207  0.1976
33088ION     NA48705  11.998  18.254  10.267 -0.1472 -0.0479  0.0180
33089ION     NA48706   5.756  14.584  10.081 -0.4058  0.2177 -0.2408
33090ION     NA48707  17.318  11.081   9.635  0.1176  0.1443  0.1379
33091ION     NA48708  11.128   6.432   9.846 -0.2037  0.2661 -0.2059
33092ION     NA48709   9.057   7.072   9.626 -0.0694  0.0100 -0.2094
33093ION     NA48710   2.101   7.861   5.531  0.0271 -0.0607  0.0791
33094ION     NA48711  10.832  18.991  10.037 -0.1045 -0.1655 -0.0602
33095ION     NA48712  15.033  10.503   9.695  0.0239 -0.2758  0.0358
33096ION     NA48713   8.821   2.986  13.685  0.1938 -0.0062 -0.0747
33097ION     NA48714   5.649   6.593   0.716 -0.2324  0.1938 -0.0043
33098ION     NA48715   0.441   1.752   0.021 -0.1900  0.2799  0.1290
33099ION     NA48716   8.282   0.384  13.144  0.0906  0.0455 -0.1798
33100ION     NA48717   5.510   6.908   9.956 -0.2316  0.1529 -0.1578
33101ION     NA48718  14.122   4.702   5.319 -0.0359 -0.0812 -0.1077
33102ION     NA48719   7.807   8.256  10.099 -0.0628  0.2062 -0.2011
33103ION     NA48720  16.089   1.073  12.652 -0.0536  0.0155  0.0487
33104ION     NA48721  16.710   1.758  13.137  0.0473  0.0571 -0.1982
33105ION     NA48722  12.838   5.989   5.634  0.1263  0.2009  0.1380
33106ION     NA48723  17.027  17.294  12.088 -0.0253 -0.2866  0.0865
33107ION     NA48724  17.714  13.311   9.396  0.0127  0.0336 -0.1504
33108ION     NA48725   6.886   4.774   4.736 -0.2789  0.1100  0.1336
33109ION     NA48726  12.781   7.011   9.520  0.2765  0.1765  0.0261
33110ION     NA48727   2.825   4.742  14.019  0.3328 -0.3232  0.1089
33111ION     NA48728  18.695  18.457   4.737 -0.0596  0.0483 -0.1603
33112ION     NA48729   3.160  14.626   3.251  0.1099  0.0411 -0.0210
33113ION     NA48730   7.926   2.090   5.486 -0.4747  0.0413  0.1357
33114ION     NA48731   4.735   7.587   0.282  0.1336  0.0404  0.1290
33115ION     NA48732  12.393  12.902   5.252  0.1281  0.3864 -0.1338
33116ION     NA48733   7.058  11.194   9.807  0.0148  0.1518  0.1274
33117ION     NA48734   6.309   5.272  11.934  0.0334  0.1271  0.0248
33118ION     NA48735  11.138   3.370   5.574 -0.3371  0.2392  0.0660
33119ION     NA48736  10.233  12.154   5.663 -0.0165  0.0711  0.0387
33120ION     NA48737   2.990   5.511   6.065  0.0618 -0.2488 -0.2290
33121ION     NA48738   2.678  13.818   1.425 -0.0838  0.0403 -0.2519
33122ION     NA48739   7.469   5.586   2.390 -0.1227 -0.0988  0.0766
33123ION     NA48740   0.954   7.602  10.089 -0.0442  0.0100 -0.0191
33124ION     NA48741   0.012  12.643   0.302  0.0263  0.1513 -0.3659
33125ION     NA48742   0.619  18.772   9.547  0.2611 -0.0462  0.0061
33126ION     NA48743   6.239   7.397  10.309 -0.1415 -0.0805 -0.1117
33127ION     NA48744   7.573   4.011   9.893  0.0808 -0.2402 -0.0186
33128ION     NA48745   6.402  12.958  10.050 -0.2976  0.3896  0.1789
33129ION     NA48746  10.878   9.402   9.795  0.1902  0.0386  0.3326
33130ION     NA48747   3.504   6.809   9.930 -0.0987  0.2499  0.1671
33131ION     NA48748   8.398  16.359   5.382  0.1394 -0.0555 -0.0758
33132ION     NA48749  14.398  14.657   3.149 -0.1560  0.0820 -0.0364
33133ION     NA48750  12.595  15.459   9.759  0.3771 -0.2931  0.3054
33134ION     NA48751   3.108   8.380  12.570 -0.1817  0.2437 -0.0240
33135ION     NA48752   9.557   0.991  14.809  0.3057  0.4385 -0.0258
33136ION     NA48753   3.475  14.993   9.576  0.2449  0.3302  0.0355
33137ION     NA48754  15.517   6.244   4.877  0.0009 -0.0322  0.1502
33138ION     NA48755   1.360   6.698  10.176 -0.2426 -0.3224  0.0199
33139ION     NA48756  18.416  11.801   9.637  0.1210  0.0186  0.0702
33140ION     NA48757  11.344  10.688   9.808 -0.2260  0.0668  0.0637
33141ION     NA48758  19.046  12.076   9.450 -0.1355 -0.1512 -0.3197
33142ION     NA48759   9.131  14.515   9.855  0.0442 -0.0273  0.0405
33143ION     NA48760  12.910  15.035   5.749  0.0028  0.0683  0.1905
33144ION     NA48761   8.844  18.032  10.050 -0.1030  0.0119  0.1209
33145ION     NA48762   7.828  12.883  10.880 -0.2180 -0.0603 -0.0638
33146ION     NA48763   7.365   2.457  10.271 -0.1642  0.0978 -0.3681
33147ION     NA48764   7.312  17.197   9.830  0.0681 -0.0963  0.2717
33148ION     NA48765  13.588  17.136  10.258 -0.0383  0.2020  0.1124
33149ION     NA48766  14.010   9.853   5.268 -0.0011  0.1575  0.2178
33150ION     NA48767  16.440   2.712  12.822 -0.1270  0.1104  0.1943
33151ION     NA48768   5.397  17.727  10.781  0.1312 -0.4355 -0.2446
33152ION     NA48769   9.791   7.431  12.063 -0.2193 -0.2792 -0.1139
33153ION     NA48770   6.923   4.599  11.121 -0.1667 -0.0049 -0.0803
33154ION     NA48771   7.779  16.918   9.970 -0.2401  0.0290 -0.0765
33155ION     NA48772   6.561   8.076   2.801 -0.0432  0.3432 -0.0714
33156ION     NA48773   6.953  15.519   5.005  0.0528 -0.1086 -0.2885
33157ION     NA48774  13.101  15.296  10.964  0.2163  0.0216 -0.0063
33158ION     NA48775   1.927   5.842  10.107 -0.0436 -0.2073 -0.1524
33159ION     NA48776   1.598   8.871  13.223 -0.3152 -0.4004  0.0879
33160ION     NA48777   3.817   9.202   9.499  0.6101  0.2029 -0.5167
33161ION     NA48778  14.422   0.445  10.225  0.0916  0.1054 -0.2566
33162ION     NA48779   6.969   3.854  10.478  0.1138  0.1678 -0.2608
33163ION     NA48780   9.000   3.268   9.612  0.3321  0.1036  0.1570
33164ION     NA48781   0.579  15.110   9.213  0.2199 -0.6010  0.2596
33165ION     NA48782   8.451   5.256   5.055  0.1002  0.1128 -0.1779
33166ION     NA48783  16.778  15.490   9.829 -0.3283 -0.0978  0.1362
33167ION     NA48784   3.460   5.188  10.034  0.2412  0.3607 -0.0459
33168ION     NA48785  18.823  18.389   9.548 -0.0202  0.3430 -0.2026
33169ION     NA48786  11.762   1.305  13.895  0.4093 -0.1737  0.1412
33170ION     NA48787   9.300   5.597  10.455  0.3523  0.0028  0.0773
33171ION     NA48788   4.158  18.158   5.766  0.0119  0.0401  0.1014
33172ION     NA48789   3.747  16.880  10.099 -0.2222  0.1128 -0.0905
33173ION     NA48790  16.249  13.471   9.851  0.0630 -0.0805 -0.1700
33174ION     NA48791  12.486  17.252   4.236  0.0223  0.0311  0.3088
33175ION     NA48792   6.787  17.009   9.855  0.0656  0.0263 -0.0208
33176ION     NA48793  11.206  15.870   5.855  0.1869  0.0184 -0.1835
33177ION     NA48794   3.541   2.222  10.352 -0.0182  0.5333  0.0222
33178ION     NA48795  17.381  12.822   5.073 -0.1641 -0.2556 -0.0497
33179ION     NA48796   2.772  18.558  10.214 -0.0836 -0.0022 -0.1132
33180ION     NA48797   1.684   7.805  11.898  0.0310 -0.0250  0.0909
33181ION     NA48798  10.847  10.871   0.827 -0.3696  0.2451 -0.1168
33182ION     NA48799   2.915  11.037   0.156  0.1328  0.0218 -0.0286
33183ION     NA48800   1.139   8.580   9.885 -0.0425  0.1226  0.1015
33184ION     NA48801  18.373   7.057   1.160 -0.1996 -0.4855  0.1415
33185ION     NA48802   9.153   4.150   9.643  0.1250  0.2177 -0.1105
33186ION     NA48803   0.159   9.006   3.902  0.0191 -0.1282 -0.2228
33187ION     NA48804   3.789  15.343   1.945 -0.1359 -0.0585 -0.2047
33188ION     NA48805  17.064   6.122   9.888  0.0991 -0.0079 -0.0205
33189ION     NA48806  15.264   2.241  10.265 -0.1108  0.1241  0.2342
33190ION     NA48807  17.685   9.171   5.517  0.0534 -0.2021 -0.1380
33191ION     NA48808   5.525   3.852  10.147 -0.4117  0.1056 -0.0646
33192ION     NA48809  18.772   9.371   9.552 -0.1559  0.0525  0.1812
33193ION     NA48810   6.484   2.361  10.229 -0.1537 -0.1266  0.4475
33194ION     NA48811   7.109  16.343   0.223 -0.2100  0.0701 -0.0229
33195ION     NA48812  12.391  10.608   0.659  0.3970  0.0549  0.0405
33196ION     NA48813  18.550   4.889   9.751 -0.0644 -0.0355 -0.0824
33197ION     NA48814  11.565  12.160  10.816 -0.2495  0.1450  0.1879
33198ION     NA48815  14.563   2.930   0.714  0.2628 -0.2272 -0.2192
33199ION     NA48816  15.968   2.383   5.311 -0.2980 -0.2249 -0.0734
33200ION     NA48817   1.182   0.247   9.974  0.1811 -0.2499 -0.3706
33201ION     NA48818  10.405   1.521   9.833  0.1027  0.0834  0.5058
33202ION     NA48819   6.072   1.542  10.297 -0.2774  0.1386  0.0005
33203ION     NA48820   2.243   0.650  14.509  0.2156 -0.0680  0.0967
33204ION     NA48821   1.027  17.329   8.953 -0.0072 -0.1775  0.2631
33205ION     NA48822  11.735   0.229  11.897  0.0380 -0.3355 -0.0337
33206ION     NA48823   1.889   6.370   4.314 -0.0338 -0.0715  0.0822
33207ION     NA48824   1.165   2.302   4.801 -0.0822  0.1956 -0.1169
33208ION     NA48825  11.453   6.191   5.088  0.0549  0.2235 -0.1483
33209ION     NA48826   8.863  18.865   9.667  0.0549  0.0299  0.0732
33210ION     NA48827   9.787   6.940   9.539  0.3234 -0.1695 -0.3944
33211ION     NA48828  17.405   3.705   1.039  0.0508  0.0317 -0.1865
33212ION     NA48829  17.025  11.138  15.159  0.3885 -0.0159  0.0846
33213ION     NA48830   8.422  11.157   9.859  0.2191  0.1148  0.0928
33214ION     NA48831  15.487   5.406   5.090  0.1891 -0.0368  0.1007
33215ION     NA48832  19.079   5.059   9.954 -0.2596 -0.2922  0.0928
33216ION     NA48833   2.012   3.996   5.799  0.1915 -0.2845 -0.0958
33217ION     NA48834  18.014  13.433  12.489 -0.2168  0.2490  0.3027
33218ION     NA48835  16.110   3.615   5.349 -0.1504 -0.1701 -0.2928
33219ION     NA48836   9.553  17.145  12.700  0.0689  0.0765  0.2227
33220ION     NA48837   0.029  17.247   9.230  0.1489  0.1657 -0.1489
33221ION     NA48838   2.810   1.065  10.223  0.1272 -0.2650 -0.0585
33222ION     NA48839  14.937   1.112   0.157  0.1421  0.0003  0.0534
33223ION     NA48840   2.020  10.201   9.587 -0.3981 -0.1321  0.3442
33224ION     NA48841   2.791   7.477  15.104  0.2028  0.1734 -0.0880
  19.07984  19.07984  15.28910
